Title
82275
    1SAPS     N    1   6.111   6.732  11.171  0.6107  0.3815  0.2384
    1SAPS   HN1    2   6.026   6.720  11.114 -0.1995  2.9414  0.7505
    1SAPS   HN2    3   6.155   6.642  11.200  0.2078  0.4497  1.1139
    1SAPS   HN3    4   6.085   6.785  11.257  1.4137  0.4191  0.4717
    1SAPS   C12    5   6.217   6.811  11.096  0.2878  0.1111 -0.7879
    1SAPS  H12A    6   6.199   6.780  10.994 -1.5598  1.7250 -1.0137
    1SAPS   C13    7   6.199   6.970  11.091  0.1209  0.1937  0.2877
    1SAPS  O13A    8   6.138   7.024  11.190 -0.0897  0.2259  0.0168
    1SAPS  O13B    9   6.273   7.033  11.010 -0.3593 -0.8200 -0.4406
    1SAPS   C11   10   6.359   6.777  11.153 -0.5553 -0.4701  0.2258
    1SAPS  H11A   11   6.360   6.806  11.261  0.0731  1.4649 -0.2512
    1SAPS  H11B   12   6.433   6.843  11.101  1.9469 -1.2763  2.4937
    1SAPS     P   13   6.450   6.560  11.025 -0.2347 -0.1919  0.0819
    1SAPS   O13   14   6.566   6.637  10.983 -0.3700 -0.5827 -0.0493
    1SAPS   O14   15   6.480   6.423  11.064 -0.0153  0.2647  0.0402
    1SAPS   O12   16   6.388   6.636  11.147 -0.3598 -0.6170 -0.0164
    1SAPS   O11   17   6.338   6.570  10.912  0.2291 -0.1261 -0.4569
    1SAPS    C1   18   6.242   6.465  10.902 -0.3051 -0.5003  0.1869
    1SAPS    HA   19   6.241   6.396  10.990  0.1617 -0.2749  0.3749
    1SAPS    HB   20   6.144   6.517  10.899 -0.1036 -0.1289  0.0762
    1SAPS    C2   21   6.282   6.384  10.785  0.3208  0.6810  0.5948
    1SAPS    HS   22   6.383   6.347  10.812 -0.5891 -1.5132  1.1733
    1SAPS   O21   23   6.274   6.468  10.669 -0.0069 -0.0384  0.3778
    1SAPS   C21   24   6.382   6.502  10.612 -0.0931  0.2998  0.0629
    1SAPS   O22   25   6.498   6.468  10.645  1.0451 -0.1726 -0.3450
    1SAPS   C22   26   6.355   6.589  10.485  0.0993  0.7461  0.1017
    1SAPS   H2R   27   6.248   6.580  10.457 -0.5812  3.9576  1.3007
    1SAPS   H2S   28   6.375   6.696  10.504  1.9819  0.4278  0.1227
    1SAPS    C3   29   6.198   6.253  10.769  0.9160  0.0163  0.5877
    1SAPS    HX   30   6.095   6.284  10.742  0.9113  0.3392  0.9661
    1SAPS    HY   31   6.194   6.191  10.861 -0.8954 -1.5041 -0.4398
    1SAPS   O31   32   6.244   6.169  10.659 -0.2686 -0.9636 -0.0137
    1SAPS   C31   33   6.327   6.072  10.704 -0.0362  0.1017  0.4759
    1SAPS   O32   34   6.369   6.070  10.815 -0.3354 -0.0492  0.2622
    1SAPS   C32   35   6.369   5.988  10.582 -0.1393  0.1651 -0.5338
    1SAPS   H2X   36   6.425   5.901  10.622 -1.5640  0.4572  2.3535
    1SAPS   H2Y   37   6.426   6.054  10.513 -1.3461  2.4257  0.4902
    1SAPS   C23   38   6.441   6.539  10.367  0.8578  0.4102 -0.0776
    1SAPS   H3R   39   6.421   6.437  10.328 -1.1883  1.1584 -1.1270
    1SAPS   H3S   40   6.543   6.540  10.411  0.3827 -1.2117  1.1689
    1SAPS   C24   41   6.447   6.633  10.251  0.9621  0.0178  1.1309
    1SAPS   H4R   42   6.431   6.731  10.302 -2.2141  0.5019 -0.5333
    1SAPS   H4S   43   6.363   6.617  10.179  1.8821  0.4004 -0.0684
    1SAPS   C25   44   6.576   6.645  10.175  0.1776  0.4942  0.0848
    1SAPS   H5R   45   6.665   6.642  10.240  0.3959  0.2560 -0.2210
    1SAPS   C26   46   6.596   6.659  10.039 -0.4797  0.0066 -0.0330
    1SAPS   H6R   47   6.703   6.643  10.019  0.0039 -1.6145  3.1525
    1SAPS   C27   48   6.493   6.645   9.927  0.2119 -0.5743 -0.7717
    1SAPS   H7R   49   6.396   6.628   9.977  1.3694 -2.2978  1.0709
    1SAPS   H7S   50   6.516   6.553   9.869  0.3045 -0.5028 -0.8504
    1SAPS   C28   51   6.487   6.762   9.828  0.1262  0.1531  0.6536
    1SAPS   H8R   52   6.426   6.853   9.841  1.7772  1.3419  0.4202
    1SAPS   C29   53   6.563   6.774   9.719 -0.5896 -0.4389 -0.5161
    1SAPS   H9R   54   6.559   6.857   9.647 -2.3213 -0.2397 -0.2247
    1SAPS  C210   55   6.659   6.663   9.681 -0.2581  0.1668  0.5748
    1SAPS  H10R   56   6.590   6.579   9.657 -0.1576  0.1938  0.1712
    1SAPS  H10S   57   6.728   6.637   9.764  0.7851  0.8392 -0.0446
    1SAPS  C211   58   6.738   6.712   9.557  0.0851 -0.6097 -0.3201
    1SAPS  H11R   59   6.733   6.821   9.543 -0.3692 -0.2157  2.3378
    1SAPS  C212   60   6.793   6.631   9.464 -0.8263  0.3839  0.0865
    1SAPS  H12R   61   6.848   6.675   9.380 -0.7244 -1.8309 -1.0591
    1SAPS  C213   62   6.793   6.478   9.473 -0.9847 -0.5717 -0.0260
    1SAPS  H13R   63   6.838   6.473   9.575  1.9869  1.2001 -1.1217
    1SAPS  H13S   64   6.864   6.431   9.402  0.6393  2.0154 -0.2527
    1SAPS  C214   65   6.658   6.419   9.444 -0.1878 -0.2466  0.4421
    1SAPS  H14R   66   6.603   6.465   9.361  2.5618  1.8574 -0.3831
    1SAPS  C215   67   6.609   6.308   9.503 -0.0611  0.7405  0.3251
    1SAPS  H15R   68   6.522   6.262   9.456  1.0082 -0.2031 -0.8096
    1SAPS  C216   69   6.665   6.234   9.619  0.2949  0.2976  0.7025
    1SAPS  H16R   70   6.774   6.211   9.613  0.1732 -0.0043 -1.0301
    1SAPS  H16S   71   6.613   6.136   9.630  1.4003 -0.2868  0.9663
    1SAPS  C217   72   6.656   6.306   9.754 -0.4924 -0.2948 -1.0360
    1SAPS  H17R   73   6.565   6.366   9.773  2.7101  4.5973  1.0448
    1SAPS  H17S   74   6.744   6.373   9.746  0.5326 -1.6185 -1.3093
    1SAPS  C218   75   6.667   6.215   9.873  0.2264  0.2586  0.0299
    1SAPS  H18R   76   6.761   6.156   9.868 -1.5912 -2.8467 -0.2970
    1SAPS  H18S   77   6.587   6.138   9.870  0.3031  0.2005 -0.7524
    1SAPS  C219   78   6.657   6.295  10.002 -0.2570  0.0989  0.3521
    1SAPS  H19R   79   6.559   6.348  10.007 -0.4630  0.0084 -1.6011
    1SAPS  H19S   80   6.727   6.380  10.012 -1.0946  1.1471 -1.8724
    1SAPS  C220   81   6.668   6.214  10.134 -0.2174  0.2333  0.6737
    1SAPS  H20R   82   6.575   6.166  10.169 -1.2800  2.3017  0.8820
    1SAPS  H20S   83   6.707   6.281  10.214 -1.8842  1.0940  0.8161
    1SAPS  H20T   84   6.752   6.142  10.127  3.1618  3.8733 -0.0434
    1SAPS   C33   85   6.239   5.933  10.526  0.2588 -0.1454  0.5849
    1SAPS   H3X   86   6.161   6.010  10.507  0.2811 -0.3360 -0.3239
    1SAPS   H3Y   87   6.189   5.857  10.590 -3.7255 -0.4431 -2.5069
    1SAPS   C34   88   6.279   5.876  10.396 -0.1069  0.3306 -0.1207
    1SAPS   H4X   89   6.328   5.780  10.425  0.6527  1.0418  1.0203
    1SAPS   H4Y   90   6.349   5.943  10.344  0.0018  0.0911 -0.2827
    1SAPS   C35   91   6.169   5.836  10.293 -0.2659 -0.7871  0.1135
    1SAPS   H5X   92   6.085   5.907  10.310  0.3407  0.0412 -0.2470
    1SAPS   H5Y   93   6.134   5.734  10.317  0.6786 -0.8807  1.1189
    1SAPS   C36   94   6.207   5.851  10.143  0.5182  0.0974 -0.2871
    1SAPS   H6X   95   6.285   5.778  10.113 -2.7274 -3.1653 -1.4832
    1SAPS   H6Y   96   6.247   5.953  10.122 -1.4307  0.8872 -0.4804
    1SAPS   C37   97   6.089   5.805  10.051  0.3653 -0.2722  0.1976
    1SAPS   H7X   98   6.008   5.873  10.084  0.2721 -0.3595  0.1466
    1SAPS   H7Y   99   6.052   5.703  10.076 -1.8497  0.1327 -1.1735
    1SAPS   C38  100   6.112   5.820   9.895  0.5047  0.2817 -0.4118
    1SAPS   H8X  101   6.209   5.769   9.878 -0.5127 -1.5435 -0.9750
    1SAPS   H8Y  102   6.140   5.926   9.874 -0.4837  0.5246 -0.5584
    1SAPS   C39  103   5.998   5.766   9.810  0.1255 -0.1809 -0.4876
    1SAPS   H9X  104   5.903   5.804   9.852 -0.1326 -0.9622 -0.3349
    1SAPS   H9Y  105   5.989   5.655   9.814 -1.1135 -0.0696  0.3350
    1SAPS  C310  106   6.027   5.787   9.668  0.1841  0.7069  0.5470
    1SAPS  H10X  107   6.088   5.707   9.621 -2.6389 -0.7772 -0.8367
    1SAPS  H10Y  108   6.070   5.888   9.648  0.9974  0.0778 -1.0865
    1SAPS  C311  109   5.898   5.779   9.580 -0.1559  0.5881  0.2030
    1SAPS  H11X  110   5.925   5.776   9.472 -0.3500 -3.3066  0.1131
    1SAPS  H11Y  111   5.833   5.867   9.599 -0.5550  0.2812  0.2670
    1SAPS  C312  112   5.809   5.657   9.610  0.1862 -0.2490 -0.4940
    1SAPS  H12X  113   5.743   5.697   9.690  0.5269  1.1496 -0.8762
    1SAPS  H12Y  114   5.882   5.580   9.642  0.1771 -0.3979 -0.8291
    1SAPS  C313  115   5.711   5.627   9.501  0.2567  0.0409  0.5124
    1SAPS  H13X  116   5.622   5.577   9.545 -0.2985  1.1502  0.6645
    1SAPS  H13Y  117   5.764   5.550   9.441  3.0342  0.3822  2.3426
    1SAPS  C314  118   5.669   5.747   9.412  0.2321 -0.3073 -1.1864
    1SAPS  H14X  119   5.730   5.840   9.418 -1.3295  0.6700  0.5616
    1SAPS  H14Y  120   5.567   5.775   9.447 -0.4944 -2.9247 -0.9633
    1SAPS  C315  121   5.666   5.695   9.268 -0.3945  0.1684  0.1053
    1SAPS  H15X  122   5.616   5.596   9.269 -2.4357  1.0885 -2.0227
    1SAPS  H15Y  123   5.767   5.675   9.227 -0.2498 -3.0605  1.7826
    1SAPS  C316  124   5.583   5.791   9.161  0.2590 -0.4638 -0.4210
    1SAPS  H16X  125   5.637   5.888   9.167 -0.9156  0.1354  3.6490
    1SAPS  H16Y  126   5.478   5.815   9.190  1.0538  3.4755 -0.2201
    1SAPS  C317  127   5.606   5.757   9.011  0.1581 -0.9079  0.5796
    1SAPS  H17X  128   5.711   5.737   8.981 -0.4147 -0.7858 -1.6987
    1SAPS  H17Y  129   5.578   5.846   8.950  2.8278 -0.2020  0.2764
    1SAPS  C318  130   5.533   5.631   8.959 -0.0742 -0.2486 -0.1102
    1SAPS  H18X  131   5.424   5.638   8.978 -0.2932 -2.4133 -0.3020
    1SAPS  H18Y  132   5.569   5.541   9.014 -1.7136  0.5430  2.4019
    1SAPS  H18Z  133   5.529   5.623   8.848 -3.0639  2.2988 -0.3234
    2SAPS     N  134   4.839   0.692  10.916 -0.1282 -0.7506 -0.4988
    2SAPS   HN1  135   4.935   0.680  10.879 -0.2607  0.5909 -1.3307
    2SAPS   HN2  136   4.785   0.752  10.851 -2.5515 -3.8078 -1.5855
    2SAPS   HN3  137   4.860   0.731  11.010 -1.0017 -0.2632 -0.4980
    2SAPS   C12  138   4.753   0.569  10.926 -0.2181 -0.0737  0.2719
    2SAPS  H12A  139   4.805   0.506  10.997  2.2489 -0.5618 -1.8402
    2SAPS   C13  140   4.607   0.594  10.972 -0.2277 -0.4553 -0.3293
    2SAPS  O13A  141   4.586   0.696  11.035 -0.5230 -1.4254 -0.6349
    2SAPS  O13B  142   4.537   0.490  10.979 -0.1646 -0.2506  0.5718
    2SAPS   C11  143   4.744   0.495  10.792 -0.1975  0.3800  0.4116
    2SAPS  H11A  144   4.688   0.565  10.727 -1.7951 -0.0156  1.3263
    2SAPS  H11B  145   4.675   0.409  10.804  0.7748 -0.3885  0.6431
    2SAPS     P  146   4.935   0.308  10.745 -0.0120  0.0836 -0.2525
    2SAPS   O13  147   5.065   0.303  10.679 -0.4912 -0.2736  0.2987
    2SAPS   O14  148   4.924   0.265  10.883  0.0216 -0.2150 -0.4050
    2SAPS   O12  149   4.878   0.461  10.746 -0.1637  0.5874  0.0294
    2SAPS   O11  150   4.826   0.229  10.660  0.1751  0.2597 -0.3490
    2SAPS    C1  151   4.796   0.095  10.668  0.0882  0.2856 -0.3606
    2SAPS    HA  152   4.884   0.037  10.702 -0.5911  0.2208  1.3663
    2SAPS    HB  153   4.725   0.083  10.753  2.0203  1.4669  1.5131
    2SAPS    C2  154   4.738   0.036  10.539 -0.8630  0.2711  0.5343
    2SAPS    HS  155   4.733  -0.074  10.549  2.7168 -0.2174 -1.3503
    2SAPS   O21  156   4.821   0.061  10.420 -0.4154  0.3494 -0.6693
    2SAPS   C21  157   4.948   0.013  10.422 -0.4625  0.1117 -0.4376
    2SAPS   O22  158   4.996  -0.073  10.496  0.4030  0.2204  0.2840
    2SAPS   C22  159   5.031   0.076  10.301 -1.2653 -0.9132 -0.1931
    2SAPS   H2R  160   4.996   0.178  10.273  4.7849  2.1403  1.7072
    2SAPS   H2S  161   5.130   0.095  10.347 -0.4450 -2.0080 -1.4333
    2SAPS    C3  162   4.596   0.099  10.511 -0.4535  0.7664 -0.0282
    2SAPS    HX  163   4.619   0.206  10.488 -3.5250  1.2539 -1.3202
    2SAPS    HY  164   4.526   0.096  10.597 -0.1286  1.1590  0.2579
    2SAPS   O31  165   4.537   0.037  10.394 -0.1239  0.3471  0.4735
    2SAPS   C31  166   4.424   0.110  10.363  0.6335 -0.2320  1.1300
    2SAPS   O32  167   4.383   0.206  10.427 -0.4165 -0.4773  0.4405
    2SAPS   C32  168   4.348   0.045  10.243  0.2870 -0.4437 -0.1477
    2SAPS   H2X  169   4.273  -0.031  10.273 -2.5349  2.5338  1.0599
    2SAPS   H2Y  170   4.424  -0.008  10.182  0.4498 -0.2877 -0.0795
    2SAPS   C23  171   5.056  -0.018  10.183  0.2685  0.2115 -0.2958
    2SAPS   H3R  172   4.989  -0.005  10.096 -1.3197  2.4013  1.1357
    2SAPS   H3S  173   5.036  -0.123  10.216  0.3069 -0.1772 -1.4725
    2SAPS   C24  174   5.203  -0.024  10.138 -0.7063  0.3732  0.5641
    2SAPS   H4R  175   5.214  -0.104  10.061  1.0733  0.2697  0.8895
    2SAPS   H4S  176   5.278  -0.057  10.212  0.8640  0.8662 -0.7368
    2SAPS   C25  177   5.252   0.109  10.082  0.9957  0.0200 -0.6399
    2SAPS   H5R  178   5.249   0.188  10.159 -0.5770 -0.2467 -0.3892
    2SAPS   C26  179   5.294   0.131   9.960 -0.0207 -0.5278  0.0274
    2SAPS   H6R  180   5.344   0.228   9.942  1.1985 -0.9995  0.7261
    2SAPS   C27  181   5.298   0.036   9.847 -0.4921 -0.6128  0.0929
    2SAPS   H7R  182   5.287   0.081   9.746 -2.6321  0.4992  0.7549
    2SAPS   H7S  183   5.217  -0.039   9.863  0.1747 -0.8774  2.5800
    2SAPS   C28  184   5.435  -0.037   9.843  1.1824  0.7014  0.2626
    2SAPS   H8R  185   5.497  -0.026   9.933 -0.4322 -1.9265  1.8363
    2SAPS   C29  186   5.490  -0.101   9.733 -0.2948 -0.0386 -0.5694
    2SAPS   H9R  187   5.596  -0.132   9.729 -0.2439  0.3306 -2.6812
    2SAPS  C210  188   5.415  -0.130   9.601 -0.4784 -0.3232 -0.3420
    2SAPS  H10R  189   5.392  -0.029   9.560  0.1980 -0.0081  0.0390
    2SAPS  H10S  190   5.319  -0.184   9.618 -0.3081 -0.9350 -1.2442
    2SAPS  C211  191   5.496  -0.203   9.501 -0.0083 -0.3833  0.6834
    2SAPS  H11R  192   5.593  -0.244   9.534  1.8493  2.9861 -0.0800
    2SAPS  C212  193   5.463  -0.220   9.372  0.9062 -0.1680  0.0368
    2SAPS  H12R  194   5.548  -0.256   9.312 -0.7927 -2.5433 -1.1389
    2SAPS  C213  195   5.344  -0.161   9.296 -0.7504  0.8070  0.0649
    2SAPS  H13R  196   5.386  -0.087   9.224  2.0386 -1.1528 -0.4692
    2SAPS  H13S  197   5.272  -0.100   9.356 -0.8370  0.6317  0.1381
    2SAPS  C214  198   5.271  -0.264   9.221  0.6144  0.9597  0.1692
    2SAPS  H14R  199   5.225  -0.339   9.286 -0.3482  0.3558 -1.1579
    2SAPS  C215  200   5.268  -0.277   9.090  0.3040 -1.0890  0.7040
    2SAPS  H15R  201   5.195  -0.346   9.045  1.5307 -0.6244 -2.2187
    2SAPS  C216  202   5.339  -0.188   8.991 -0.2050 -0.1203  0.8373
    2SAPS  H16R  203   5.395  -0.102   9.034  1.0275  0.5432 -1.8875
    2SAPS  H16S  204   5.280  -0.147   8.905 -0.5698  1.3986  1.7615
    2SAPS  C217  205   5.455  -0.268   8.917 -0.0875 -0.2159  0.1222
    2SAPS  H17R  206   5.405  -0.355   8.870  1.4416 -1.4275  0.6354
    2SAPS  H17S  207   5.516  -0.318   8.995 -1.1955 -0.8892  0.5749
    2SAPS  C218  208   5.531  -0.183   8.818 -0.3390 -0.2843  0.5011
    2SAPS  H18R  209   5.615  -0.247   8.782 -0.5687 -0.2950 -0.0246
    2SAPS  H18S  210   5.576  -0.092   8.863  2.4843 -0.9644 -0.7367
    2SAPS  C219  211   5.465  -0.150   8.684 -0.8114 -0.3132  0.3436
    2SAPS  H19R  212   5.384  -0.075   8.697 -0.5477  0.2335 -1.0250
    2SAPS  H19S  213   5.410  -0.240   8.646 -0.8970  0.0520 -0.4074
    2SAPS  C220  214   5.560  -0.103   8.573 -0.0459 -0.3041 -0.5541
    2SAPS  H20R  215   5.607  -0.007   8.601 -0.4615 -0.1887 -0.2318
    2SAPS  H20S  216   5.509  -0.089   8.475 -0.1346 -0.6695 -0.5641
    2SAPS  H20T  217   5.649  -0.168   8.565  1.3472  1.5014 -0.2881
    2SAPS   C33  218   4.294   0.157  10.163 -0.3379 -0.1570 -0.0120
    2SAPS   H3X  219   4.367   0.238  10.141 -0.7098  0.3740  0.6888
    2SAPS   H3Y  220   4.202   0.191  10.216  0.1730  1.7957 -0.2809
    2SAPS   C34  221   4.227   0.106  10.030  0.4444  0.4169  0.8075
    2SAPS   H4X  222   4.160   0.188   9.996  3.7286  2.3039 -1.6567
    2SAPS   H4Y  223   4.164   0.016  10.050  0.2616  0.2466 -0.4509
    2SAPS   C35  224   4.329   0.077   9.920 -1.0318  0.4303  0.2195
    2SAPS   H5X  225   4.393  -0.009   9.950  0.0102  2.1127  3.2525
    2SAPS   H5Y  226   4.381   0.175   9.907 -3.5206  1.5860 -1.8850
    2SAPS   C36  227   4.263   0.065   9.777  0.6680 -0.4863 -0.1002
    2SAPS   H6X  228   4.215   0.163   9.757  1.4141 -0.6802 -3.1955
    2SAPS   H6Y  229   4.191  -0.020   9.781  1.8143 -1.5271 -0.9362
    2SAPS   C37  230   4.362   0.048   9.665  0.0105 -0.1905  0.0576
    2SAPS   H7X  231   4.437  -0.022   9.708 -0.9480  0.8826  3.7739
    2SAPS   H7Y  232   4.418   0.142   9.646  0.5391 -0.8081 -1.6284
    2SAPS   C38  233   4.301  -0.007   9.533  0.6314 -0.4056  0.4445
    2SAPS   H8X  234   4.236   0.074   9.494 -0.7684 -1.9504 -0.5619
    2SAPS   H8Y  235   4.239  -0.099   9.543  1.4880 -1.0850 -0.3021
    2SAPS   C39  236   4.396  -0.024   9.418 -0.0420  0.8997  0.1191
    2SAPS   H9X  237   4.479  -0.093   9.443  0.4567  1.5076  0.1609
    2SAPS   H9Y  238   4.435   0.073   9.381  0.3647  0.0439 -1.7845
    2SAPS  C310  239   4.320  -0.079   9.300  0.0754  0.9252 -0.1937
    2SAPS  H10X  240   4.228  -0.019   9.288 -0.4186  0.2063 -0.0671
    2SAPS  H10Y  241   4.284  -0.181   9.325  1.0560  0.7789  0.6817
    2SAPS  C311  242   4.410  -0.082   9.174  0.2040  0.0452 -1.2569
    2SAPS  H11X  243   4.517  -0.099   9.197  0.2907  1.6148 -0.3565
    2SAPS  H11Y  244   4.415   0.021   9.132 -1.1029  0.7540  0.2084
    2SAPS  C312  245   4.368  -0.180   9.069 -0.1415  0.4226  0.1989
    2SAPS  H12X  246   4.267  -0.156   9.028 -0.3685  0.9980  1.0636
    2SAPS  H12Y  247   4.366  -0.279   9.119 -0.3546  0.3802  0.1105
    2SAPS  C313  248   4.464  -0.196   8.942 -0.1900 -0.4067 -0.0152
    2SAPS  H13X  249   4.568  -0.193   8.980 -0.8596  1.8998  1.9143
    2SAPS  H13Y  250   4.448  -0.102   8.885  0.0391 -0.3252  0.0528
    2SAPS  C314  251   4.437  -0.313   8.859 -0.4799  0.3490  0.9935
    2SAPS  H14X  252   4.330  -0.339   8.876 -0.0296 -1.8539  0.8594
    2SAPS  H14Y  253   4.494  -0.403   8.893 -0.4978 -0.1490 -0.2449
    2SAPS  C315  254   4.454  -0.302   8.702  0.5095  0.1025  0.9207
    2SAPS  H15X  255   4.467  -0.193   8.681 -0.2171 -0.1953 -1.3124
    2SAPS  H15Y  256   4.357  -0.329   8.654  0.2186  1.1934  0.8566
    2SAPS  C316  257   4.575  -0.383   8.647 -0.3084  0.0894  0.5827
    2SAPS  H16X  258   4.550  -0.489   8.665  1.1370 -0.7850 -2.1015
    2SAPS  H16Y  259   4.662  -0.358   8.712 -2.0101  2.9962  1.9680
    2SAPS  C317  260   4.604  -0.351   8.501  0.4195 -0.9209 -0.6721
    2SAPS  H17X  261   4.670  -0.262   8.487 -1.0238  0.0603 -1.5806
    2SAPS  H17Y  262   4.511  -0.334   8.443 -0.2405 -0.6516  0.4218
    2SAPS  C318  263   4.668  -0.473   8.438  0.1708  0.1364  0.6890
    2SAPS  H18X  264   4.724  -0.448   8.345  1.6129  0.5978  1.6377
    2SAPS  H18Y  265   4.589  -0.549   8.421  0.2181  0.7246 -2.9558
    2SAPS  H18Z  266   4.742  -0.531   8.498  1.2531 -2.2591 -2.6471
    3SAPS     N  267   4.645   3.502  10.976 -0.6098  0.3683  0.5911
    3SAPS   HN1  268   4.548   3.532  11.001 -0.8750 -0.1720  0.2374
    3SAPS   HN2  269   4.675   3.574  10.907 -1.5890 -0.9207 -1.2690
    3SAPS   HN3  270   4.647   3.410  10.928  0.3959  1.5618 -1.8420
    3SAPS   C12  271   4.734   3.522  11.091 -0.2450  0.4635  0.0661
    3SAPS  H12A  272   4.764   3.625  11.100  0.4365  0.1421  1.8369
    3SAPS   C13  273   4.681   3.487  11.233 -0.2751 -0.8045  1.0485
    3SAPS  O13A  274   4.585   3.411  11.247 -0.4350  0.7301 -0.4434
    3SAPS  O13B  275   4.753   3.525  11.327  0.4527 -0.0987 -0.2293
    3SAPS   C11  276   4.858   3.430  11.074 -0.3913 -0.5026 -0.2036
    3SAPS  H11A  277   4.835   3.321  11.074  0.2158 -0.6596 -1.7595
    3SAPS  H11B  278   4.921   3.451  11.163 -2.2213  0.1386  0.9985
    3SAPS     P  279   5.035   3.366  10.887 -0.1331  0.2750  0.1259
    3SAPS   O13  280   5.165   3.433  10.912  0.1140  0.3343  0.0972
    3SAPS   O14  281   5.013   3.228  10.941 -0.3662  0.2889  0.4679
    3SAPS   O12  282   4.930   3.463  10.956 -0.4407  0.1608  1.0160
    3SAPS   O11  283   4.996   3.370  10.739 -0.3404  0.1032  0.5084
    3SAPS    C1  284   4.920   3.470  10.671  0.3099  0.2192  0.3199
    3SAPS    HA  285   4.815   3.443  10.695  0.4564 -1.7772 -1.0497
    3SAPS    HB  286   4.949   3.576  10.685  0.7423  0.3463 -1.3014
    3SAPS    C2  287   4.927   3.445  10.517  0.7694 -0.2996  0.1567
    3SAPS    HS  288   4.836   3.486  10.469  0.3673 -0.9237  0.3678
    3SAPS   O21  289   4.940   3.309  10.482  0.0588 -0.3635 -0.2308
    3SAPS   C21  290   4.833   3.238  10.495 -0.4557 -0.7169  0.4895
    3SAPS   O22  291   4.728   3.276  10.538  0.5073  0.3887  0.4986
    3SAPS   C22  292   4.858   3.095  10.441  0.0334  0.4260  0.1224
    3SAPS   H2R  293   4.945   3.102  10.372 -0.2439 -1.2348 -0.4411
    3SAPS   H2S  294   4.881   3.020  10.519 -1.6604 -0.9473 -0.6285
    3SAPS    C3  295   5.041   3.528  10.456  0.1071 -0.1535 -0.1085
    3SAPS    HX  296   5.135   3.496  10.507  2.0270  1.6899 -2.3033
    3SAPS    HY  297   5.037   3.633  10.491 -0.0093 -0.0481 -0.4410
    3SAPS   O31  298   5.049   3.522  10.311  1.0748 -0.6370 -0.0220
    3SAPS   C31  299   5.134   3.454  10.244 -0.4910  0.0859  0.0856
    3SAPS   O32  300   5.230   3.395  10.288 -0.5361  0.5431 -0.3701
    3SAPS   C32  301   5.104   3.461  10.098 -0.7763  0.3221  0.0762
    3SAPS   H2X  302   5.104   3.570  10.081  0.7995  0.4199  0.6048
    3SAPS   H2Y  303   4.998   3.427  10.088 -1.0118  0.7556  1.0050
    3SAPS   C23  304   4.727   3.043  10.370  0.4900  0.5441  0.1636
    3SAPS   H3R  305   4.701   3.111  10.285  0.1166 -0.8686 -0.8822
    3SAPS   H3S  306   4.650   3.041  10.449 -0.2630  0.2229 -0.5628
    3SAPS   C24  307   4.728   2.905  10.321 -0.1013 -0.3121  0.1923
    3SAPS   H4R  308   4.633   2.881  10.269  0.3952 -0.4725 -0.6497
    3SAPS   H4S  309   4.750   2.836  10.406  0.7183 -0.4820 -0.1522
    3SAPS   C25  310   4.850   2.885  10.230  0.2616 -0.3732  0.0268
    3SAPS   H5R  311   4.953   2.875  10.269  0.4961 -2.1886 -0.9433
    3SAPS   C26  312   4.841   2.898  10.096  0.1473 -0.2650 -0.1640
    3SAPS   H6R  313   4.931   2.872  10.038  1.2851  1.6353  0.6494
    3SAPS   C27  314   4.721   2.919  10.004  0.8328 -0.1438 -0.1107
    3SAPS   H7R  315   4.632   2.901  10.068  0.1519  0.0087 -1.0013
    3SAPS   H7S  316   4.708   2.843   9.924 -0.8115 -0.8462  0.7704
    3SAPS   C28  317   4.732   3.062   9.948  0.0879  0.2666  0.7493
    3SAPS   H8R  318   4.731   3.136  10.030 -1.2323 -0.7029  1.6336
    3SAPS   C29  319   4.725   3.110   9.816  0.3537 -0.3079  0.5291
    3SAPS   H9R  320   4.728   3.220   9.804 -0.6277 -0.1491  1.5554
    3SAPS  C210  321   4.703   3.022   9.690 -0.0497  0.2830 -0.0882
    3SAPS  H10R  322   4.636   2.937   9.713 -3.0319  2.4626 -0.1431
    3SAPS  H10S  323   4.802   2.982   9.658  1.4890  2.3019  1.8051
    3SAPS  C211  324   4.637   3.101   9.577 -0.3183 -0.6327  0.1363
    3SAPS  H11R  325   4.544   3.156   9.599  0.1802  0.7885 -1.1352
    3SAPS  C212  326   4.684   3.112   9.453  0.1682  0.3202  0.3806
    3SAPS  H12R  327   4.635   3.184   9.386 -1.0442  1.0946  2.0126
    3SAPS  C213  328   4.807   3.062   9.384 -0.0159  0.3952  0.6583
    3SAPS  H13R  329   4.848   2.973   9.435  0.2977 -1.1454 -2.0686
    3SAPS  H13S  330   4.888   3.138   9.382  0.3158  0.0368  0.1049
    3SAPS  C214  331   4.760   3.009   9.248 -0.5510 -0.0431 -0.2560
    3SAPS  H14R  332   4.671   2.945   9.259 -0.0936 -0.3301  2.2110
    3SAPS  C215  333   4.831   3.026   9.132  0.3076  0.0224 -0.4873
    3SAPS  H15R  334   4.776   2.994   9.042 -2.1184 -0.2286  0.9991
    3SAPS  C216  335   4.964   3.095   9.098 -0.9064  0.2160  0.2950
    3SAPS  H16R  336   5.028   3.094   9.189  0.8420  0.2292 -0.8827
    3SAPS  H16S  337   4.946   3.201   9.072 -0.3128  0.1130 -0.5898
    3SAPS  C217  338   5.029   3.040   8.968  0.3481  0.0165 -0.2962
    3SAPS  H17R  339   5.101   3.118   8.935  0.2575  1.5492  2.7947
    3SAPS  H17S  340   4.957   3.025   8.885  1.2085 -1.2706 -0.8398
    3SAPS  C218  341   5.092   2.903   8.991  0.5898 -0.0819  0.4577
    3SAPS  H18R  342   5.008   2.833   9.009  0.2522  0.0248 -0.6089
    3SAPS  H18S  343   5.161   2.910   9.078 -0.3151 -0.1465  1.1835
    3SAPS  C219  344   5.176   2.849   8.871  0.6982 -0.1360  0.3550
    3SAPS  H19R  345   5.225   2.754   8.899 -2.5691 -2.4278 -1.0427
    3SAPS  H19S  346   5.255   2.920   8.838  0.8584  0.2873  1.6157
    3SAPS  C220  347   5.090   2.816   8.745  0.1304 -0.6170  0.6449
    3SAPS  H20R  348   5.142   2.755   8.668 -2.3557 -0.2690 -1.4458
    3SAPS  H20S  349   5.064   2.915   8.701 -0.4557 -0.7728  0.6384
    3SAPS  H20T  350   4.992   2.770   8.770  0.9481 -1.2909  2.7604
    3SAPS   C33  351   5.202   3.379  10.012  0.1699  0.0005 -0.2807
    3SAPS   H3X  352   5.198   3.273  10.046 -0.4387  0.4910  1.2556
    3SAPS   H3Y  353   5.304   3.422  10.015 -1.0390  3.0131  1.0616
    3SAPS   C34  354   5.152   3.401   9.866 -0.7454 -0.3929 -0.2763
    3SAPS   H4X  355   5.215   3.334   9.804  0.2306  1.9479 -1.9845
    3SAPS   H4Y  356   5.186   3.500   9.828 -0.4222 -0.8360 -1.1741
    3SAPS   C35  357   5.005   3.371   9.832  0.8047 -0.4706 -0.4689
    3SAPS   H5X  358   4.957   3.468   9.856  1.5439 -0.0971 -0.4595
    3SAPS   H5Y  359   4.971   3.289   9.899  2.0679 -1.0456 -0.4920
    3SAPS   C36  360   4.984   3.338   9.684 -0.6057 -0.3919 -0.7257
    3SAPS   H6X  361   4.880   3.300   9.673  0.0988 -2.4264 -0.7542
    3SAPS   H6Y  362   5.053   3.253   9.667  2.4240  1.4341  1.3980
    3SAPS   C37  363   5.018   3.453   9.598 -0.4033 -0.3179 -0.2724
    3SAPS   H7X  364   5.127   3.473   9.606 -0.3518 -1.1844  1.6274
    3SAPS   H7Y  365   4.964   3.546   9.627  1.3395  0.8629 -0.6527
    3SAPS   C38  366   4.980   3.413   9.456  0.0356 -0.2937  0.0317
    3SAPS   H8X  367   4.869   3.406   9.445  0.2054  0.0146 -2.3866
    3SAPS   H8Y  368   5.021   3.311   9.435  0.8640 -0.3909  1.9533
    3SAPS   C39  369   5.018   3.511   9.351 -0.3401 -0.1002  0.4738
    3SAPS   H9X  370   5.127   3.532   9.359 -0.1821  0.7795 -2.4451
    3SAPS   H9Y  371   4.969   3.610   9.358  0.3577  0.2980 -0.0171
    3SAPS  C310  372   5.004   3.457   9.208  0.3624  0.1688 -0.1086
    3SAPS  H10X  373   4.896   3.469   9.189  0.4229 -0.7793 -1.1716
    3SAPS  H10Y  374   5.039   3.354   9.186 -0.5976  0.0300 -1.0661
    3SAPS  C311  375   5.070   3.552   9.116 -0.4231  0.3950  0.5407
    3SAPS  H11X  376   5.178   3.537   9.135 -0.8494  0.8885  3.8981
    3SAPS  H11Y  377   5.039   3.657   9.140 -0.5061  0.3969  0.4260
    3SAPS  C312  378   5.058   3.524   8.963 -0.6746 -0.1681  0.4376
    3SAPS  H12X  379   4.956   3.562   8.938 -1.0843 -2.1703 -1.2151
    3SAPS  H12Y  380   5.066   3.418   8.932  0.8110 -0.0301  0.2756
    3SAPS  C313  381   5.156   3.613   8.880 -0.0073 -0.0491 -0.2708
    3SAPS  H13X  382   5.263   3.590   8.899  0.4977  3.1848  1.5469
    3SAPS  H13Y  383   5.149   3.719   8.910 -0.7259 -0.1119 -0.1968
    3SAPS  C314  384   5.150   3.590   8.728  0.1888  0.1213 -0.2386
    3SAPS  H14X  385   5.044   3.587   8.695  0.8360  0.6005 -2.5621
    3SAPS  H14Y  386   5.205   3.497   8.700  0.3988  0.1802 -0.0207
    3SAPS  C315  387   5.219   3.708   8.659 -0.0412  0.0529  0.1282
    3SAPS  H15X  388   5.326   3.710   8.689 -0.2071 -2.0207  1.0394
    3SAPS  H15Y  389   5.179   3.801   8.706 -1.0057 -0.4039  0.2504
    3SAPS  C316  390   5.210   3.704   8.504 -0.3850 -0.4316 -0.3107
    3SAPS  H16X  391   5.241   3.602   8.474  1.2231 -0.2643  0.6425
    3SAPS  H16Y  392   5.278   3.779   8.460 -1.6305  1.4092  0.7340
    3SAPS  C317  393   5.077   3.737   8.439  0.5534 -0.1018  0.7548
    3SAPS  H17X  394   5.033   3.834   8.471 -2.8927 -1.4912  0.6514
    3SAPS  H17Y  395   5.006   3.663   8.482 -0.9413  0.1104 -1.2142
    3SAPS  C318  396   5.082   3.718   8.290  0.3509 -0.4133  0.8839
    3SAPS  H18X  397   5.115   3.614   8.267 -2.6415 -1.7317  2.1160
    3SAPS  H18Y  398   5.147   3.795   8.243  3.3199 -2.1567  1.8754
    3SAPS  H18Z  399   4.982   3.727   8.244  1.3207 -0.6402 -1.4098
    4SAPS     N  400   0.238   3.170  11.076 -0.4548 -0.3995  0.2086
    4SAPS   HN1  401   0.140   3.185  11.045 -0.7878  1.1781  1.8527
    4SAPS   HN2  402   0.296   3.100  11.026 -1.3795 -1.4452  0.5519
    4SAPS   HN3  403   0.231   3.133  11.173 -1.1045  1.2199  0.8308
    4SAPS   C12  404   0.306   3.305  11.074  0.1276 -0.6900  0.0059
    4SAPS  H12A  405   0.231   3.371  11.116 -1.1042 -1.3045 -1.1408
    4SAPS   C13  406   0.437   3.325  11.157  0.5585  0.2176 -0.3239
    4SAPS  O13A  407   0.495   3.224  11.208 -0.3204 -0.3672  0.0517
    4SAPS  O13B  408   0.484   3.434  11.170  0.0535  0.4779  0.2619
    4SAPS   C11  409   0.322   3.346  10.931  0.5642 -0.7502  0.7766
    4SAPS  H11A  410   0.390   3.275  10.879  1.1934 -0.5488  1.3171
    4SAPS  H11B  411   0.368   3.447  10.922  0.4229 -0.1769  4.6439
    4SAPS     P  412   0.185   3.336  10.714  0.4358 -0.0072 -0.4358
    4SAPS   O13  413   0.043   3.316  10.678  0.2196 -0.3557 -0.3288
    4SAPS   O14  414   0.250   3.463  10.666  0.1852  0.0707 -0.0726
    4SAPS   O12  415   0.197   3.346  10.869 -0.7993  0.3139 -0.1129
    4SAPS   O11  416   0.278   3.215  10.668  0.0710  0.0958  0.3823
    4SAPS    C1  417   0.406   3.229  10.605  0.7156  0.2906  0.5904
    4SAPS    HA  418   0.462   3.318  10.642  0.5049  1.1542 -1.0562
    4SAPS    HB  419   0.483   3.153  10.631  0.4315  0.2239  1.2583
    4SAPS    C2  420   0.391   3.237  10.449  0.1151  0.0233  0.0181
    4SAPS    HS  421   0.356   3.341  10.429  1.3087  0.1307 -1.7895
    4SAPS   O21  422   0.284   3.145  10.401 -0.6063  0.0339 -0.3091
    4SAPS   C21  423   0.225   3.189  10.288 -0.0460 -0.0799 -0.1570
    4SAPS   O22  424   0.238   3.302  10.242  0.5218 -0.4756 -0.2788
    4SAPS   C22  425   0.143   3.082  10.219 -0.2949 -0.6394 -0.6399
    4SAPS   H2R  426   0.082   3.019  10.287 -0.5849 -1.7152 -1.8628
    4SAPS   H2S  427   0.069   3.126  10.148  0.0072 -1.0259 -1.2003
    4SAPS    C3  428   0.521   3.207  10.370  0.5433  0.1148 -0.0362
    4SAPS    HX  429   0.542   3.098  10.368  2.5303  0.4279  1.0086
    4SAPS    HY  430   0.606   3.247  10.430  0.5639  0.3932 -0.2511
    4SAPS   O31  431   0.524   3.264  10.238 -0.2750  0.1002 -0.3251
    4SAPS   C31  432   0.555   3.395  10.235  0.2060 -0.2332  0.2020
    4SAPS   O32  433   0.584   3.457  10.333 -0.8101  0.4149 -0.0480
    4SAPS   C32  434   0.579   3.455  10.098  0.1840 -0.1074  0.6620
    4SAPS   H2X  435   0.686   3.435  10.077  0.4273  0.1096  1.6365
    4SAPS   H2Y  436   0.557   3.562  10.118  0.0974 -0.0944  0.4960
    4SAPS   C23  437   0.225   2.991  10.128  0.5293  0.3093 -0.2633
    4SAPS   H3R  438   0.155   2.915  10.087 -0.3904 -0.2188  2.0745
    4SAPS   H3S  439   0.287   2.931  10.199 -1.4435  1.3583  2.5606
    4SAPS   C24  440   0.304   3.066  10.024  0.3994 -1.0643  1.0924
    4SAPS   H4R  441   0.359   2.996   9.957  0.5197 -1.3947  1.5372
    4SAPS   H4S  442   0.380   3.131  10.073 -0.5656  1.4411 -0.5181
    4SAPS   C25  443   0.211   3.157   9.943  0.1049 -0.0461  0.2335
    4SAPS   H5R  444   0.185   3.250   9.996 -0.5569 -0.3166  0.3843
    4SAPS   C26  445   0.156   3.132   9.818 -0.5665 -0.5500 -0.1309
    4SAPS   H6R  446   0.081   3.198   9.773  0.3885  0.1742 -0.6875
    4SAPS   C27  447   0.186   3.014   9.729  0.4376 -0.2857 -0.3256
    4SAPS   H7R  448   0.100   2.977   9.668  0.1046 -2.7529  1.5325
    4SAPS   H7S  449   0.209   2.925   9.791  4.0105  1.6782  1.4621
    4SAPS   C28  450   0.312   3.029   9.645  0.7121  0.5084 -0.6646
    4SAPS   H8R  451   0.401   3.069   9.695  0.9783  0.8448 -1.3902
    4SAPS   C29  452   0.319   2.992   9.519  0.1416  0.1449 -0.1250
    4SAPS   H9R  453   0.402   3.027   9.456 -1.6412  2.5070 -1.3575
    4SAPS  C210  454   0.197   2.938   9.448 -0.1431  0.0495  0.1272
    4SAPS  H10R  455   0.118   3.016   9.439 -2.1279 -2.1006 -3.4975
    4SAPS  H10S  456   0.138   2.852   9.487 -1.9759  0.2467 -1.9671
    4SAPS  C211  457   0.244   2.910   9.305 -0.0229  0.6980 -0.2758
    4SAPS  H11R  458   0.337   2.852   9.300  1.1261  2.0998  2.6209
    4SAPS  C212  459   0.185   2.941   9.192  0.0832  0.2075 -0.1876
    4SAPS  H12R  460   0.241   2.932   9.098  0.8992 -1.0377  0.3802
    4SAPS  C213  461   0.056   3.025   9.181  0.2391 -0.2720 -1.1076
    4SAPS  H13R  462   0.097   3.127   9.197 -0.8376  0.0009  0.0798
    4SAPS  H13S  463  -0.011   2.999   9.266  0.2138 -1.9848 -1.6127
    4SAPS  C214  464  -0.004   3.002   9.052  1.1910  0.3996  0.5678
    4SAPS  H14R  465  -0.033   2.898   9.030 -0.2358  1.2971 -2.4202
    4SAPS  C215  466  -0.020   3.103   8.963  0.3386  0.7591  0.8743
    4SAPS  H15R  467  -0.082   3.082   8.874  3.1477  0.1194 -1.0527
    4SAPS  C216  468   0.032   3.244   8.982 -0.2616 -0.3256  0.1413
    4SAPS  H16R  469  -0.016   3.284   9.074 -3.1999 -2.2822 -0.3985
    4SAPS  H16S  470  -0.009   3.317   8.908  1.2808  0.0173 -0.4134
    4SAPS  C217  471   0.183   3.278   8.979 -0.1189 -0.1755 -0.2608
    4SAPS  H17R  472   0.239   3.207   9.043 -2.3054 -1.5443  0.2441
    4SAPS  H17S  473   0.203   3.380   9.016  0.6371  0.0991 -1.3674
    4SAPS  C218  474   0.256   3.274   8.841 -0.0024 -0.2482 -0.2976
    4SAPS  H18R  475   0.221   3.186   8.782  0.0436  0.1292 -0.8912
    4SAPS  H18S  476   0.363   3.250   8.861 -0.6023 -2.3592  0.6820
    4SAPS  C219  477   0.238   3.410   8.770 -0.3912  0.1326 -0.2019
    4SAPS  H19R  478   0.289   3.500   8.811  2.5800 -0.7557 -1.6613
    4SAPS  H19S  479   0.130   3.435   8.756 -0.9009 -1.8184  0.0491
    4SAPS  C220  480   0.291   3.408   8.627  0.3228 -0.0233 -0.2316
    4SAPS  H20R  481   0.232   3.335   8.567 -2.3907  1.2171  0.7358
    4SAPS  H20S  482   0.395   3.371   8.634 -0.5467 -2.4586  1.0362
    4SAPS  H20T  483   0.280   3.506   8.576  0.5796 -0.2097 -0.6510
    4SAPS   C33  484   0.492   3.410   9.989 -0.1663 -0.6691 -0.0731
    4SAPS   H3X  485   0.391   3.408  10.034 -1.3783 -0.0958 -2.5959
    4SAPS   H3Y  486   0.521   3.306   9.966  1.5232 -0.6522  1.7015
    4SAPS   C34  487   0.511   3.496   9.861 -0.4094  0.3827  0.2071
    4SAPS   H4X  488   0.617   3.484   9.830  0.3698  1.0443  2.3778
    4SAPS   H4Y  489   0.514   3.607   9.869  0.9286  0.4678 -1.1111
    4SAPS   C35  490   0.401   3.477   9.752 -0.1528 -0.6045  0.4237
    4SAPS   H5X  491   0.304   3.513   9.792  0.0393  1.1706 -0.6169
    4SAPS   H5Y  492   0.382   3.369   9.734  0.6365 -0.2708 -3.2293
    4SAPS   C36  493   0.419   3.540   9.615 -0.2324  0.5371  0.0247
    4SAPS   H6X  494   0.511   3.492   9.576 -0.2025 -0.0075  0.7417
    4SAPS   H6Y  495   0.436   3.649   9.632 -0.1639  0.5108  0.1292
    4SAPS   C37  496   0.304   3.525   9.517  0.8533 -0.1028 -0.3084
    4SAPS   H7X  497   0.210   3.562   9.564 -0.5154 -3.8994  0.2498
    4SAPS   H7Y  498   0.282   3.418   9.499  1.2331 -0.2570  0.1415
    4SAPS   C38  499   0.326   3.605   9.388  0.0631  0.6912  0.1447
    4SAPS   H8X  500   0.398   3.558   9.318 -0.2459 -1.6778  1.3249
    4SAPS   H8Y  501   0.368   3.706   9.409  3.5603 -0.5708 -0.2508
    4SAPS   C39  502   0.192   3.623   9.311 -0.3811  0.2134 -0.8508
    4SAPS   H9X  503   0.151   3.715   9.357 -1.6764 -1.8052  2.3641
    4SAPS   H9Y  504   0.117   3.545   9.334 -0.7601 -0.0017 -2.6573
    4SAPS  C310  505   0.210   3.634   9.163 -0.5275  0.0459  0.2339
    4SAPS  H10X  506   0.115   3.667   9.115 -0.4479  3.3445  2.0311
    4SAPS  H10Y  507   0.242   3.534   9.127  0.6658  0.4230  0.1865
    4SAPS  C311  508   0.310   3.748   9.120 -0.1388 -0.2807 -0.0161
    4SAPS  H11X  509   0.411   3.731   9.162  1.0973  0.5375 -2.4771
    4SAPS  H11Y  510   0.287   3.840   9.178  2.6614 -0.1853  1.1182
    4SAPS  C312  511   0.316   3.795   8.973  0.8356 -0.0524 -0.2448
    4SAPS  H12X  512   0.210   3.792   8.942  0.3306 -1.9320  1.4597
    4SAPS  H12Y  513   0.386   3.725   8.921  1.3309 -0.4021  0.8701
    4SAPS  C313  514   0.363   3.935   8.944  0.1501 -0.3936 -0.2580
    4SAPS  H13X  515   0.309   4.011   9.003  1.0466 -0.7486  1.0634
    4SAPS  H13Y  516   0.346   3.954   8.836 -0.4501  0.1611 -0.0695
    4SAPS  C314  517   0.516   3.947   8.976  0.5596 -0.2752  0.3558
    4SAPS  H14X  518   0.564   3.853   8.939 -0.0635 -0.5770  0.3094
    4SAPS  H14Y  519   0.515   3.949   9.087  0.5417 -0.5451  0.3616
    4SAPS  C315  520   0.585   4.062   8.915  0.8063  0.3608 -0.1016
    4SAPS  H15X  521   0.545   4.151   8.968  2.1171  0.0498  1.4963
    4SAPS  H15Y  522   0.560   4.070   8.807  0.5584  1.1302  0.0052
    4SAPS  C316  523   0.743   4.047   8.935 -0.2215  0.1613  0.5154
    4SAPS  H16X  524   0.771   4.143   8.887  0.9322 -1.0292 -1.2987
    4SAPS  H16Y  525   0.770   3.962   8.869  0.4518  1.1824 -0.5558
    4SAPS  C317  526   0.800   4.044   9.083 -0.0465 -0.0690 -0.9335
    4SAPS  H17X  527   0.768   3.949   9.131 -1.6442  0.8475 -0.0722
    4SAPS  H17Y  528   0.752   4.123   9.145  0.6005 -1.0008  0.8390
    4SAPS  C318  529   0.953   4.047   9.103 -0.0061 -0.0266  0.1637
    4SAPS  H18X  530   0.977   4.142   9.052 -0.9853 -0.2663 -0.8109
    4SAPS  H18Y  531   0.992   3.957   9.050 -0.0018  0.7736 -1.2431
    4SAPS  H18Z  532   0.992   4.045   9.206 -0.0583  1.9060  0.2440
    5SAPS     N  533   4.085   2.851  11.045 -0.5026 -0.3127  0.8741
    5SAPS   HN1  534   3.987   2.882  11.058 -0.6571 -0.8104  0.9105
    5SAPS   HN2  535   4.076   2.750  11.024 -1.4802  0.2066 -1.4751
    5SAPS   HN3  536   4.151   2.880  11.120  0.5102 -3.1195  1.1724
    5SAPS   C12  537   4.152   2.920  10.926 -0.1174  0.1258  0.4507
    5SAPS  H12A  538   4.082   2.904  10.845 -1.3292  0.2157  1.4501
    5SAPS   C13  539   4.187   3.065  10.956  0.6429 -0.2442  0.3777
    5SAPS  O13A  540   4.156   3.111  11.066 -0.5687 -0.4503  0.1804
    5SAPS  O13B  541   4.231   3.134  10.862  0.1099  0.5167  0.3400
    5SAPS   C11  542   4.281   2.846  10.883 -0.4059  0.7166  0.4418
    5SAPS  H11A  543   4.363   2.861  10.958 -0.1555  0.5695  0.2010
    5SAPS  H11B  544   4.316   2.895  10.790 -0.2328  0.4936  0.3881
    5SAPS     P  545   4.343   2.611  10.789  0.1765  0.2914 -0.0356
    5SAPS   O13  546   4.491   2.628  10.803  0.4265  0.0351 -0.2654
    5SAPS   O14  547   4.300   2.473  10.824  0.2165  0.9959 -0.2691
    5SAPS   O12  548   4.267   2.708  10.878 -0.7983 -0.3159 -0.8112
    5SAPS   O11  549   4.286   2.646  10.643 -0.3317 -0.1518  0.2819
    5SAPS    C1  550   4.162   2.592  10.589 -0.1916 -0.6963 -0.1775
    5SAPS    HA  551   4.163   2.481  10.590  0.0034 -0.6952  0.1936
    5SAPS    HB  552   4.077   2.639  10.643  2.0838  1.2823  1.9208
    5SAPS    C2  553   4.139   2.640  10.442  0.0607 -0.0997  0.3888
    5SAPS    HS  554   4.056   2.583  10.395  1.7219 -2.1626 -0.2150
    5SAPS   O21  555   4.259   2.606  10.374  0.1835  0.5850 -0.5241
    5SAPS   C21  556   4.287   2.481  10.349 -0.0914  0.5989  0.7153
    5SAPS   O22  557   4.204   2.390  10.360 -0.4855  0.1109  0.8661
    5SAPS   C22  558   4.426   2.469  10.312 -0.4996 -0.6862 -0.7115
    5SAPS   H2R  559   4.491   2.501  10.397  0.9848 -1.1967 -1.6115
    5SAPS   H2S  560   4.456   2.364  10.293  0.3311 -0.3957 -1.0764
    5SAPS    C3  561   4.109   2.794  10.449 -0.5754 -0.8068 -0.1004
    5SAPS    HX  562   4.191   2.848  10.501  0.6748 -1.2413 -1.5615
    5SAPS    HY  563   4.014   2.812  10.503 -1.9262 -1.0546 -2.2728
    5SAPS   O31  564   4.081   2.854  10.316  0.0246 -0.1373 -0.5456
    5SAPS   C31  565   4.187   2.858  10.233 -0.5060  0.1776 -0.1965
    5SAPS   O32  566   4.307   2.875  10.262  0.8232 -0.1427  0.2095
    5SAPS   C32  567   4.134   2.829  10.094 -0.2950  0.2578  0.1340
    5SAPS   H2X  568   4.063   2.902  10.052  1.3599  2.0866  0.3891
    5SAPS   H2Y  569   4.093   2.726  10.079 -2.3143  1.3912 -3.3030
    5SAPS   C23  570   4.473   2.560  10.196  0.9773 -0.5762 -0.2406
    5SAPS   H3R  571   4.482   2.659  10.245 -0.5351 -1.2319  1.4940
    5SAPS   H3S  572   4.397   2.554  10.115 -0.3309 -1.1824  0.9826
    5SAPS   C24  573   4.609   2.523  10.147 -0.3855  0.2935 -0.1973
    5SAPS   H4R  574   4.670   2.485  10.232 -0.0336 -2.1550 -1.4579
    5SAPS   H4S  575   4.662   2.614  10.111  1.0811 -0.1604  0.7324
    5SAPS   C25  576   4.579   2.420  10.039 -0.8582  0.2515  0.3398
    5SAPS   H5R  577   4.534   2.327  10.077 -0.0901  0.1622  1.0677
    5SAPS   C26  578   4.566   2.450   9.910 -0.6229 -0.0957  0.1656
    5SAPS   H6R  579   4.548   2.368   9.839  1.9952  0.7122 -1.5942
    5SAPS   C27  580   4.611   2.568   9.824  0.7525  0.2072  0.1569
    5SAPS   H7R  581   4.603   2.664   9.879  1.4994  0.5198 -0.2584
    5SAPS   H7S  582   4.549   2.569   9.732  0.8918 -1.1761  0.0301
    5SAPS   C28  583   4.754   2.547   9.780 -0.4991 -1.0324  0.1738
    5SAPS   H8R  584   4.834   2.556   9.856 -1.3058  1.0590  0.8598
    5SAPS   C29  585   4.792   2.543   9.650  0.2999  0.6604 -0.8869
    5SAPS   H9R  586   4.901   2.546   9.639  0.1358  2.1090 -2.6754
    5SAPS  C210  587   4.691   2.546   9.537 -0.4971  0.4187  0.1870
    5SAPS  H10R  588   4.603   2.481   9.550 -0.0038 -0.0589  1.1748
    5SAPS  H10S  589   4.740   2.504   9.446  0.9325 -1.3117  1.6952
    5SAPS  C211  590   4.642   2.693   9.504  0.0115 -0.0132 -0.3529
    5SAPS  H11R  591   4.679   2.775   9.567 -0.4116  1.5926 -2.1108
    5SAPS  C212  592   4.553   2.719   9.407  0.3323 -0.2290  1.0318
    5SAPS  H12R  593   4.520   2.824   9.402  1.7197  0.3448  3.0440
    5SAPS  C213  594   4.482   2.623   9.307  0.4464  0.4367 -0.1600
    5SAPS  H13R  595   4.551   2.550   9.259 -1.1488 -1.2879  0.0639
    5SAPS  H13S  596   4.440   2.683   9.223 -0.0541 -0.3939 -0.5162
    5SAPS  C214  597   4.359   2.554   9.362  0.0104  0.0758 -0.0410
    5SAPS  H14R  598   4.338   2.599   9.460  2.5815 -0.3017  0.7759
    5SAPS  C215  599   4.312   2.427   9.336  0.0724 -0.4043  0.5205
    5SAPS  H15R  600   4.238   2.383   9.404  1.1821  0.1134  2.1121
    5SAPS  C216  601   4.359   2.338   9.221  0.6447 -0.2025  0.1028
    5SAPS  H16R  602   4.432   2.262   9.255 -0.8283 -1.5677  0.3419
    5SAPS  H16S  603   4.414   2.393   9.141 -1.7184 -0.0142 -1.4840
    5SAPS  C217  604   4.245   2.270   9.142  0.5160  0.0636 -0.2360
    5SAPS  H17R  605   4.181   2.351   9.101  2.5153  2.1909  0.5794
    5SAPS  H17S  606   4.179   2.213   9.211 -0.3398 -0.0432 -1.1341
    5SAPS  C218  607   4.302   2.172   9.034 -0.1152 -0.6166 -0.3222
    5SAPS  H18R  608   4.361   2.230   8.960  0.9342  0.5301  1.3478
    5SAPS  H18S  609   4.357   2.100   9.098 -0.4051 -0.8833 -0.3719
    5SAPS  C219  610   4.199   2.094   8.955  0.9958  0.4188 -0.1894
    5SAPS  H19R  611   4.150   2.170   8.890  2.0535 -0.3755 -1.9933
    5SAPS  H19S  612   4.123   2.045   9.019  1.4139 -0.7072 -0.5249
    5SAPS  C220  613   4.258   1.988   8.859 -0.0425 -0.3585  0.8526
    5SAPS  H20R  614   4.299   2.034   8.767  1.0065 -0.2279  1.3756
    5SAPS  H20S  615   4.188   1.914   8.816  1.8944  0.0125 -3.3734
    5SAPS  H20T  616   4.346   1.934   8.900 -0.1446 -0.6160  0.7366
    5SAPS   C33  617   4.257   2.846   9.993 -0.0553 -0.5673  0.8313
    5SAPS   H3X  618   4.331   2.764  10.000  1.5923  0.0776 -4.5721
    5SAPS   H3Y  619   4.291   2.951  10.003 -2.4023  0.2696  0.7601
    5SAPS   C34  620   4.204   2.836   9.845 -0.6090  0.5479  0.1011
    5SAPS   H4X  621   4.102   2.878   9.831 -0.3233  1.1874 -0.1013
    5SAPS   H4Y  622   4.190   2.728   9.825 -0.1003  0.4381  0.3205
    5SAPS   C35  623   4.303   2.910   9.747  0.3531  0.2814 -0.2716
    5SAPS   H5X  624   4.403   2.862   9.757  0.8706  1.6075  1.6525
    5SAPS   H5Y  625   4.302   3.019   9.771 -2.3714  0.6393 -1.5796
    5SAPS   C36  626   4.256   2.887   9.601 -0.6411  0.3699 -0.2810
    5SAPS   H6X  627   4.145   2.895   9.593 -0.4721  1.1355 -2.8168
    5SAPS   H6Y  628   4.290   2.786   9.570  1.0795  0.7142  0.3779
    5SAPS   C37  629   4.288   3.007   9.506 -0.1706 -0.3124  0.2742
    5SAPS   H7X  630   4.394   3.000   9.473 -0.8596  0.0970 -2.2255
    5SAPS   H7Y  631   4.271   3.111   9.542  1.9365  0.2018 -0.0618
    5SAPS   C38  632   4.197   2.990   9.381 -0.1485 -0.3918 -0.2657
    5SAPS   H8X  633   4.091   2.977   9.413 -0.3097 -0.3211 -0.7610
    5SAPS   H8Y  634   4.233   2.894   9.339 -1.4625 -1.2923  0.5642
    5SAPS   C39  635   4.214   3.102   9.284  0.0292 -0.2446 -0.2868
    5SAPS   H9X  636   4.217   3.197   9.342 -3.2639 -0.9895  1.4155
    5SAPS   H9Y  637   4.120   3.109   9.224  0.0427  0.3531 -0.2426
    5SAPS  C310  638   4.325   3.076   9.179 -0.8186 -0.3503  0.5016
    5SAPS  H10X  639   4.296   3.003   9.101  1.8808  1.3194 -2.2955
    5SAPS  H10Y  640   4.423   3.056   9.227 -1.5207 -0.5935  1.8595
    5SAPS  C311  641   4.348   3.201   9.096 -0.1845 -0.0066  0.0594
    5SAPS  H11X  642   4.377   3.279   9.169  1.9738  1.1138 -1.8481
    5SAPS  H11Y  643   4.250   3.232   9.055  0.4672 -1.7110 -3.1661
    5SAPS  C312  644   4.449   3.188   8.984 -0.6790 -0.1189 -1.3637
    5SAPS  H12X  645   4.419   3.108   8.914 -0.9292 -2.6949  1.4674
    5SAPS  H12Y  646   4.550   3.170   9.029 -1.1280  1.1611  0.2679
    5SAPS  C313  647   4.461   3.319   8.909  0.1282 -0.1709 -0.7002
    5SAPS  H13X  648   4.550   3.310   8.843  1.4192 -3.3424  1.2336
    5SAPS  H13Y  649   4.486   3.409   8.968 -1.0833  0.6799 -1.4275
    5SAPS  C314  650   4.321   3.343   8.843  0.8018 -0.1346 -0.3141
    5SAPS  H14X  651   4.243   3.370   8.918  1.1161 -0.5177  0.1576
    5SAPS  H14Y  652   4.280   3.245   8.810  0.3107  0.4761 -1.5670
    5SAPS  C315  653   4.327   3.425   8.712  0.0872  0.1306 -0.4659
    5SAPS  H15X  654   4.222   3.441   8.680 -0.0762 -1.1328 -0.6155
    5SAPS  H15Y  655   4.373   3.368   8.629 -1.2843 -2.2520  0.2909
    5SAPS  C316  656   4.400   3.555   8.733 -0.6925 -0.0906 -0.1473
    5SAPS  H16X  657   4.511   3.553   8.738 -0.6235  1.5890 -0.6228
    5SAPS  H16Y  658   4.363   3.578   8.835  0.7691 -0.5846  0.5195
    5SAPS  C317  659   4.350   3.662   8.639  0.2989  0.0100 -0.6492
    5SAPS  H17X  660   4.243   3.680   8.664 -0.4297 -3.0408 -1.1084
    5SAPS  H17Y  661   4.361   3.618   8.537  2.5640 -0.5083 -0.2393
    5SAPS  C318  662   4.426   3.789   8.642 -0.2209 -0.5779 -0.4123
    5SAPS  H18X  663   4.385   3.861   8.567 -1.3236 -0.0670  0.6500
    5SAPS  H18Y  664   4.536   3.781   8.631  0.1553  0.6432  1.9624
    5SAPS  H18Z  665   4.412   3.837   8.741  1.2509  2.8286 -1.6937
    6SAPS     N  666   3.372   2.479  11.238 -0.1748  0.0971  0.1688
    6SAPS   HN1  667   3.407   2.542  11.313 -3.4793  0.4157  1.6490
    6SAPS   HN2  668   3.284   2.431  11.265  1.0078 -3.3105 -1.4608
    6SAPS   HN3  669   3.441   2.405  11.217 -0.7413 -0.6287  0.7921
    6SAPS   C12  670   3.347   2.554  11.111  0.3053  0.2957 -0.3230
    6SAPS  H12A  671   3.312   2.481  11.040  1.4291 -1.3640  0.7458
    6SAPS   C13  672   3.273   2.693  11.125  0.3250  0.9494 -0.1481
    6SAPS  O13A  673   3.224   2.726  11.238  0.2131  0.2466  0.4033
    6SAPS  O13B  674   3.269   2.761  11.019 -0.5633 -0.5582  0.7413
    6SAPS   C11  675   3.493   2.569  11.040  0.5848  0.2460 -0.1767
    6SAPS  H11A  676   3.561   2.624  11.109 -1.4754  0.8119  1.5089
    6SAPS  H11B  677   3.488   2.645  10.959  0.5597  0.0775 -0.3327
    6SAPS     P  678   3.541   2.399  10.855 -0.0641  0.0689 -0.8035
    6SAPS   O13  679   3.600   2.265  10.840  1.1659  0.0395 -0.5909
    6SAPS   O14  680   3.402   2.417  10.805  0.3987 -0.3450  0.1225
    6SAPS   O12  681   3.557   2.446  11.004 -0.1846  0.0513  0.3241
    6SAPS   O11  682   3.632   2.505  10.780  0.1006  0.1069 -0.3640
    6SAPS    C1  683   3.588   2.538  10.648 -0.3149  0.0914 -0.1489
    6SAPS    HA  684   3.480   2.563  10.646 -0.5480 -0.2816 -5.1993
    6SAPS    HB  685   3.642   2.632  10.621 -0.6288  0.2127 -0.3550
    6SAPS    C2  686   3.619   2.432  10.543 -0.4708  0.3284 -0.2086
    6SAPS    HS  687   3.634   2.482  10.444 -1.1937 -0.4030 -0.7053
    6SAPS   O21  688   3.522   2.322  10.535 -0.2651 -0.1777  0.6086
    6SAPS   C21  689   3.411   2.358  10.466 -1.0728 -0.1654  0.3136
    6SAPS   O22  690   3.397   2.464  10.412 -0.4306 -0.5295  0.3039
    6SAPS   C22  691   3.327   2.237  10.460 -0.0876  0.1951  0.2665
    6SAPS   H2R  692   3.376   2.183  10.377 -2.1200 -0.8969 -0.3023
    6SAPS   H2S  693   3.331   2.180  10.556  0.8742  1.8295  1.2329
    6SAPS    C3  694   3.765   2.378  10.565 -0.9151 -0.2606  0.1473
    6SAPS    HX  695   3.770   2.301  10.645 -1.1290 -1.2105 -0.7394
    6SAPS    HY  696   3.828   2.462  10.603 -0.5795  0.5323 -2.0438
    6SAPS   O31  697   3.822   2.329  10.437  0.2343 -0.4423 -0.0409
    6SAPS   C31  698   3.830   2.194  10.422  0.1984  0.7390  0.5155
    6SAPS   O32  699   3.782   2.115  10.503  0.0573 -0.0818  0.8045
    6SAPS   C32  700   3.885   2.156  10.284  0.4261  0.5317 -0.6533
    6SAPS   H2X  701   3.969   2.084  10.294 -1.0066 -1.1520 -0.3509
    6SAPS   H2Y  702   3.927   2.241  10.226  1.5228 -0.0018 -0.6790
    6SAPS   C23  703   3.182   2.275  10.413 -0.1269  0.1066  0.0601
    6SAPS   H3R  704   3.180   2.352  10.333 -1.1006  2.3344  2.1449
    6SAPS   H3S  705   3.128   2.325  10.495  0.5105 -0.4400  0.8325
    6SAPS   C24  706   3.100   2.153  10.361  0.1786  0.3263 -0.1201
    6SAPS   H4R  707   3.090   2.077  10.442 -0.0613 -0.6817 -1.0612
    6SAPS   H4S  708   3.155   2.109  10.275 -2.5224 -1.3841 -1.0972
    6SAPS   C25  709   2.961   2.191  10.309 -0.2638  0.3651  0.2331
    6SAPS   H5R  710   2.891   2.205  10.393 -0.6322  0.7090 -0.1246
    6SAPS   C26  711   2.918   2.206  10.181 -0.1480 -0.1396  0.4163
    6SAPS   H6R  712   2.813   2.240  10.173 -0.4712 -1.2334 -0.1162
    6SAPS   C27  713   2.991   2.202  10.043 -0.0427  0.0295  0.4355
    6SAPS   H7R  714   3.099   2.193  10.070  0.5509 -0.4995 -1.8652
    6SAPS   H7S  715   2.995   2.304   9.999  2.2038  1.1922  3.0257
    6SAPS   C28  716   2.942   2.091   9.952 -0.0087 -0.3744  0.3658
    6SAPS   H8R  717   2.901   2.004  10.004 -1.1659  1.3629  2.5379
    6SAPS   C29  718   2.936   2.095   9.816  0.1593  0.1241  0.0130
    6SAPS   H9R  719   2.900   2.003   9.768  0.9089  0.6775 -1.6886
    6SAPS  C210  720   2.979   2.205   9.708  0.5001  0.2015 -1.2251
    6SAPS  H10R  721   3.086   2.233   9.719  0.5297 -0.8453  2.7377
    6SAPS  H10S  722   2.915   2.294   9.728 -3.4615 -2.6669  0.4572
    6SAPS  C211  723   2.933   2.154   9.572  0.4976  0.6035 -0.3060
    6SAPS  H11R  724   2.827   2.125   9.564  1.1126 -2.0629  0.3853
    6SAPS  C212  725   3.007   2.131   9.468 -0.2868  0.1366  0.8083
    6SAPS  H12R  726   2.957   2.101   9.374 -1.7434 -2.3370  2.2615
    6SAPS  C213  727   3.161   2.150   9.460  0.1491 -0.2638  0.0555
    6SAPS  H13R  728   3.207   2.106   9.551 -2.9916 -0.9882  1.4343
    6SAPS  H13S  729   3.182   2.259   9.460 -0.2193 -0.1103 -2.9340
    6SAPS  C214  730   3.227   2.076   9.353  0.0859  0.3767 -0.5450
    6SAPS  H14R  731   3.213   1.967   9.358  0.2685  0.3062 -1.4343
    6SAPS  C215  732   3.275   2.120   9.241 -0.3086 -0.2765 -0.6933
    6SAPS  H15R  733   3.318   2.045   9.174  0.6230  0.9831 -1.5491
    6SAPS  C216  734   3.290   2.256   9.191 -0.5526 -0.5429  0.0676
    6SAPS  H16R  735   3.401   2.262   9.185 -0.6095  0.7945 -0.0946
    6SAPS  H16S  736   3.261   2.334   9.265 -0.2011  0.4499 -0.7985
    6SAPS  C217  737   3.224   2.287   9.051  0.1410  0.0164 -0.5892
    6SAPS  H17R  738   3.289   2.367   9.010  3.4599 -1.6808  0.9286
    6SAPS  H17S  739   3.117   2.305   9.076  0.1238 -1.9394  0.9700
    6SAPS  C218  740   3.224   2.168   8.949 -0.0082 -0.3520 -0.3933
    6SAPS  H18R  741   3.159   2.086   8.985 -0.4850  1.0336  2.1373
    6SAPS  H18S  742   3.329   2.130   8.948 -0.2044 -0.8899 -1.1654
    6SAPS  C219  743   3.190   2.207   8.806  0.0172 -0.4497  1.2810
    6SAPS  H19R  744   3.231   2.306   8.777 -2.4152  0.6902  1.5504
    6SAPS  H19S  745   3.079   2.212   8.807 -0.4742 -0.8577 -5.7916
    6SAPS  C220  746   3.233   2.106   8.703  0.3876 -0.0422  0.1351
    6SAPS  H20R  747   3.186   2.009   8.732  0.5705 -0.1842 -0.0362
    6SAPS  H20S  748   3.343   2.091   8.696  0.5835  1.5049 -0.3846
    6SAPS  H20T  749   3.197   2.127   8.600  0.0529  1.6557  0.5693
    6SAPS   C33  750   3.769   2.098  10.205  0.4008  0.5175  0.0166
    6SAPS   H3X  751   3.705   2.180  10.166  1.0369 -0.0035 -2.2625
    6SAPS   H3Y  752   3.695   2.028  10.250  0.1396  0.4194 -0.5532
    6SAPS   C34  753   3.814   2.028  10.077 -1.0380  0.6075  0.3940
    6SAPS   H4X  754   3.889   1.951  10.103  1.4343  2.7252 -0.1236
    6SAPS   H4Y  755   3.872   2.102  10.019  0.2728 -1.1293 -0.6207
    6SAPS   C35  756   3.703   1.973   9.995 -0.1233  0.5428 -1.0439
    6SAPS   H5X  757   3.631   2.055   9.976  1.2384  1.3633 -3.0021
    6SAPS   H5Y  758   3.655   1.876  10.023  2.3851 -0.2590  0.8880
    6SAPS   C36  759   3.759   1.933   9.854  0.5532 -0.3296  0.6664
    6SAPS   H6X  760   3.833   1.851   9.855  1.4968  0.3918  4.5704
    6SAPS   H6Y  761   3.807   2.029   9.826 -1.6600  0.3176 -1.3065
    6SAPS   C37  762   3.653   1.900   9.756 -0.5662  0.4730 -0.4913
    6SAPS   H7X  763   3.573   1.975   9.779  0.0495  1.1785 -0.5959
    6SAPS   H7Y  764   3.608   1.800   9.774  1.1911 -0.2706  0.0170
    6SAPS   C38  765   3.692   1.918   9.606 -0.6517  0.2189  0.0597
    6SAPS   H8X  766   3.603   1.927   9.541 -1.1989  2.3734  1.0365
    6SAPS   H8Y  767   3.754   1.827   9.587 -1.7774 -0.2961 -1.2931
    6SAPS   C39  768   3.775   2.046   9.576  0.5993  0.9121 -0.2668
    6SAPS   H9X  769   3.874   2.051   9.625  0.8054 -1.7935 -0.2292
    6SAPS   H9Y  770   3.711   2.131   9.607  1.4059  1.5765 -0.3897
    6SAPS  C310  771   3.789   2.068   9.430 -0.3750 -0.4031  0.5897
    6SAPS  H10X  772   3.690   2.074   9.382  0.5194 -0.5339 -1.3610
    6SAPS  H10Y  773   3.833   1.988   9.366 -1.5177  0.6154 -1.5699
    6SAPS  C311  774   3.844   2.209   9.400 -0.8402  0.5271 -0.7204
    6SAPS  H11X  775   3.932   2.218   9.466 -0.7749 -0.2481 -0.6910
    6SAPS  H11Y  776   3.764   2.283   9.423 -0.6217  0.5301  0.0670
    6SAPS  C312  777   3.889   2.224   9.256 -0.1885  0.1310  0.5373
    6SAPS  H12X  778   3.963   2.143   9.242 -0.2376 -0.1627  1.7929
    6SAPS  H12Y  779   3.950   2.315   9.239 -0.0043  0.0027  0.5067
    6SAPS  C313  780   3.760   2.229   9.166 -0.6112  0.1824  0.3932
    6SAPS  H13X  781   3.707   2.326   9.181 -0.6380  0.0338  1.3026
    6SAPS  H13Y  782   3.684   2.154   9.196 -1.4544  1.1363  0.6988
    6SAPS  C314  783   3.797   2.202   9.015  0.1404  0.2082  0.2200
    6SAPS  H14X  784   3.870   2.118   9.008  0.5128  0.6567 -1.9273
    6SAPS  H14Y  785   3.844   2.300   8.988 -0.8861  0.5771 -0.2890
    6SAPS  C315  786   3.669   2.181   8.927 -0.1950  0.6061 -0.2666
    6SAPS  H15X  787   3.626   2.283   8.937 -1.2420 -0.0144  2.1165
    6SAPS  H15Y  788   3.608   2.107   8.983  0.6279  0.0395 -0.1167
    6SAPS  C316  789   3.685   2.144   8.775  0.4887 -0.4865 -0.9844
    6SAPS  H16X  790   3.587   2.119   8.728  0.7613  0.1508 -1.9145
    6SAPS  H16Y  791   3.745   2.051   8.778  2.0098  0.4480 -1.7127
    6SAPS  C317  792   3.766   2.240   8.694  0.2659  0.6431 -0.0519
    6SAPS  H17X  793   3.857   2.266   8.751 -0.7983 -0.0457  2.0874
    6SAPS  H17Y  794   3.698   2.328   8.691  1.2247  1.3706 -1.1786
    6SAPS  C318  795   3.802   2.187   8.554 -0.0656 -0.2620  0.1112
    6SAPS  H18X  796   3.885   2.245   8.508  0.4614 -1.5319 -0.5849
    6SAPS  H18Y  797   3.718   2.197   8.481  0.8378  0.1228 -0.9022
    6SAPS  H18Z  798   3.835   2.082   8.565 -2.3532 -1.0465 -0.0537
    7SAPS     N  799   0.289   2.945  10.657 -0.1217  0.1604 -0.6151
    7SAPS   HN1  800   0.252   2.919  10.563 -2.3910 -1.9257  0.7127
    7SAPS   HN2  801   0.296   3.048  10.666  0.8018  0.2107 -1.7118
    7SAPS   HN3  802   0.378   2.895  10.680 -2.0890 -2.3905  2.3355
    7SAPS   C12  803   0.200   2.884  10.764 -0.6252  0.1977 -0.1035
    7SAPS  H12A  804   0.200   2.777  10.749 -2.0853  0.0020  1.0985
    7SAPS   C13  805   0.253   2.918  10.904 -0.2927  1.2826  0.2212
    7SAPS  O13A  806   0.358   2.989  10.917  0.0973 -0.0202  0.5414
    7SAPS  O13B  807   0.201   2.868  11.006 -0.1002 -0.6929  0.6766
    7SAPS   C11  808   0.052   2.936  10.749 -0.8690  0.2327 -0.0936
    7SAPS  H11A  809   0.051   3.045  10.765  0.8616  0.2852 -0.1407
    7SAPS  H11B  810  -0.014   2.897  10.829 -1.5094  1.3953 -0.0330
    7SAPS     P  811  -0.072   2.766  10.599  0.2687 -0.4745 -0.0608
    7SAPS   O13  812  -0.011   2.659  10.681  0.2542  0.2558  0.0644
    7SAPS   O14  813  -0.215   2.791  10.619 -0.1673  0.4588  0.0812
    7SAPS   O12  814   0.012   2.901  10.615  0.2591 -0.1787 -0.5126
    7SAPS   O11  815  -0.047   2.730  10.445 -0.5756 -0.4100  0.0907
    7SAPS    C1  816  -0.119   2.787  10.333 -0.0700  0.1941  1.0012
    7SAPS    HA  817  -0.134   2.896  10.351  1.5457  0.4771  0.7710
    7SAPS    HB  818  -0.050   2.790  10.246 -2.5456  1.6715 -1.0668
    7SAPS    C2  819  -0.241   2.709  10.290  0.5390  0.1472  0.1146
    7SAPS    HS  820  -0.322   2.715  10.366  0.0693  1.5081 -0.4581
    7SAPS   O21  821  -0.195   2.571  10.262  0.4106  0.2437 -0.0926
    7SAPS   C21  822  -0.297   2.492  10.253 -0.1630  0.3047 -0.0035
    7SAPS   O22  823  -0.416   2.520  10.273 -0.5472  0.5650  0.0056
    7SAPS   C22  824  -0.250   2.354  10.202  0.3549 -0.4861  0.1874
    7SAPS   H2R  825  -0.183   2.312  10.280  0.9691 -2.8719 -1.5283
    7SAPS   H2S  826  -0.343   2.297  10.183  0.7285 -1.1514  0.3347
    7SAPS    C3  827  -0.302   2.785  10.167  0.3770 -0.4782  0.4879
    7SAPS    HX  828  -0.337   2.879  10.213 -0.4404 -0.3443 -0.3919
    7SAPS    HY  829  -0.391   2.734  10.125  0.2798 -0.4685  0.6781
    7SAPS   O31  830  -0.202   2.815  10.062 -0.4768 -0.2771 -0.3829
    7SAPS   C31  831  -0.205   2.739   9.953  1.0951 -0.1290  0.4289
    7SAPS   O32  832  -0.286   2.653   9.930 -0.0919  0.1876  0.1151
    7SAPS   C32  833  -0.098   2.764   9.848  0.2898  0.0628 -0.0868
    7SAPS   H2X  834  -0.072   2.872   9.851 -2.6558  0.8398  0.1169
    7SAPS   H2Y  835  -0.146   2.738   9.752  0.1364  0.4653 -0.1183
    7SAPS   C23  836  -0.165   2.381  10.068  0.5265  0.5904  0.1564
    7SAPS   H3R  837  -0.077   2.443  10.096  1.8404 -1.6207  1.2231
    7SAPS   H3S  838  -0.229   2.428   9.990 -1.3634 -0.6462  0.8768
    7SAPS   C24  839  -0.112   2.250  10.006 -0.2439  0.9302  0.9634
    7SAPS   H4R  840  -0.045   2.197  10.077  2.3740 -0.9653 -2.5830
    7SAPS   H4S  841  -0.052   2.281   9.918 -0.9882 -2.4798 -0.9264
    7SAPS   C25  842  -0.224   2.148   9.965 -0.2784  0.0219 -0.0563
    7SAPS   H5R  843  -0.291   2.113  10.044  1.3851 -0.4233  1.2243
    7SAPS   C26  844  -0.243   2.104   9.835  0.2470 -0.7874 -0.0495
    7SAPS   H6R  845  -0.331   2.045   9.804 -0.9712  1.6826 -1.6382
    7SAPS   C27  846  -0.148   2.136   9.719 -0.5105 -0.2351  0.6432
    7SAPS   H7R  847  -0.105   2.036   9.695 -0.8259 -0.3921  0.7251
    7SAPS   H7S  848  -0.053   2.189   9.742  0.8674 -2.4822  0.4602
    7SAPS   C28  849  -0.216   2.203   9.602  0.0956 -0.6039  0.7996
    7SAPS   H8R  850  -0.277   2.290   9.631  1.9886  1.3640 -0.8123
    7SAPS   C29  851  -0.191   2.176   9.474 -0.0078 -0.5994 -0.8106
    7SAPS   H9R  852  -0.251   2.241   9.409  1.6413  3.2667  1.2199
    7SAPS  C210  853  -0.096   2.077   9.421  0.0723  0.1856 -0.5390
    7SAPS  H10R  854  -0.135   1.977   9.451  1.5486 -0.6222 -1.2412
    7SAPS  H10S  855  -0.001   2.082   9.478 -1.4379  1.2488  2.0653
    7SAPS  C211  856  -0.063   2.093   9.275 -1.1837  0.1056 -0.2951
    7SAPS  H11R  857   0.044   2.111   9.257 -1.0174 -1.7318 -1.4279
    7SAPS  C212  858  -0.149   2.087   9.172 -0.1338 -0.3907  0.3907
    7SAPS  H12R  859  -0.104   2.093   9.071  0.0899  0.3235  0.5227
    7SAPS  C213  860  -0.298   2.063   9.178  0.4066 -0.1800 -0.2883
    7SAPS  H13R  861  -0.315   2.037   9.285  0.4018  0.5416 -0.1110
    7SAPS  H13S  862  -0.317   1.985   9.102  0.4823  0.8521 -1.3885
    7SAPS  C214  863  -0.378   2.190   9.151 -0.0102 -0.1726  0.5010
    7SAPS  H14R  864  -0.314   2.278   9.131 -1.7631  1.0597  0.1159
    7SAPS  C215  865  -0.511   2.201   9.165  0.0684  0.6040 -0.0302
    7SAPS  H15R  866  -0.567   2.296   9.166 -0.3644  0.3601 -0.8656
    7SAPS  C216  867  -0.599   2.076   9.212  0.6319  0.1793 -0.3258
    7SAPS  H16R  868  -0.541   1.986   9.241 -0.1634 -0.8289 -1.7816
    7SAPS  H16S  869  -0.669   2.048   9.131 -0.4828 -0.6269  0.8990
    7SAPS  C217  870  -0.688   2.119   9.331 -0.0958  0.0593  0.6795
    7SAPS  H17R  871  -0.759   2.036   9.349  1.5068 -2.1126 -2.0758
    7SAPS  H17S  872  -0.758   2.203   9.315  0.2903  0.4256  0.8819
    7SAPS  C218  873  -0.618   2.141   9.469  0.5844 -0.6432  0.1355
    7SAPS  H18R  874  -0.697   2.181   9.538 -0.3636 -0.4227 -1.0371
    7SAPS  H18S  875  -0.545   2.224   9.457 -0.7661  0.5019 -0.5089
    7SAPS  C219  876  -0.553   2.017   9.527 -0.7265 -0.4129  0.3782
    7SAPS  H19R  877  -0.455   2.047   9.571 -1.0736  1.8037 -0.2725
    7SAPS  H19S  878  -0.522   1.944   9.448  3.7098  2.1349 -0.6046
    7SAPS  C220  879  -0.626   1.936   9.627 -0.3545 -0.0907  0.0597
    7SAPS  H20R  880  -0.733   1.945   9.597  0.1134 -2.4443 -2.7082
    7SAPS  H20S  881  -0.599   1.981   9.725  2.0600 -3.0256  0.8972
    7SAPS  H20T  882  -0.598   1.829   9.631 -0.0049 -0.0825 -1.5589
    7SAPS   C33  883   0.022   2.668   9.872  0.0057  0.0591  0.5142
    7SAPS   H3X  884   0.016   2.625   9.975  0.9549 -1.1097  0.0989
    7SAPS   H3Y  885   0.115   2.727   9.862 -0.6708  1.4647  2.0442
    7SAPS   C34  886   0.018   2.547   9.772  0.4438 -0.3528  0.3942
    7SAPS   H4X  887  -0.085   2.504   9.769  0.0446  0.0265  4.2543
    7SAPS   H4Y  888   0.095   2.472   9.800  0.8888  0.4246  1.3144
    7SAPS   C35  889   0.058   2.591   9.627  0.3405  0.1098 -0.4022
    7SAPS   H5X  890   0.160   2.633   9.633  0.2860  0.0279  1.6479
    7SAPS   H5Y  891  -0.011   2.676   9.608  2.1413  1.2718 -2.0538
    7SAPS   C36  892   0.052   2.463   9.529  0.2239  0.1548 -0.0938
    7SAPS   H6X  893  -0.055   2.437   9.514  0.2914  0.2337 -0.7130
    7SAPS   H6Y  894   0.100   2.374   9.574 -1.2497 -1.4095 -1.4744
    7SAPS   C37  895   0.108   2.502   9.390 -0.1299  0.4973 -0.0292
    7SAPS   H7X  896   0.207   2.551   9.394  0.8712 -0.8747 -4.0791
    7SAPS   H7Y  897   0.047   2.587   9.352 -1.0179  0.3633  1.0299
    7SAPS   C38  898   0.103   2.392   9.284 -0.2509  0.7322 -0.1558
    7SAPS   H8X  899   0.001   2.347   9.278  0.2600 -0.9358  2.0196
    7SAPS   H8Y  900   0.162   2.302   9.314 -0.0966  0.7421 -0.4302
    7SAPS   C39  901   0.153   2.454   9.159  0.0672 -0.6315  0.0481
    7SAPS   H9X  902   0.257   2.485   9.183 -0.7264  1.5909  0.9450
    7SAPS   H9Y  903   0.089   2.539   9.127  0.0589 -0.8845 -0.6309
    7SAPS  C310  904   0.146   2.362   9.035  0.0962  0.0708  0.0661
    7SAPS  H10X  905   0.170   2.257   9.062 -0.8884 -0.2532 -0.2632
    7SAPS  H10Y  906   0.212   2.389   8.949 -0.9743  0.9622 -0.5005
    7SAPS  C311  907   0.004   2.355   8.977  0.4176 -0.0131  0.0088
    7SAPS  H11X  908  -0.016   2.458   8.940  0.3886  0.5157  1.4236
    7SAPS  H11Y  909  -0.071   2.320   9.051 -0.8490 -0.6234 -1.5139
    7SAPS  C312  910  -0.008   2.257   8.861  0.5524  0.4051 -0.6169
    7SAPS  H12X  911   0.049   2.162   8.863 -0.6094 -0.4100 -2.6605
    7SAPS  H12Y  912   0.037   2.313   8.776 -0.2764 -0.0386 -1.3659
    7SAPS  C313  913  -0.156   2.233   8.822 -0.2218  0.2951 -0.2600
    7SAPS  H13X  914  -0.199   2.157   8.891  2.4525  0.0896  1.3034
    7SAPS  H13Y  915  -0.161   2.193   8.718 -1.0492  0.1626 -0.1791
    7SAPS  C314  916  -0.232   2.361   8.803 -0.0904 -0.3591 -0.0042
    7SAPS  H14X  917  -0.166   2.429   8.747 -1.4961  0.1327 -1.1047
    7SAPS  H14Y  918  -0.244   2.401   8.906 -1.2456 -2.8423  0.9212
    7SAPS  C315  919  -0.369   2.334   8.734  0.4243  0.4886  0.6338
    7SAPS  H15X  920  -0.431   2.255   8.781  1.4480 -0.3220  0.6676
    7SAPS  H15Y  921  -0.361   2.305   8.627 -0.0824  1.4511  0.3247
    7SAPS  C316  922  -0.444   2.461   8.740 -0.0348  0.4957  0.6872
    7SAPS  H16X  923  -0.388   2.542   8.689 -1.5265  1.3545  0.3393
    7SAPS  H16Y  924  -0.454   2.481   8.849 -1.0098 -0.8639  0.8673
    7SAPS  C317  925  -0.588   2.454   8.694  0.2664 -0.0255 -0.5148
    7SAPS  H17X  926  -0.655   2.389   8.755  0.8530 -0.3087 -0.1554
    7SAPS  H17Y  927  -0.603   2.425   8.588 -0.0912  0.3604 -0.5734
    7SAPS  C318  928  -0.652   2.595   8.699 -0.1482 -0.0665  0.8027
    7SAPS  H18X  929  -0.763   2.596   8.690  0.0422  0.1145 -2.5312
    7SAPS  H18Y  930  -0.609   2.672   8.631  1.7487 -0.6553  1.2839
    7SAPS  H18Z  931  -0.623   2.633   8.800 -0.1669  0.7347  0.5173
    8SAPS     N  932   3.348   2.969  11.301 -0.0146 -0.2808 -0.0491
    8SAPS   HN1  933   3.349   2.889  11.235  0.9157 -0.7440  0.5084
    8SAPS   HN2  934   3.370   2.934  11.396 -1.1953  1.9753  1.1215
    8SAPS   HN3  935   3.246   2.985  11.312 -0.1535 -0.7336 -0.6197
    8SAPS   C12  936   3.425   3.089  11.245 -0.0101  0.4245 -0.1077
    8SAPS  H12A  937   3.388   3.108  11.145  0.2802 -0.1568 -0.3276
    8SAPS   C13  938   3.396   3.219  11.333 -0.0983 -0.1124  0.1744
    8SAPS  O13A  939   3.332   3.222  11.435 -0.3075 -0.8143 -0.5065
    8SAPS  O13B  940   3.469   3.317  11.301  0.0018 -0.3112  0.3518
    8SAPS   C11  941   3.579   3.060  11.242 -0.1604  0.3660 -0.1421
    8SAPS  H11A  942   3.603   3.037  11.348 -0.0386  1.7351  0.1399
    8SAPS  H11B  943   3.622   3.158  11.212  0.2979  0.4256  0.6785
    8SAPS     P  944   3.720   2.953  11.036  0.0210  0.2729 -0.1029
    8SAPS   O13  945   3.854   2.949  11.102  0.1624 -0.5042 -0.2146
    8SAPS   O14  946   3.693   2.861  10.926  0.4701  0.6283 -0.2613
    8SAPS   O12  947   3.611   2.947  11.154 -0.0008  0.0341  0.3224
    8SAPS   O11  948   3.700   3.103  10.988  0.5537  0.4701 -0.0215
    8SAPS    C1  949   3.630   3.127  10.861  1.0926 -0.7989 -0.2665
    8SAPS    HA  950   3.547   3.053  10.860 -1.0173  1.3665  1.7299
    8SAPS    HB  951   3.584   3.228  10.864 -1.6540 -1.9756  0.5162
    8SAPS    C2  952   3.721   3.104  10.734 -0.2757 -0.1350 -0.3079
    8SAPS    HS  953   3.738   2.994  10.741 -2.5736 -0.4439  1.5132
    8SAPS   O21  954   3.846   3.168  10.743 -0.2367 -0.4981 -0.0977
    8SAPS   C21  955   3.944   3.121  10.659  0.3126 -0.4446  0.2308
    8SAPS   O22  956   3.943   3.011  10.609  0.2634 -0.0325 -0.1684
    8SAPS   C22  957   4.039   3.238  10.633 -0.0243 -0.0703  0.2631
    8SAPS   H2R  958   3.998   3.322  10.692 -0.0428 -0.0694  0.2494
    8SAPS   H2S  959   4.143   3.216  10.665 -0.8467 -5.2828  0.3210
    8SAPS    C3  960   3.628   3.140  10.611  0.0857 -0.5434  0.4607
    8SAPS    HX  961   3.630   3.249  10.593  1.2489 -0.6266 -0.0038
    8SAPS    HY  962   3.522   3.115  10.634  0.3023 -0.6082  1.4231
    8SAPS   O31  963   3.669   3.075  10.481 -0.3124  0.0595 -0.2047
    8SAPS   C31  964   3.627   2.948  10.470  0.1692  0.2488 -0.5466
    8SAPS   O32  965   3.545   2.900  10.545  0.2844 -0.5079 -0.5403
    8SAPS   C32  966   3.692   2.879  10.349 -0.1868  0.2954 -0.0401
    8SAPS   H2X  967   3.797   2.913  10.339 -0.3833  0.4762 -2.0272
    8SAPS   H2Y  968   3.635   2.911  10.259 -1.5172 -0.7214  0.4157
    8SAPS   C23  969   4.060   3.259  10.476 -0.0962  0.2919 -0.1841
    8SAPS   H3R  970   4.109   3.165  10.441 -0.3443  0.6871 -1.6561
    8SAPS   H3S  971   4.127   3.346  10.460  2.1168 -1.6506 -2.3650
    8SAPS   C24  972   3.935   3.293  10.396  0.2341 -0.5719 -0.7780
    8SAPS   H4R  973   3.875   3.366  10.456 -0.5288 -2.0109  0.2648
    8SAPS   H4S  974   3.874   3.200  10.393 -1.0587  0.1883  0.4667
    8SAPS   C25  975   3.964   3.345  10.254  0.5959 -0.2599 -0.0024
    8SAPS   H5R  976   4.029   3.433  10.259 -0.2771  0.3756  0.3719
    8SAPS   C26  977   3.938   3.289  10.133 -0.0067  0.0449  0.4743
    8SAPS   H6R  978   3.977   3.332  10.040  0.2852 -0.4112  0.3865
    8SAPS   C27  979   3.856   3.161  10.108 -0.4158 -0.1198 -0.2192
    8SAPS   H7R  980   3.798   3.125  10.195 -0.5899  1.1744  0.2195
    8SAPS   H7S  981   3.926   3.080  10.080  0.1239  1.2285 -3.1979
    8SAPS   C28  982   3.753   3.181  10.001  0.0666 -0.7421 -0.3906
    8SAPS   H8R  983   3.664   3.213  10.056 -0.7582 -1.4699 -1.2749
    8SAPS   C29  984   3.758   3.177   9.865  0.4538 -0.5649 -0.0915
    8SAPS   H9R  985   3.669   3.202   9.806  0.2759 -0.5189  0.1971
    8SAPS  C210  986   3.879   3.130   9.790 -0.4030 -0.0167 -0.4018
    8SAPS  H10R  987   3.878   3.021   9.808 -0.3831  0.3689  2.3035
    8SAPS  H10S  988   3.971   3.172   9.836 -1.2360 -0.3618  1.6937
    8SAPS  C211  989   3.861   3.169   9.642  0.0047 -0.8617  0.1731
    8SAPS  H11R  990   3.933   3.247   9.616  0.2521 -1.1234  0.0730
    8SAPS  C212  991   3.770   3.122   9.549  0.0323 -0.1874  0.1233
    8SAPS  H12R  992   3.775   3.151   9.443 -2.2225 -0.4703 -0.1199
    8SAPS  C213  993   3.661   3.024   9.566  0.2438  1.2847  0.1423
    8SAPS  H13R  994   3.646   3.001   9.674 -1.1743 -1.9817 -0.6286
    8SAPS  H13S  995   3.704   2.931   9.524  1.4347  1.7008  0.4100
    8SAPS  C214  996   3.526   3.049   9.507  0.2502  0.0841  1.1946
    8SAPS  H14R  997   3.465   3.108   9.578  0.4282  1.2369  0.4057
    8SAPS  C215  998   3.472   3.008   9.387  0.4423 -0.7483  0.2091
    8SAPS  H15R  999   3.375   3.048   9.357 -1.1003 -3.7579  0.7646
    8SAPS  C216 1000   3.559   2.939   9.280  0.0097 -0.5110 -0.1270
    8SAPS  H16R 1001   3.661   2.911   9.314 -0.7014 -2.0184  0.8520
    8SAPS  H16S 1002   3.576   3.004   9.191 -0.2446 -1.1920 -0.6796
    8SAPS  C217 1003   3.482   2.822   9.229  0.0210  0.1729 -0.3121
    8SAPS  H17R 1004   3.378   2.843   9.194 -0.0166 -1.7596 -1.4951
    8SAPS  H17S 1005   3.473   2.751   9.314  0.2914 -0.4016 -0.7565
    8SAPS  C218 1006   3.544   2.732   9.124 -0.2331 -0.1577 -0.4187
    8SAPS  H18R 1007   3.488   2.637   9.120 -0.8287  0.2219 -1.7462
    8SAPS  H18S 1008   3.646   2.715   9.165  0.1668 -0.8825 -1.6785
    8SAPS  C219 1009   3.543   2.783   8.978  0.1677  0.5696 -0.1930
    8SAPS  H19R 1010   3.591   2.883   8.985  1.4775 -0.1297  1.4148
    8SAPS  H19S 1011   3.439   2.805   8.944  0.3340  0.9149 -0.4837
    8SAPS  C220 1012   3.621   2.694   8.878 -0.0633  0.7245 -0.2512
    8SAPS  H20R 1013   3.716   2.670   8.931 -0.0367 -0.5617 -0.8400
    8SAPS  H20S 1014   3.646   2.763   8.795 -2.3680  1.9319 -0.0250
    8SAPS  H20T 1015   3.573   2.596   8.857  4.7834 -2.1288  0.4759
    8SAPS   C33 1016   3.688   2.724  10.355 -0.4192  0.4553 -0.3049
    8SAPS   H3X 1017   3.585   2.683  10.349  0.2689 -1.8998  2.1361
    8SAPS   H3Y 1018   3.730   2.707  10.456  1.0545  4.8037  0.0185
    8SAPS   C34 1019   3.785   2.657  10.251  0.3423 -0.0774 -0.1708
    8SAPS   H4X 1020   3.818   2.554  10.279  0.2744  0.3108  1.4499
    8SAPS   H4Y 1021   3.878   2.716  10.238  0.0992  0.0858 -1.2627
    8SAPS   C35 1022   3.722   2.647  10.114  0.4449 -0.2867  0.2107
    8SAPS   H5X 1023   3.614   2.623  10.119 -0.7702  4.1034 -0.6041
    8SAPS   H5Y 1024   3.772   2.557  10.072  1.5746  0.8721 -1.0366
    8SAPS   C36 1025   3.754   2.769  10.027  0.1661  0.6025  0.5711
    8SAPS   H6X 1026   3.856   2.812  10.040 -0.3661  1.1975  3.3864
    8SAPS   H6Y 1027   3.692   2.854  10.061 -0.2918  0.5930 -0.2244
    8SAPS   C37 1028   3.716   2.751   9.878 -0.1927 -0.6975  0.1890
    8SAPS   H7X 1029   3.737   2.845   9.823 -0.5215 -0.5744  0.2706
    8SAPS   H7Y 1030   3.607   2.733   9.867 -0.2372  0.6955 -2.3088
    8SAPS   C38 1031   3.792   2.638   9.811  0.2811  0.4181  0.0627
    8SAPS   H8X 1032   3.728   2.548   9.807  1.6162 -0.5314 -1.2535
    8SAPS   H8Y 1033   3.878   2.631   9.880  0.5264 -1.3652 -0.3642
    8SAPS   C39 1034   3.848   2.665   9.666  0.3683 -0.2527 -0.0002
    8SAPS   H9X 1035   3.917   2.751   9.663  0.5363 -0.4046 -1.0837
    8SAPS   H9Y 1036   3.761   2.688   9.600 -0.2926 -2.9017 -0.2033
    8SAPS  C310 1037   3.924   2.546   9.614 -0.1977  0.6715  0.1068
    8SAPS  H10X 1038   3.861   2.458   9.588 -1.2159  1.5143 -0.3517
    8SAPS  H10Y 1039   3.982   2.502   9.697 -1.6957  1.4076  1.5934
    8SAPS  C311 1040   4.022   2.563   9.494 -0.6546  0.3318 -0.0449
    8SAPS  H11X 1041   4.085   2.478   9.461  3.9452  3.0826  0.8642
    8SAPS  H11Y 1042   4.105   2.634   9.512 -0.9153  0.9880 -1.3628
    8SAPS  C312 1043   3.940   2.600   9.371 -0.1056  0.3469  0.2295
    8SAPS  H12X 1044   3.883   2.693   9.391  0.8893  0.8264  0.9251
    8SAPS  H12Y 1045   3.864   2.524   9.341  1.0817 -0.0542 -1.9486
    8SAPS  C313 1046   4.023   2.612   9.241  0.2618  0.6414 -0.5253
    8SAPS  H13X 1047   4.077   2.515   9.239  0.7764  0.8290  1.9826
    8SAPS  H13Y 1048   4.098   2.690   9.265 -0.8932  1.4696  0.5207
    8SAPS  C314 1049   3.935   2.640   9.126 -0.7049 -0.4909 -0.0223
    8SAPS  H14X 1050   3.867   2.719   9.165  0.5352  1.3452 -1.4556
    8SAPS  H14Y 1051   3.894   2.539   9.105  0.7088 -0.5894 -2.8116
    8SAPS  C315 1052   4.003   2.682   8.995 -0.0298 -0.1593  0.2786
    8SAPS  H15X 1053   3.929   2.683   8.912  1.4283  0.0681 -1.0525
    8SAPS  H15Y 1054   4.073   2.603   8.963  0.8347  0.1703  1.2951
    8SAPS  C316 1055   4.062   2.823   9.015 -0.2146 -0.1860  0.2124
    8SAPS  H16X 1056   4.145   2.821   9.090  1.4759 -0.6700 -1.5955
    8SAPS  H16Y 1057   3.981   2.887   9.056 -2.2128 -2.7210  0.4488
    8SAPS  C317 1058   4.105   2.882   8.883 -0.1763 -0.6548 -0.0566
    8SAPS  H17X 1059   4.175   2.809   8.835  0.3015  1.0494 -2.0796
    8SAPS  H17Y 1060   4.154   2.981   8.890 -1.0900  0.0057 -2.1752
    8SAPS  C318 1061   3.989   2.913   8.791 -0.1840  0.2159  0.0733
    8SAPS  H18X 1062   3.946   2.821   8.748  0.5627 -0.4722  0.7591
    8SAPS  H18Y 1063   4.021   2.974   8.703 -1.2054 -0.1883 -0.5939
    8SAPS  H18Z 1064   3.912   2.971   8.846 -0.2489 -0.3663  0.6024
    9SAPS     N 1065   6.496   1.274   6.131 -0.0589  0.0946 -0.2124
    9SAPS   HN1 1066   6.521   1.310   6.037  0.0852 -2.5242 -1.2795
    9SAPS   HN2 1067   6.551   1.325   6.203  0.3680 -0.1996 -0.3244
    9SAPS   HN3 1068   6.513   1.172   6.147 -0.3618 -0.0094 -0.5428
    9SAPS   C12 1069   6.351   1.306   6.151 -0.5233 -1.0275  0.2265
    9SAPS  H12A 1070   6.356   1.369   6.239  1.6344 -0.7498 -0.0544
    9SAPS   C13 1071   6.281   1.388   6.040 -0.3882  0.0688  0.2585
    9SAPS  O13A 1072   6.343   1.422   5.933 -0.1598  0.2343 -0.4555
    9SAPS  O13B 1073   6.158   1.424   6.047  0.5087  0.1019 -0.3213
    9SAPS   C11 1074   6.267   1.183   6.179  0.4529 -0.1948  0.3117
    9SAPS  H11A 1075   6.240   1.130   6.086 -1.2188  0.5621  0.3220
    9SAPS  H11B 1076   6.182   1.230   6.234  0.2487 -1.5100  1.1764
    9SAPS     P 1077   6.268   0.986   6.350  0.6169  0.3575 -0.5694
    9SAPS   O13 1078   6.149   1.045   6.411  0.1226  0.0164  0.3121
    9SAPS   O14 1079   6.247   0.869   6.259  0.3497  0.0321  0.0515
    9SAPS   O12 1080   6.333   1.105   6.274  0.2076 -0.5613  0.5578
    9SAPS   O11 1081   6.369   0.950   6.461 -0.0787  0.2877 -0.3196
    9SAPS    C1 1082   6.509   0.974   6.460 -0.7888  0.2718 -1.3340
    9SAPS    HA 1083   6.566   0.885   6.427 -1.9629 -2.0177  2.2323
    9SAPS    HB 1084   6.528   1.048   6.378  1.1523 -0.0973 -1.2573
    9SAPS    C2 1085   6.562   1.022   6.602 -0.4169  0.6583  0.4804
    9SAPS    HS 1086   6.650   1.090   6.592  0.2041 -0.1303  0.5177
    9SAPS   O21 1087   6.593   0.909   6.690  0.4176 -0.1014  0.0728
    9SAPS   C21 1088   6.708   0.859   6.667  0.3047 -0.6017 -0.9537
    9SAPS   O22 1089   6.803   0.906   6.601  0.3221  0.1985  0.2181
    9SAPS   C22 1090   6.727   0.733   6.753  0.1408 -0.3762  0.7980
    9SAPS   H2R 1091   6.709   0.646   6.686 -2.8537 -0.0585  1.0716
    9SAPS   H2S 1092   6.836   0.734   6.775  0.1224 -2.3643  1.1931
    9SAPS    C3 1093   6.463   1.109   6.673 -0.0619  0.4341  0.7968
    9SAPS    HX 1094   6.382   1.042   6.709  0.5919  0.0200  1.5322
    9SAPS    HY 1095   6.433   1.192   6.605  0.6959 -0.5935 -0.8527
    9SAPS   O31 1096   6.526   1.162   6.789 -0.7354 -0.0293 -0.6776
    9SAPS   C31 1097   6.450   1.253   6.853  0.7887  0.4119  0.2742
    9SAPS   O32 1098   6.342   1.292   6.819  0.2901 -0.6324  0.2783
    9SAPS   C32 1099   6.514   1.304   6.981  0.0394 -0.5480 -0.3212
    9SAPS   H2X 1100   6.586   1.384   6.953 -0.7146  0.4093  0.4127
    9SAPS   H2Y 1101   6.562   1.214   7.024 -0.3059 -1.3895 -1.6294
    9SAPS   C23 1102   6.634   0.728   6.881  0.3420  0.1599  0.1905
    9SAPS   H3R 1103   6.629   0.621   6.911  0.6887  0.6778  2.2834
    9SAPS   H3S 1104   6.530   0.767   6.873  0.6548  0.6331 -3.1172
    9SAPS   C24 1105   6.706   0.784   7.008 -1.1159  0.5846  0.8469
    9SAPS   H4R 1106   6.812   0.751   7.015 -1.0047  0.4564 -1.0138
    9SAPS   H4S 1107   6.655   0.736   7.094 -2.5306  1.1557  0.3495
    9SAPS   C25 1108   6.707   0.929   7.031 -0.2105  0.0927 -1.0424
    9SAPS   H5R 1109   6.705   0.996   6.944  0.5450  2.2400  0.5074
    9SAPS   C26 1110   6.729   0.988   7.154 -0.1355 -0.0842 -0.0798
    9SAPS   H6R 1111   6.723   1.098   7.157  1.5309  0.0468 -0.4359
    9SAPS   C27 1112   6.749   0.919   7.284  0.4188  0.3748 -0.5830
    9SAPS   H7R 1113   6.817   0.833   7.274 -0.6166 -0.7228  1.2176
    9SAPS   H7S 1114   6.646   0.887   7.311  0.5559  0.6853  0.3777
    9SAPS   C28 1115   6.786   1.003   7.400  0.1278  0.3516 -0.4466
    9SAPS   H8R 1116   6.783   1.110   7.374  0.6031  0.1338 -1.4280
    9SAPS   C29 1117   6.828   0.962   7.525  0.0281 -0.8938  0.1440
    9SAPS   H9R 1118   6.855   1.043   7.595  1.5108 -1.3609  0.1426
    9SAPS  C210 1119   6.829   0.825   7.580  0.1788 -0.2310  0.3191
    9SAPS  H10R 1120   6.935   0.807   7.610 -0.1316 -0.0980  1.5262
    9SAPS  H10S 1121   6.821   0.749   7.499  4.2019  0.7605 -1.2630
    9SAPS  C211 1122   6.732   0.801   7.689  0.4091  0.8494  0.5285
    9SAPS  H11R 1123   6.631   0.840   7.667 -1.0890 -3.1751 -0.7819
    9SAPS  C212 1124   6.757   0.741   7.804  0.1798  0.3499  0.2737
    9SAPS  H12R 1125   6.673   0.710   7.867 -0.8144 -0.3961 -1.3637
    9SAPS  C213 1126   6.886   0.674   7.855 -0.6563 -0.7459 -0.3193
    9SAPS  H13R 1127   6.972   0.712   7.795 -1.1504 -1.6524 -1.6466
    9SAPS  H13S 1128   6.880   0.567   7.828  1.7280 -0.8925 -0.4583
    9SAPS  C214 1129   6.907   0.680   8.001 -0.4833 -0.0365  0.1512
    9SAPS  H14R 1130   6.897   0.782   8.040  3.4339  1.2610 -1.6976
    9SAPS  C215 1131   6.963   0.589   8.078 -0.0093  0.1036  0.3196
    9SAPS  H15R 1132   6.966   0.598   8.188  1.3844  3.0051  0.1443
    9SAPS  C216 1133   7.021   0.458   8.028  0.5476 -0.2684 -0.1062
    9SAPS  H16R 1134   7.115   0.438   8.084  1.0818  1.0312 -0.4821
    9SAPS  H16S 1135   7.067   0.467   7.927  3.7287  0.2177  1.2632
    9SAPS  C217 1136   6.927   0.335   8.052  0.1297  0.1786 -0.1782
    9SAPS  H17R 1137   6.820   0.362   8.041 -0.3858 -1.9558 -0.8954
    9SAPS  H17S 1138   6.956   0.295   8.151  1.3866 -0.1025 -0.6339
    9SAPS  C218 1139   6.948   0.218   7.954  0.0241  0.2866  0.3694
    9SAPS  H18R 1140   6.904   0.129   8.004  2.8569 -0.2232  2.1756
    9SAPS  H18S 1141   7.058   0.209   7.943 -0.1177  0.7649 -1.9771
    9SAPS  C219 1142   6.905   0.241   7.812  0.0350  0.1567 -0.0258
    9SAPS  H19R 1143   6.967   0.173   7.750  1.1291 -0.1216  1.3328
    9SAPS  H19S 1144   6.924   0.346   7.783  2.5087 -0.0584  0.5966
    9SAPS  C220 1145   6.754   0.216   7.785  0.3037  0.5850 -0.6360
    9SAPS  H20R 1146   6.724   0.120   7.833 -0.4774  1.1034 -0.0568
    9SAPS  H20S 1147   6.734   0.221   7.676  0.2316  1.9954 -0.5683
    9SAPS  H20T 1148   6.689   0.296   7.826 -1.9579 -2.2694  1.8591
    9SAPS   C33 1149   6.411   1.367   7.081 -0.6152 -0.4494  0.1053
    9SAPS   H3X 1150   6.332   1.292   7.102 -1.0456  0.9587  4.4543
    9SAPS   H3Y 1151   6.363   1.449   7.025 -1.0603 -0.4711  0.4546
    9SAPS   C34 1152   6.476   1.421   7.210  0.1881  0.3564 -0.6965
    9SAPS   H4X 1153   6.510   1.524   7.185 -0.4556  0.6637 -0.3056
    9SAPS   H4Y 1154   6.566   1.364   7.243  1.2671  1.5674 -1.4364
    9SAPS   C35 1155   6.371   1.416   7.325  0.4169  0.2865  0.2110
    9SAPS   H5X 1156   6.303   1.329   7.317 -0.3212  0.9329 -0.8851
    9SAPS   H5Y 1157   6.302   1.500   7.301 -0.1444  0.3152  1.8080
    9SAPS   C36 1158   6.442   1.425   7.454  0.6457  0.0541  0.1909
    9SAPS   H6X 1159   6.495   1.522   7.446  1.0384 -0.1701  0.0648
    9SAPS   H6Y 1160   6.523   1.350   7.459 -0.1120 -0.7190  3.2690
    9SAPS   C37 1161   6.345   1.418   7.571 -0.0386  0.2954 -0.3717
    9SAPS   H7X 1162   6.301   1.316   7.571 -0.6873  0.5703 -0.3413
    9SAPS   H7Y 1163   6.269   1.496   7.549 -0.5115 -0.7201 -2.6967
    9SAPS   C38 1164   6.408   1.443   7.704  0.3308  0.1304 -0.1096
    9SAPS   H8X 1165   6.437   1.551   7.704 -0.5864  0.4083 -1.7058
    9SAPS   H8Y 1166   6.495   1.377   7.724  1.2220  1.9265  2.6504
    9SAPS   C39 1167   6.307   1.421   7.818  0.1655 -0.0598  0.1068
    9SAPS   H9X 1168   6.252   1.327   7.795 -1.0051  0.5281  0.4451
    9SAPS   H9Y 1169   6.235   1.506   7.813  1.4076  0.9549 -1.6516
    9SAPS  C310 1170   6.370   1.404   7.956  0.1216 -0.0570  0.2349
    9SAPS  H10X 1171   6.421   1.497   7.992  0.6946  0.0883 -0.8980
    9SAPS  H10Y 1172   6.441   1.319   7.961 -3.2068 -2.9403  3.3560
    9SAPS  C311 1173   6.266   1.385   8.064 -0.2086  0.2099  0.0216
    9SAPS  H11X 1174   6.203   1.305   8.020  0.3923  0.2570 -0.9656
    9SAPS  H11Y 1175   6.198   1.471   8.085 -1.6296 -1.0453  0.7425
    9SAPS  C312 1176   6.321   1.330   8.196 -0.0728 -0.0818  0.2760
    9SAPS  H12X 1177   6.341   1.415   8.265 -2.4469 -0.4423  1.5086
    9SAPS  H12Y 1178   6.422   1.284   8.181  0.4895  1.2216 -0.0749
    9SAPS  C313 1179   6.229   1.229   8.270 -0.3612  0.4133  0.6415
    9SAPS  H13X 1180   6.177   1.152   8.209 -4.0733  0.8981  2.8835
    9SAPS  H13Y 1181   6.144   1.289   8.310 -0.4558  0.7978 -0.1103
    9SAPS  C314 1182   6.291   1.165   8.392 -0.6792  0.1486  0.3628
    9SAPS  H14X 1183   6.366   1.087   8.367  1.3885  1.8075  1.1189
    9SAPS  H14Y 1184   6.212   1.115   8.452  0.5572 -2.2130  0.1670
    9SAPS  C315 1185   6.364   1.247   8.496  0.1162 -0.3891 -0.8675
    9SAPS  H15X 1186   6.454   1.288   8.446  0.9899 -2.4145 -1.0310
    9SAPS  H15Y 1187   6.404   1.187   8.581 -2.0915 -1.7903 -0.7210
    9SAPS  C316 1188   6.276   1.369   8.548 -0.7207  0.5377 -0.4585
    9SAPS  H16X 1189   6.195   1.330   8.613  1.5447  1.1385  2.9983
    9SAPS  H16Y 1190   6.240   1.420   8.457 -0.0420  0.9645 -0.4973
    9SAPS  C317 1191   6.349   1.471   8.633  0.5401  0.2520 -0.5576
    9SAPS  H17X 1192   6.295   1.569   8.634 -0.9873 -0.5373  1.7375
    9SAPS  H17Y 1193   6.436   1.494   8.568  1.4385  1.1211  0.8989
    9SAPS  C318 1194   6.393   1.430   8.775  0.1752 -0.0689  0.2408
    9SAPS  H18X 1195   6.454   1.503   8.832  0.0408 -2.2499  3.4693
    9SAPS  H18Y 1196   6.444   1.333   8.790  0.9834  0.7096  3.1876
    9SAPS  H18Z 1197   6.302   1.415   8.838 -0.2274 -1.8163 -0.6902
   10SAPS     N 1198   0.349   0.127   6.410  0.2844  0.7755  0.2483
   10SAPS   HN1 1199   0.251   0.106   6.439 -0.1989  0.9229 -1.1765
   10SAPS   HN2 1200   0.401   0.037   6.418 -0.9269 -0.1097 -1.3469
   10SAPS   HN3 1201   0.390   0.198   6.474 -0.0213  1.4557 -0.2885
   10SAPS   C12 1202   0.339   0.175   6.268  0.2697 -0.3627  0.5698
   10SAPS  H12A 1203   0.440   0.183   6.231 -1.0827  1.4074 -3.4008
   10SAPS   C13 1204   0.262   0.095   6.160  1.0798 -0.6206  0.0324
   10SAPS  O13A 1205   0.213  -0.022   6.177 -0.5701  0.3602 -0.8847
   10SAPS  O13B 1206   0.258   0.146   6.046 -0.0130 -0.1114 -0.2706
   10SAPS   C11 1207   0.274   0.316   6.265 -0.5377 -0.5066 -0.3893
   10SAPS  H11A 1208   0.176   0.300   6.314 -1.2076  2.1402 -0.7244
   10SAPS  H11B 1209   0.271   0.354   6.161  0.1154  0.8344  0.0653
   10SAPS     P 1210   0.453   0.519   6.272 -0.2729 -0.4196 -0.1393
   10SAPS   O13 1211   0.502   0.472   6.143  0.3314 -0.2987 -0.7748
   10SAPS   O14 1212   0.378   0.645   6.261 -0.7188 -0.3171  0.0282
   10SAPS   O12 1213   0.356   0.405   6.343  0.2714 -0.4776  0.1895
   10SAPS   O11 1214   0.564   0.544   6.381  0.1629 -0.2553 -0.3470
   10SAPS    C1 1215   0.648   0.438   6.429 -0.2993 -0.1494 -0.1867
   10SAPS    HA 1216   0.607   0.336   6.413 -1.5958  0.5881 -1.8744
   10SAPS    HB 1217   0.747   0.457   6.384  1.0032  0.8201  2.8186
   10SAPS    C2 1218   0.668   0.457   6.588 -0.5356  0.3086 -0.2284
   10SAPS    HS 1219   0.716   0.368   6.634  2.1494  2.5933  1.7340
   10SAPS   O21 1220   0.544   0.493   6.658 -0.7135  0.5474 -1.0088
   10SAPS   C21 1221   0.456   0.396   6.666 -0.1192  0.0807  0.1509
   10SAPS   O22 1222   0.469   0.283   6.613 -0.2582 -0.7717 -0.1680
   10SAPS   C22 1223   0.333   0.449   6.739  0.6285  0.7486  0.2350
   10SAPS   H2R 1224   0.365   0.537   6.799  1.4111 -0.2440  1.3094
   10SAPS   H2S 1225   0.262   0.481   6.660  0.4299 -0.2781 -0.0204
   10SAPS    C3 1226   0.767   0.568   6.611 -0.5141 -0.6562 -0.9151
   10SAPS    HX 1227   0.718   0.665   6.590  1.0633  0.5821  0.6975
   10SAPS    HY 1228   0.852   0.556   6.541 -1.0846 -4.3798 -1.1403
   10SAPS   O31 1229   0.816   0.574   6.752 -0.0974 -0.0429 -0.4911
   10SAPS   C31 1230   0.896   0.678   6.780  0.1412  0.4302 -0.0911
   10SAPS   O32 1231   0.936   0.755   6.697 -0.1374  0.1034 -0.0307
   10SAPS   C32 1232   0.932   0.682   6.926  0.7489  0.3435 -0.1392
   10SAPS   H2X 1233   1.003   0.602   6.957  0.7567  0.6007  0.5236
   10SAPS   H2Y 1234   0.841   0.668   6.988  1.1918  0.6875  0.6031
   10SAPS   C23 1235   0.247   0.349   6.825  0.3744  0.0072  0.4677
   10SAPS   H3R 1236   0.320   0.295   6.890  1.4896 -1.8556 -2.1733
   10SAPS   H3S 1237   0.204   0.269   6.762  0.1175  2.3083 -2.4931
   10SAPS   C24 1238   0.121   0.409   6.893 -0.3913  0.1075  0.4106
   10SAPS   H4R 1239   0.060   0.435   6.804 -0.4985 -0.0467  0.4390
   10SAPS   H4S 1240   0.154   0.500   6.948  1.0181  0.4111 -0.8531
   10SAPS   C25 1241   0.047   0.317   6.978 -0.3968 -1.1663  0.0325
   10SAPS   H5R 1242  -0.031   0.254   6.932 -1.4485 -1.3996  2.0335
   10SAPS   C26 1243   0.064   0.304   7.110  0.0768  0.6002 -0.1188
   10SAPS   H6R 1244  -0.009   0.234   7.154 -0.6725  0.1920 -1.9448
   10SAPS   C27 1245   0.156   0.365   7.215 -0.0683  0.9864 -0.5310
   10SAPS   H7R 1246   0.199   0.456   7.168 -0.7272  0.7596 -1.6086
   10SAPS   H7S 1247   0.244   0.302   7.240  0.2456  2.0716  1.2207
   10SAPS   C28 1248   0.095   0.390   7.350 -0.6013  0.3628  0.1200
   10SAPS   H8R 1249   0.140   0.347   7.440 -0.9659  1.4349  0.8336
   10SAPS   C29 1250  -0.021   0.454   7.376  0.4814  0.4847  0.1587
   10SAPS   H9R 1251  -0.042   0.457   7.484  0.6832 -0.3151  0.2211
   10SAPS  C210 1252  -0.103   0.535   7.278 -0.1123  0.9467 -0.3337
   10SAPS  H10R 1253  -0.132   0.476   7.189  1.0968 -0.6870  0.3116
   10SAPS  H10S 1254  -0.042   0.620   7.241  0.6898  1.7652  2.5657
   10SAPS  C211 1255  -0.223   0.600   7.344  0.8381  0.3092  0.5962
   10SAPS  H11R 1256  -0.196   0.690   7.402 -2.3743  1.8382 -0.0584
   10SAPS  C212 1257  -0.356   0.569   7.321  0.1485 -0.8725 -0.0762
   10SAPS  H12R 1258  -0.434   0.634   7.364  1.4439  0.7574 -0.0779
   10SAPS  C213 1259  -0.413   0.465   7.226 -0.0865 -0.3497 -0.2962
   10SAPS  H13R 1260  -0.379   0.368   7.269  1.6699  0.3909  0.0612
   10SAPS  H13S 1261  -0.355   0.487   7.134  0.6538 -1.7183 -0.1716
   10SAPS  C214 1262  -0.561   0.469   7.209  0.2510 -0.9301 -0.3978
   10SAPS  H14R 1263  -0.599   0.526   7.123 -1.5581  0.2034  1.0781
   10SAPS  C215 1264  -0.651   0.412   7.295  0.1714  0.0281  0.1111
   10SAPS  H15R 1265  -0.757   0.421   7.267 -0.5627 -2.2080  1.8768
   10SAPS  C216 1266  -0.623   0.333   7.414  0.0037  0.2194 -0.0581
   10SAPS  H16R 1267  -0.516   0.303   7.417 -0.9444 -3.7690  0.0540
   10SAPS  H16S 1268  -0.676   0.237   7.399 -0.5499  0.6241 -0.7230
   10SAPS  C217 1269  -0.667   0.401   7.550 -0.0674  0.1013 -0.1713
   10SAPS  H17R 1270  -0.650   0.327   7.631 -0.5432  1.5433  1.3085
   10SAPS  H17S 1271  -0.774   0.427   7.538 -0.1770 -0.6129 -0.8315
   10SAPS  C218 1272  -0.588   0.527   7.583  0.0269 -0.3756  0.6383
   10SAPS  H18R 1273  -0.595   0.593   7.494  0.7569 -0.8646  0.2025
   10SAPS  H18S 1274  -0.482   0.496   7.599 -0.1351 -0.6449  1.2081
   10SAPS  C219 1275  -0.628   0.595   7.713  0.4180 -0.5973  0.2446
   10SAPS  H19R 1276  -0.739   0.599   7.717  0.4407 -0.6876  1.2099
   10SAPS  H19S 1277  -0.597   0.702   7.717 -0.7165 -0.2716  0.8847
   10SAPS  C220 1278  -0.582   0.521   7.836  0.3847  0.4218  0.2072
   10SAPS  H20R 1279  -0.625   0.571   7.925 -1.9109  1.7285 -1.5092
   10SAPS  H20S 1280  -0.471   0.525   7.840  0.4472 -0.6959 -0.1658
   10SAPS  H20T 1281  -0.616   0.415   7.835 -0.6477  0.7333  0.7697
   10SAPS   C33 1282   1.009   0.809   6.960 -0.0473 -0.4543 -0.0550
   10SAPS   H3X 1283   0.931   0.885   6.936 -0.3097 -1.2111 -1.7573
   10SAPS   H3Y 1284   1.090   0.821   6.885  1.6333 -0.2910  1.7167
   10SAPS   C34 1285   1.050   0.830   7.110  0.2607 -0.1386  0.2635
   10SAPS   H4X 1286   1.097   0.931   7.109 -0.9494  0.4925  1.6720
   10SAPS   H4Y 1287   1.120   0.747   7.132 -1.4727 -2.0209 -1.0258
   10SAPS   C35 1288   0.922   0.840   7.204 -0.2682  0.4124 -0.4297
   10SAPS   H5X 1289   0.873   0.741   7.207  2.8847 -1.2464 -0.1418
   10SAPS   H5Y 1290   0.854   0.919   7.164 -1.6444 -1.8089 -2.8469
   10SAPS   C36 1291   0.964   0.882   7.344 -0.2374 -0.1848 -0.5457
   10SAPS   H6X 1292   1.029   0.971   7.333 -0.8077  0.1073 -1.6754
   10SAPS   H6Y 1293   1.022   0.800   7.390  0.9241  1.3392  0.8381
   10SAPS   C37 1294   0.852   0.929   7.434  0.1666 -0.1256 -0.6479
   10SAPS   H7X 1295   0.774   0.850   7.438  0.1605 -0.1317 -0.8504
   10SAPS   H7Y 1296   0.818   1.025   7.388  4.3606  1.0339 -1.7640
   10SAPS   C38 1297   0.891   0.966   7.577 -0.4268  0.2795 -0.1113
   10SAPS   H8X 1298   0.802   0.997   7.636  0.4529  1.2355  0.7542
   10SAPS   H8Y 1299   0.962   1.051   7.568 -0.4216  0.0133 -4.8551
   10SAPS   C39 1300   0.955   0.846   7.653 -0.2823 -0.3054 -0.7435
   10SAPS   H9X 1301   1.051   0.825   7.601 -0.1326 -0.4547 -0.4097
   10SAPS   H9Y 1302   0.873   0.772   7.640 -0.6123  0.2827 -2.2637
   10SAPS  C310 1303   0.985   0.893   7.792 -0.6618  0.4842  0.5548
   10SAPS  H10X 1304   0.888   0.901   7.846 -1.7132  0.7289 -1.2883
   10SAPS  H10Y 1305   1.035   0.992   7.782 -0.6258  0.7757  2.9125
   10SAPS  C311 1306   1.074   0.789   7.863 -0.0051 -0.4247 -0.7739
   10SAPS  H11X 1307   1.169   0.764   7.810  0.6425 -0.6461  0.4508
   10SAPS  H11Y 1308   1.019   0.693   7.871  0.0583 -0.4940 -1.1355
   10SAPS  C312 1309   1.114   0.846   8.000  0.2123 -0.2997 -0.1849
   10SAPS  H12X 1310   1.183   0.932   7.983  1.5894 -1.2273  0.5077
   10SAPS  H12Y 1311   1.156   0.766   8.065 -0.6667  0.6805  1.6838
   10SAPS  C313 1312   1.004   0.891   8.098 -0.3333 -0.0891  0.6925
   10SAPS  H13X 1313   0.927   0.957   8.051 -1.0003  0.4145  2.4348
   10SAPS  H13Y 1314   1.057   0.943   8.180  1.4847 -0.3612 -0.2681
   10SAPS  C314 1315   0.919   0.772   8.143  0.3946  0.1257 -0.2083
   10SAPS  H14X 1316   0.923   0.688   8.071  2.1694 -0.3405  0.3852
   10SAPS  H14Y 1317   0.811   0.791   8.158  0.2568 -1.2393  0.7038
   10SAPS  C315 1318   0.975   0.722   8.280  0.1950 -0.1055  0.1868
   10SAPS  H15X 1319   0.959   0.804   8.354  1.0786  1.2793 -1.0955
   10SAPS  H15Y 1320   1.085   0.709   8.271  0.2410 -0.0291  0.6193
   10SAPS  C316 1321   0.900   0.598   8.336 -0.5292 -0.1611 -0.1411
   10SAPS  H16X 1322   0.888   0.527   8.252 -1.8495 -2.1061  1.5796
   10SAPS  H16Y 1323   0.797   0.618   8.372 -0.0282 -0.0149  1.2750
   10SAPS  C317 1324   0.969   0.533   8.461 -0.0528 -0.0814  0.6072
   10SAPS  H17X 1325   1.067   0.499   8.419 -0.4309  0.0250 -0.3882
   10SAPS  H17Y 1326   0.913   0.441   8.488  0.9857 -0.8317  0.2958
   10SAPS  C318 1327   0.996   0.614   8.590 -0.4897 -0.1055  0.5731
   10SAPS  H18X 1328   1.051   0.709   8.567  1.4462 -1.1209  0.7596
   10SAPS  H18Y 1329   1.062   0.548   8.650  0.6169 -1.1290 -1.6649
   10SAPS  H18Z 1330   0.907   0.651   8.644  0.4537  4.3916 -0.5235
   11SAPS     N 1331   1.230   2.840   5.836  0.4927 -0.6721 -0.0296
   11SAPS   HN1 1332   1.209   2.746   5.873 -2.1849 -1.1557 -2.3787
   11SAPS   HN2 1333   1.331   2.843   5.813  0.3918  0.4057 -0.3957
   11SAPS   HN3 1334   1.211   2.912   5.908  1.5788  1.2755 -1.5797
   11SAPS   C12 1335   1.146   2.878   5.721 -0.2138  0.0380  0.4432
   11SAPS  H12A 1336   1.153   2.983   5.695 -1.5608  0.1234  0.3498
   11SAPS   C13 1337   1.187   2.790   5.599 -0.0373 -0.0687 -0.1827
   11SAPS  O13A 1338   1.244   2.681   5.611 -0.0050  0.0146  0.0669
   11SAPS  O13B 1339   1.158   2.848   5.496 -0.1135  0.0244 -0.1443
   11SAPS   C11 1340   0.992   2.844   5.752  0.2888 -0.3029 -0.0043
   11SAPS  H11A 1341   0.979   2.734   5.757  1.5545 -0.4867 -0.4945
   11SAPS  H11B 1342   0.934   2.879   5.664 -0.9711  0.6547  1.1599
   11SAPS     P 1343   0.822   2.875   5.956 -0.5122  0.0688 -0.2546
   11SAPS   O13 1344   0.693   2.914   5.887 -0.3707  0.7559 -0.0100
   11SAPS   O14 1345   0.849   2.738   5.993 -0.1245 -0.2644  0.7264
   11SAPS   O12 1346   0.949   2.919   5.865  0.3842  0.5259 -0.0572
   11SAPS   O11 1347   0.828   2.964   6.094 -0.0928  0.4222  0.2635
   11SAPS    C1 1348   0.955   2.993   6.155  0.6353  0.0825 -0.5370
   11SAPS    HA 1349   1.033   2.918   6.128 -1.9533 -3.6964  1.5486
   11SAPS    HB 1350   0.994   3.088   6.114  1.4150 -0.3900 -0.9089
   11SAPS    C2 1351   0.936   3.005   6.308 -0.9474  0.7055 -0.0590
   11SAPS    HS 1352   1.033   3.035   6.353  0.3248  0.0326 -2.2044
   11SAPS   O21 1353   0.884   2.881   6.364  0.4672 -0.2382 -0.0774
   11SAPS   C21 1354   0.976   2.793   6.391 -0.0150 -0.3720  0.8936
   11SAPS   O22 1355   1.098   2.815   6.365  0.4103  0.3834  0.2635
   11SAPS   C22 1356   0.905   2.683   6.472 -0.6603  0.2867 -0.0925
   11SAPS   H2R 1357   0.811   2.727   6.511 -1.3456 -0.3482 -0.9737
   11SAPS   H2S 1358   0.886   2.596   6.406 -0.1576  1.3237 -1.6868
   11SAPS    C3 1359   0.835   3.126   6.343  0.4969 -0.1724 -0.3288
   11SAPS    HX 1360   0.760   3.123   6.262  1.1468 -1.0428 -0.9167
   11SAPS    HY 1361   0.899   3.215   6.325  0.8003 -0.2579  0.2943
   11SAPS   O31 1362   0.781   3.121   6.475  0.1728 -0.2267  0.0455
   11SAPS   C31 1363   0.671   3.052   6.496  0.0646  0.2947  0.0512
   11SAPS   O32 1364   0.602   2.993   6.416  0.4730  0.1380 -0.3049
   11SAPS   C32 1365   0.651   3.041   6.647 -0.7548  0.0798  0.0119
   11SAPS   H2X 1366   0.709   2.951   6.674  2.0647  1.0472 -2.2787
   11SAPS   H2Y 1367   0.542   3.022   6.657 -0.6985 -0.1225  0.2243
   11SAPS   C23 1368   0.992   2.651   6.595  0.4587  0.5346 -0.5422
   11SAPS   H3R 1369   1.003   2.740   6.661  1.4960 -0.1533  0.2453
   11SAPS   H3S 1370   1.092   2.611   6.566  0.6029 -0.7762  1.5319
   11SAPS   C24 1371   0.929   2.532   6.684 -0.1958 -0.1925 -0.3795
   11SAPS   H4R 1372   1.021   2.488   6.727 -0.2126 -0.2216 -0.3735
   11SAPS   H4S 1373   0.888   2.453   6.618 -1.4934 -0.1473  0.3212
   11SAPS   C25 1374   0.830   2.575   6.797  0.3598 -0.0131 -0.2099
   11SAPS   H5R 1375   0.723   2.577   6.772 -0.4663 -1.6469  2.6871
   11SAPS   C26 1376   0.864   2.592   6.928 -0.7205  0.1732  0.7284
   11SAPS   H6R 1377   0.792   2.626   7.004 -1.8509  0.4151 -0.4092
   11SAPS   C27 1378   1.007   2.581   6.971  0.1376  0.3037  0.4455
   11SAPS   H7R 1379   1.077   2.646   6.913 -0.1968  1.8236  1.6538
   11SAPS   H7S 1380   1.032   2.475   6.953 -4.5393 -0.8161 -0.5258
   11SAPS   C28 1381   1.030   2.616   7.115 -0.3736 -0.3250 -0.0118
   11SAPS   H8R 1382   0.992   2.715   7.146 -1.2621 -0.9647  0.9717
   11SAPS   C29 1383   1.088   2.540   7.211  0.4922 -0.4116 -0.0448
   11SAPS   H9R 1384   1.090   2.594   7.306  1.7075  2.3038 -1.4776
   11SAPS  C210 1385   1.145   2.400   7.205 -0.0731 -0.0536 -0.1606
   11SAPS  H10R 1386   1.254   2.410   7.183 -0.3425  2.6867 -0.6202
   11SAPS  H10S 1387   1.102   2.347   7.117  4.0063 -0.1452 -2.3610
   11SAPS  C211 1388   1.117   2.325   7.327  0.1628  1.1952  0.3478
   11SAPS  H11R 1389   1.048   2.240   7.315 -1.5763  2.3838  1.4051
   11SAPS  C212 1390   1.167   2.328   7.448  0.2505 -0.4552 -0.3947
   11SAPS  H12R 1391   1.142   2.247   7.518  0.5988  0.8849  1.3828
   11SAPS  C213 1392   1.272   2.420   7.506  0.3274 -0.0422  0.0731
   11SAPS  H13R 1393   1.345   2.444   7.425  0.6551 -1.5333 -0.1078
   11SAPS  H13S 1394   1.339   2.364   7.575 -0.1011  0.6860  1.1109
   11SAPS  C214 1395   1.226   2.555   7.554  0.5251 -1.1084 -0.3408
   11SAPS  H14R 1396   1.126   2.591   7.528 -0.4418 -3.0919  0.3803
   11SAPS  C215 1397   1.299   2.627   7.647 -0.0772  0.5078  0.4127
   11SAPS  H15R 1398   1.254   2.715   7.695  0.1178  1.1276 -0.5120
   11SAPS  C216 1399   1.436   2.597   7.700 -0.6669  0.2955 -0.5144
   11SAPS  H16R 1400   1.505   2.659   7.638 -0.2962  0.9012  0.4823
   11SAPS  H16S 1401   1.469   2.494   7.674 -1.5173 -0.2265  0.4185
   11SAPS  C217 1402   1.461   2.631   7.845  0.0095  0.0968 -0.5573
   11SAPS  H17R 1403   1.457   2.734   7.885  0.4104 -0.5409  1.2520
   11SAPS  H17S 1404   1.567   2.599   7.855 -0.1086  0.1933  1.5588
   11SAPS  C218 1405   1.401   2.540   7.950  0.5281 -0.1630 -0.3795
   11SAPS  H18R 1406   1.356   2.446   7.911 -0.7780  0.3098 -0.0698
   11SAPS  H18S 1407   1.323   2.602   8.000  0.7544 -1.2661  1.4469
   11SAPS  C219 1408   1.503   2.491   8.058  0.1035 -0.2395  0.3485
   11SAPS  H19R 1409   1.589   2.561   8.060 -0.7052  0.7905 -0.1030
   11SAPS  H19S 1410   1.546   2.396   8.021 -1.7082 -0.7632 -0.5231
   11SAPS  C220 1411   1.452   2.479   8.202 -0.3607  0.4393  0.0079
   11SAPS  H20R 1412   1.417   2.579   8.235  2.8926  0.6556  3.5162
   11SAPS  H20S 1413   1.538   2.455   8.268  1.0770 -0.6234 -2.1355
   11SAPS  H20T 1414   1.377   2.399   8.219 -0.9543  1.0832  0.4498
   11SAPS   C33 1415   0.682   3.159   6.731 -0.0120 -0.1895  0.0233
   11SAPS   H3X 1416   0.628   3.247   6.688 -0.7534 -0.8380 -0.3958
   11SAPS   H3Y 1417   0.792   3.174   6.718 -0.0277 -1.0298 -1.2778
   11SAPS   C34 1418   0.632   3.129   6.879  0.3891  0.4259 -0.1923
   11SAPS   H4X 1419   0.658   3.026   6.911 -2.1980  0.5022  2.5444
   11SAPS   H4Y 1420   0.524   3.151   6.873  0.0714 -1.0508 -0.0953
   11SAPS   C35 1421   0.702   3.228   6.973  0.1440 -0.1350  0.1113
   11SAPS   H5X 1422   0.648   3.325   6.959 -0.5093 -0.6811 -1.3380
   11SAPS   H5Y 1423   0.810   3.237   6.952 -0.1173  3.1279 -0.3692
   11SAPS   C36 1424   0.678   3.184   7.122  0.1230 -0.1341 -0.1741
   11SAPS   H6X 1425   0.757   3.108   7.137  1.1004  0.7272 -0.8400
   11SAPS   H6Y 1426   0.572   3.153   7.132  0.6521 -1.5024  1.7841
   11SAPS   C37 1427   0.705   3.302   7.218 -0.2515  0.2598 -0.0669
   11SAPS   H7X 1428   0.625   3.378   7.213  1.5277  2.2464  0.5176
   11SAPS   H7Y 1429   0.797   3.349   7.177  1.9720 -2.6615  1.1340
   11SAPS   C38 1430   0.719   3.262   7.364  0.8867 -0.6411  0.3986
   11SAPS   H8X 1431   0.734   3.354   7.424 -0.8437  2.5303 -3.5282
   11SAPS   H8Y 1432   0.803   3.194   7.387 -0.6310 -2.8927 -0.3709
   11SAPS   C39 1433   0.603   3.177   7.426 -0.1657  0.1025 -0.5305
   11SAPS   H9X 1434   0.608   3.071   7.393  0.3893 -0.3458  0.9125
   11SAPS   H9Y 1435   0.505   3.207   7.384 -0.7529 -1.6838 -0.5313
   11SAPS  C310 1436   0.601   3.195   7.578 -0.3493  0.2511 -0.4554
   11SAPS  H10X 1437   0.605   3.302   7.609  2.0966  0.1936 -0.3509
   11SAPS  H10Y 1438   0.697   3.158   7.620  0.5606  0.8634 -1.9233
   11SAPS  C311 1439   0.489   3.116   7.640 -0.0055 -0.2495 -0.0177
   11SAPS  H11X 1440   0.497   3.008   7.612  0.7772  0.1675 -1.5441
   11SAPS  H11Y 1441   0.391   3.145   7.598 -0.6705 -0.5895  1.2688
   11SAPS  C312 1442   0.474   3.126   7.795  0.0313  0.4588  0.3487
   11SAPS  H12X 1443   0.371   3.097   7.823  0.0730 -0.3246 -0.2971
   11SAPS  H12Y 1444   0.474   3.234   7.824 -0.4875  0.1868  1.4009
   11SAPS  C313 1445   0.578   3.043   7.875 -0.1674 -0.0018  0.3335
   11SAPS  H13X 1446   0.673   3.069   7.825 -0.5613  2.7286  0.8263
   11SAPS  H13Y 1447   0.551   2.941   7.839 -1.5971  1.5231 -3.3628
   11SAPS  C314 1448   0.583   3.062   8.028 -0.0458 -0.2422  0.2400
   11SAPS  H14X 1449   0.483   3.074   8.074 -0.2644  0.6967 -0.4401
   11SAPS  H14Y 1450   0.636   3.156   8.053  1.2835 -0.5947 -1.1099
   11SAPS  C315 1451   0.643   2.948   8.110  0.3179  0.0780  0.2256
   11SAPS  H15X 1452   0.722   2.896   8.052 -0.1328 -0.8358  0.4008
   11SAPS  H15Y 1453   0.564   2.876   8.142  2.3918 -2.3711  0.1434
   11SAPS  C316 1454   0.720   3.001   8.234  0.9313  0.0289 -0.5790
   11SAPS  H16X 1455   0.659   3.068   8.297  1.5204  0.5935 -0.6019
   11SAPS  H16Y 1456   0.803   3.068   8.204  1.5662 -0.6143 -0.3047
   11SAPS  C317 1457   0.771   2.881   8.319 -0.3893  0.1927 -0.4311
   11SAPS  H17X 1458   0.852   2.834   8.259  1.1561  0.5207  1.2905
   11SAPS  H17Y 1459   0.690   2.806   8.319 -1.6044  1.4594 -1.3909
   11SAPS  C318 1460   0.820   2.905   8.464  0.6903 -0.8945 -0.2846
   11SAPS  H18X 1461   0.738   2.964   8.510  3.3758  3.0954 -0.1442
   11SAPS  H18Y 1462   0.909   2.971   8.467  0.8123 -1.0578 -0.3012
   11SAPS  H18Z 1463   0.845   2.811   8.516  0.6699  0.0026  1.4061
   12SAPS     N 1464   1.740   2.984   6.003  0.8781 -0.1493  0.0359
   12SAPS   HN1 1465   1.822   3.048   6.010  0.9050 -0.2263  0.4160
   12SAPS   HN2 1466   1.710   2.971   6.101  2.3585 -1.3292  0.3605
   12SAPS   HN3 1467   1.763   2.892   5.961  0.7936 -0.7023  1.1789
   12SAPS   C12 1468   1.625   3.041   5.931  0.2708 -0.2082 -0.7280
   12SAPS  H12A 1469   1.650   3.102   5.846  1.1958 -1.0137 -1.0542
   12SAPS   C13 1470   1.528   2.939   5.862 -0.4778 -0.4940 -0.2633
   12SAPS  O13A 1471   1.580   2.825   5.854  0.3006 -0.0085 -0.1980
   12SAPS  O13B 1472   1.458   2.979   5.767  0.0007  0.1333 -0.0063
   12SAPS   C11 1473   1.549   3.130   6.043  1.0198 -0.0780  0.0106
   12SAPS  H11A 1474   1.610   3.216   6.079 -0.5056  0.6667  0.9107
   12SAPS  H11B 1475   1.529   3.074   6.137 -0.0078  0.6701  0.2614
   12SAPS     P 1476   1.292   3.174   6.057  0.1952  0.3078  0.0494
   12SAPS   O13 1477   1.213   3.292   6.016  0.6595  0.8932  0.1409
   12SAPS   O14 1478   1.242   3.038   6.025  0.4836 -0.2959 -0.3119
   12SAPS   O12 1479   1.432   3.190   5.991  0.3852 -0.8767 -0.8911
   12SAPS   O11 1480   1.327   3.189   6.212 -0.0024 -0.2719  0.5098
   12SAPS    C1 1481   1.345   3.316   6.268  0.2014 -0.4041  0.1309
   12SAPS    HA 1482   1.444   3.313   6.319  0.9831  2.8393 -0.9398
   12SAPS    HB 1483   1.349   3.406   6.202  0.4264  0.3876  1.2099
   12SAPS    C2 1484   1.239   3.346   6.375  0.2428  0.1724  0.2687
   12SAPS    HS 1485   1.295   3.408   6.449  1.1347  1.1407 -1.1660
   12SAPS   O21 1486   1.179   3.235   6.437 -0.0810  0.0344 -0.0202
   12SAPS   C21 1487   1.257   3.175   6.530  0.3117  0.0743  0.4202
   12SAPS   O22 1488   1.372   3.213   6.558  0.6998  0.3799  0.4705
   12SAPS   C22 1489   1.179   3.066   6.602  0.4372  0.4313  0.3159
   12SAPS   H2R 1490   1.074   3.089   6.628  0.6326  0.3968  1.1577
   12SAPS   H2S 1491   1.170   2.980   6.531 -0.5695  0.7390  0.0510
   12SAPS    C3 1492   1.123   3.436   6.325 -0.0607  0.1715 -0.1043
   12SAPS    HX 1493   1.073   3.379   6.244  1.2427  2.4181 -2.6317
   12SAPS    HY 1494   1.172   3.525   6.280  0.2300 -0.7379 -1.6636
   12SAPS   O31 1495   1.037   3.466   6.436 -0.3928  0.5420 -0.1601
   12SAPS   C31 1496   1.073   3.545   6.528  0.2712 -1.1420  0.2494
   12SAPS   O32 1497   1.175   3.611   6.531  0.2228  0.1547  0.6169
   12SAPS   C32 1498   0.954   3.557   6.626 -0.0444 -0.0509  0.2785
   12SAPS   H2X 1499   0.857   3.523   6.583 -0.3734  1.9138 -0.6281
   12SAPS   H2Y 1500   0.936   3.665   6.642 -1.5537  0.0076 -1.4608
   12SAPS   C23 1501   1.253   3.014   6.728  0.4749  0.0865 -0.6617
   12SAPS   H3R 1502   1.275   3.106   6.787  0.8820  0.2406 -1.0454
   12SAPS   H3S 1503   1.343   2.963   6.687  0.6537 -1.9256  1.9359
   12SAPS   C24 1504   1.180   2.916   6.817  0.1165 -0.0270 -0.0980
   12SAPS   H4R 1505   1.246   2.902   6.905  1.6260  0.9331 -1.0383
   12SAPS   H4S 1506   1.167   2.814   6.775  1.6928 -1.9707  3.5991
   12SAPS   C25 1507   1.045   2.968   6.872 -0.8064 -0.1901 -0.0149
   12SAPS   H5R 1508   0.957   2.939   6.813 -0.8628  0.2919 -0.1692
   12SAPS   C26 1509   1.025   3.026   6.991 -0.0874  0.0379 -0.1447
   12SAPS   H6R 1510   0.920   3.056   7.005 -0.4883 -1.6021  0.5513
   12SAPS   C27 1511   1.129   3.063   7.096 -0.1640  0.0116 -0.7460
   12SAPS   H7R 1512   1.092   3.143   7.165  1.2920 -0.3697  0.5395
   12SAPS   H7S 1513   1.223   3.103   7.054  0.6685  0.0274  1.0482
   12SAPS   C28 1514   1.170   2.937   7.177  0.0266  0.1587  0.7784
   12SAPS   H8R 1515   1.184   2.854   7.107  2.8939  0.0374  1.3568
   12SAPS   C29 1516   1.204   2.927   7.304 -0.3119  0.3181  0.1216
   12SAPS   H9R 1517   1.242   2.836   7.353  1.1238  2.2544  2.8934
   12SAPS  C210 1518   1.203   3.035   7.405 -0.1030 -0.0306  0.1137
   12SAPS  H10R 1519   1.194   2.980   7.501 -2.2643  0.3818  0.1960
   12SAPS  H10S 1520   1.102   3.081   7.396 -0.4872 -0.7068  0.7888
   12SAPS  C211 1521   1.312   3.142   7.390  0.2076  0.5763  0.1988
   12SAPS  H11R 1522   1.305   3.195   7.295 -1.6112 -0.1790 -0.1268
   12SAPS  C212 1523   1.411   3.166   7.479 -0.0937  0.2565  0.0439
   12SAPS  H12R 1524   1.483   3.248   7.462  0.3569 -0.0284  0.5397
   12SAPS  C213 1525   1.422   3.096   7.617 -0.3680 -0.6080  0.6331
   12SAPS  H13R 1526   1.456   2.992   7.597 -0.2404 -0.3342 -0.6702
   12SAPS  H13S 1527   1.322   3.090   7.665 -0.8730  1.6986 -0.0159
   12SAPS  C214 1528   1.511   3.181   7.708 -0.0922  0.3736  0.9251
   12SAPS  H14R 1529   1.503   3.288   7.684 -2.2710  0.5140  2.0470
   12SAPS  C215 1530   1.592   3.136   7.805  0.2667 -0.0583  0.6786
   12SAPS  H15R 1531   1.649   3.203   7.870  0.9900  2.4296 -2.3091
   12SAPS  C216 1532   1.618   2.997   7.857  0.2161  0.5710 -0.6694
   12SAPS  H16R 1533   1.728   2.982   7.867  0.2127  1.6088  1.5764
   12SAPS  H16S 1534   1.573   2.927   7.783 -1.7284  1.6316 -0.5681
   12SAPS  C217 1535   1.560   2.963   7.997 -0.0017  0.6225  0.4132
   12SAPS  H17R 1536   1.607   3.021   8.079  1.7636  1.7113 -1.2852
   12SAPS  H17S 1537   1.587   2.858   8.019 -1.2830 -0.3643 -2.2490
   12SAPS  C218 1538   1.398   2.982   7.998  0.3336 -0.2284  0.5181
   12SAPS  H18R 1539   1.357   2.922   7.913  0.4985  1.3125 -0.7003
   12SAPS  H18S 1540   1.383   3.088   7.969  0.5423 -0.4097 -0.3002
   12SAPS  C219 1541   1.343   2.931   8.129 -0.6307  0.6111 -0.1394
   12SAPS  H19R 1542   1.375   2.973   8.227  1.5512 -2.1057  0.4441
   12SAPS  H19S 1543   1.368   2.823   8.134  0.6535  0.9400  2.1954
   12SAPS  C220 1544   1.189   2.939   8.121  0.0161 -0.4370 -0.2039
   12SAPS  H20R 1545   1.156   3.043   8.099  0.0106  0.1361  2.2561
   12SAPS  H20S 1546   1.136   2.917   8.216 -0.1322 -0.3809 -0.2717
   12SAPS  H20T 1547   1.142   2.873   8.045 -0.5232 -0.5143  0.1875
   12SAPS   C33 1548   0.963   3.488   6.763  0.2298 -0.1580 -0.0354
   12SAPS   H3X 1549   0.933   3.381   6.771 -2.4204  0.4429 -0.9654
   12SAPS   H3Y 1550   0.873   3.530   6.813  0.8273  1.1854 -0.0506
   12SAPS   C34 1551   1.080   3.528   6.843  0.3809  0.1104  0.0992
   12SAPS   H4X 1552   1.067   3.621   6.903 -0.9070 -1.3043  2.1482
   12SAPS   H4Y 1553   1.180   3.534   6.796  1.7347 -3.9668  1.9681
   12SAPS   C35 1554   1.101   3.413   6.954  0.2374  0.0378  0.5744
   12SAPS   H5X 1555   1.097   3.311   6.908  0.0772  0.7121 -0.9749
   12SAPS   H5Y 1556   1.012   3.417   7.019 -0.5642  0.5066 -0.5144
   12SAPS   C36 1557   1.238   3.422   7.029 -0.2785 -0.2125  0.4020
   12SAPS   H6X 1558   1.324   3.388   6.967 -1.0673 -1.9774  0.2114
   12SAPS   H6Y 1559   1.222   3.340   7.103 -2.1719 -2.8838 -2.7099
   12SAPS   C37 1560   1.256   3.559   7.095  0.1935  0.1631  0.6343
   12SAPS   H7X 1561   1.174   3.582   7.167  1.9285  2.8398  1.8802
   12SAPS   H7Y 1562   1.257   3.643   7.023 -0.9988  1.3377  1.9350
   12SAPS   C38 1563   1.372   3.537   7.190 -0.1427 -0.2789  0.4575
   12SAPS   H8X 1564   1.471   3.535   7.140  0.0282  0.7055  0.7379
   12SAPS   H8Y 1565   1.360   3.436   7.237  2.2734 -1.2924 -0.9150
   12SAPS   C39 1566   1.389   3.651   7.302  0.3062  0.1909 -0.4756
   12SAPS   H9X 1567   1.308   3.640   7.377 -0.6133 -0.6892 -1.5563
   12SAPS   H9Y 1568   1.363   3.747   7.253 -1.3122  0.2005  0.3316
   12SAPS  C310 1569   1.523   3.644   7.376 -0.3264 -0.6720  0.1390
   12SAPS  H10X 1570   1.591   3.731   7.363 -0.4820 -0.5245  0.3110
   12SAPS  H10Y 1571   1.584   3.562   7.332  0.6279 -0.2900  0.7225
   12SAPS  C311 1572   1.503   3.630   7.527 -0.3227 -0.0366  0.0447
   12SAPS  H11X 1573   1.431   3.546   7.541  0.0882 -0.2341  1.0480
   12SAPS  H11Y 1574   1.441   3.711   7.572 -1.1630  0.2302 -1.5123
   12SAPS  C312 1575   1.630   3.613   7.610 -0.9433  0.4985  0.4223
   12SAPS  H12X 1576   1.708   3.677   7.565  0.6769 -3.1425 -2.5152
   12SAPS  H12Y 1577   1.665   3.508   7.599 -0.7512  0.0786  4.0784
   12SAPS  C313 1578   1.597   3.651   7.759  0.4947  0.5294 -0.1143
   12SAPS  H13X 1579   1.522   3.732   7.771 -0.0451 -0.0782  0.6956
   12SAPS  H13Y 1580   1.693   3.678   7.808 -0.5517 -0.9025  3.0088
   12SAPS  C314 1581   1.549   3.528   7.847  0.3053  0.0691 -0.9121
   12SAPS  H14X 1582   1.609   3.437   7.828 -0.8091 -1.2769  1.5431
   12SAPS  H14Y 1583   1.443   3.506   7.823  0.2398 -0.8177  0.1639
   12SAPS  C315 1584   1.562   3.555   8.000 -0.1868  0.1248  0.3159
   12SAPS  H15X 1585   1.496   3.637   8.035 -0.1540 -0.5856  2.1701
   12SAPS  H15Y 1586   1.665   3.594   8.012 -0.4348  0.2706  2.4683
   12SAPS  C316 1587   1.534   3.430   8.087  0.0592 -0.4181  0.4333
   12SAPS  H16X 1588   1.546   3.459   8.193  0.6300  1.3808 -0.0838
   12SAPS  H16Y 1589   1.598   3.344   8.059  1.4400  0.2727  1.3577
   12SAPS  C317 1590   1.388   3.385   8.084 -0.1988 -0.0504  0.0449
   12SAPS  H17X 1591   1.384   3.341   7.982 -1.3146  0.5395 -0.1836
   12SAPS  H17Y 1592   1.320   3.472   8.085  0.4422  0.6661 -3.6549
   12SAPS  C318 1593   1.347   3.300   8.197  0.3760 -0.6641 -0.4512
   12SAPS  H18X 1594   1.241   3.270   8.205  0.6493 -1.3313  0.9873
   12SAPS  H18Y 1595   1.361   3.347   8.297 -1.1193 -2.2554  0.5531
   12SAPS  H18Z 1596   1.411   3.210   8.212  2.9191  1.0808 -0.1412
   13SAPS     N 1597   1.787   0.734   5.839  0.0610 -0.1605  0.7587
   13SAPS   HN1 1598   1.856   0.701   5.910 -0.1451  1.0691  1.5729
   13SAPS   HN2 1599   1.701   0.677   5.848  0.3542 -0.6647  0.4205
   13SAPS   HN3 1600   1.835   0.717   5.748  0.2316  2.4220  0.2641
   13SAPS   C12 1601   1.744   0.870   5.864 -0.0537  0.1892  0.2704
   13SAPS  H12A 1602   1.836   0.919   5.836  2.3596 -3.3990  1.1618
   13SAPS   C13 1603   1.626   0.910   5.773 -0.3534 -0.9130 -0.4698
   13SAPS  O13A 1604   1.588   0.833   5.682  0.0643 -0.1711 -0.3199
   13SAPS  O13B 1605   1.594   1.030   5.787  0.0997  0.2691 -0.9400
   13SAPS   C11 1606   1.690   0.886   6.012 -0.8302 -0.1219 -0.5205
   13SAPS  H11A 1607   1.621   0.802   6.032  0.3150 -0.9410  0.0886
   13SAPS  H11B 1608   1.641   0.985   6.006  0.1512  0.3831 -0.4028
   13SAPS     P 1609   1.896   0.981   6.151 -0.1217  0.1520  0.1027
   13SAPS   O13 1610   2.033   0.963   6.091  0.6989 -0.4059 -0.7654
   13SAPS   O14 1611   1.829   1.109   6.119 -0.3554  0.3715  0.4118
   13SAPS   O12 1612   1.802   0.868   6.096 -0.0600 -0.2222 -0.4505
   13SAPS   O11 1613   1.902   0.968   6.309  0.4819 -0.0005  0.2678
   13SAPS    C1 1614   1.788   0.912   6.371 -0.3584  0.1994  0.3236
   13SAPS    HA 1615   1.712   0.988   6.397 -0.9523 -0.2572 -0.0427
   13SAPS    HB 1616   1.737   0.834   6.311 -0.2966 -0.6953  1.3886
   13SAPS    C2 1617   1.834   0.833   6.498 -0.4949  0.5164 -0.3690
   13SAPS    HS 1618   1.749   0.768   6.527  0.9989 -2.0567 -1.4168
   13SAPS   O21 1619   1.885   0.930   6.601  0.3555  0.4499 -0.1816
   13SAPS   C21 1620   1.782   0.972   6.679 -0.0327  0.8924 -0.1892
   13SAPS   O22 1621   1.668   0.925   6.678 -0.3351  0.2506  0.2815
   13SAPS   C22 1622   1.826   1.090   6.765  0.0604  0.4910  0.6854
   13SAPS   H2R 1623   1.915   1.137   6.719  0.7979 -3.3808 -2.4241
   13SAPS   H2S 1624   1.738   1.157   6.775 -2.0468 -1.8551 -0.7664
   13SAPS    C3 1625   1.948   0.727   6.470  0.4872  0.3547  0.0054
   13SAPS    HX 1626   2.032   0.782   6.423  0.0056 -0.5112 -1.9713
   13SAPS    HY 1627   1.922   0.663   6.382  0.8442 -0.0273  0.1723
   13SAPS   O31 1628   2.002   0.653   6.581 -0.4555 -0.3862 -0.4506
   13SAPS   C31 1629   1.929   0.550   6.613 -0.3549 -0.6025 -0.1725
   13SAPS   O32 1630   1.830   0.513   6.556 -0.3952 -0.2096 -0.0577
   13SAPS   C32 1631   1.972   0.507   6.755 -0.1378 -0.0646 -0.3892
   13SAPS   H2X 1632   2.082   0.511   6.771 -0.2103 -2.7134  1.4027
   13SAPS   H2Y 1633   1.928   0.407   6.774  1.3847 -0.5718  0.6241
   13SAPS   C23 1634   1.872   1.039   6.907 -0.6463  0.2021  0.3383
   13SAPS   H3R 1635   1.951   0.964   6.885 -1.3165 -0.8122  1.2424
   13SAPS   H3S 1636   1.790   0.989   6.963 -0.2039  0.7913  1.5385
   13SAPS   C24 1637   1.934   1.147   6.998 -0.2499  0.1191  0.8274
   13SAPS   H4R 1638   2.027   1.178   6.946  0.6628 -2.8261  0.5078
   13SAPS   H4S 1639   1.971   1.101   7.092  0.0331  0.6372  0.9740
   13SAPS   C25 1640   1.824   1.247   7.027 -1.3740  0.3804  0.8105
   13SAPS   H5R 1641   1.763   1.280   6.941 -0.7428 -0.6963 -0.0662
   13SAPS   C26 1642   1.789   1.294   7.155  0.2164 -0.1804 -0.0940
   13SAPS   H6R 1643   1.701   1.359   7.169 -0.4079 -1.1745  0.6990
   13SAPS   C27 1644   1.859   1.256   7.280  0.4043 -0.0461 -0.3357
   13SAPS   H7R 1645   1.844   1.334   7.358  0.6734 -0.8126  0.4975
   13SAPS   H7S 1646   1.970   1.255   7.280  0.5417  2.6691  2.0041
   13SAPS   C28 1647   1.798   1.131   7.339  0.2538  0.0548  0.4396
   13SAPS   H8R 1648   1.778   1.055   7.262 -2.0553  0.9815  0.0445
   13SAPS   C29 1649   1.786   1.093   7.467  0.8120  0.3328 -0.1675
   13SAPS   H9R 1650   1.745   0.995   7.494 -0.6194  0.9056 -0.1693
   13SAPS  C210 1651   1.826   1.183   7.585  0.6808  0.9275  0.3182
   13SAPS  H10R 1652   1.736   1.227   7.634  0.7848  1.3953  0.0903
   13SAPS  H10S 1653   1.875   1.275   7.547  1.2270 -0.2693 -1.9866
   13SAPS  C211 1654   1.914   1.101   7.680  0.3907  0.2174  0.1837
   13SAPS  H11R 1655   2.000   1.054   7.631  0.6222 -2.3160  2.7429
   13SAPS  C212 1656   1.897   1.084   7.815 -0.4693 -0.2393 -0.0291
   13SAPS  H12R 1657   1.982   1.034   7.866  0.0753  1.8483  1.2252
   13SAPS  C213 1658   1.788   1.136   7.908  0.7431 -0.0954 -0.0474
   13SAPS  H13R 1659   1.757   1.050   7.971 -1.2208  0.4765 -0.1500
   13SAPS  H13S 1660   1.693   1.146   7.851  0.6371 -3.3363 -0.6025
   13SAPS  C214 1661   1.836   1.257   7.977 -0.0112  0.3535  0.0041
   13SAPS  H14R 1662   1.857   1.330   7.897 -2.0937  0.1057 -0.8319
   13SAPS  C215 1663   1.859   1.280   8.107  0.4519  0.6645  0.0770
   13SAPS  H15R 1664   1.901   1.379   8.133  0.3111  0.7367  0.0317
   13SAPS  C216 1665   1.835   1.195   8.225 -0.2341  0.3606  0.1630
   13SAPS  H16R 1666   1.928   1.169   8.280  1.1057  0.3344 -1.9872
   13SAPS  H16S 1667   1.799   1.092   8.206  1.1131  0.1611 -1.6229
   13SAPS  C217 1668   1.743   1.269   8.316  0.1720  0.0821  0.1206
   13SAPS  H17R 1669   1.641   1.281   8.273 -0.5670  0.8250  1.9914
   13SAPS  H17S 1670   1.785   1.368   8.342  0.3130 -0.0073  0.2320
   13SAPS  C218 1671   1.732   1.193   8.448 -0.0671  0.7760  0.1828
   13SAPS  H18R 1672   1.828   1.148   8.482 -1.5987 -3.6804 -0.7419
   13SAPS  H18S 1673   1.677   1.102   8.415  0.2635  1.4867 -2.6250
   13SAPS  C219 1674   1.650   1.262   8.560 -0.2311 -0.3693  0.3239
   13SAPS  H19R 1675   1.619   1.173   8.619  2.2857  0.5506  3.3059
   13SAPS  H19S 1676   1.562   1.312   8.513 -0.5086 -2.2069 -1.1961
   13SAPS  C220 1677   1.751   1.352   8.637 -0.2189  0.6352  0.2076
   13SAPS  H20R 1678   1.704   1.435   8.694  1.4600  1.3877  0.5712
   13SAPS  H20S 1679   1.828   1.399   8.573  1.5597  0.8812  2.3829
   13SAPS  H20T 1680   1.813   1.296   8.711 -1.3388  1.0609  1.5095
   13SAPS   C33 1681   1.920   0.609   6.857  0.3367 -0.4232 -0.7117
   13SAPS   H3X 1682   1.813   0.638   6.843  0.3592 -0.4095 -0.8507
   13SAPS   H3Y 1683   1.997   0.687   6.841  1.6722 -1.7800 -1.1130
   13SAPS   C34 1684   1.910   0.563   7.001 -0.3490 -0.2170 -0.0939
   13SAPS   H4X 1685   2.014   0.530   7.022  0.3350  0.9344 -1.5079
   13SAPS   H4Y 1686   1.846   0.472   7.006  2.0284 -2.0246 -0.4112
   13SAPS   C35 1687   1.861   0.678   7.091  0.0557  0.1671 -0.2920
   13SAPS   H5X 1688   1.756   0.701   7.062  0.2715 -1.0435 -2.1834
   13SAPS   H5Y 1689   1.917   0.772   7.074 -0.6766  0.4655 -1.1320
   13SAPS   C36 1690   1.849   0.622   7.237  0.0763 -0.3050  0.6557
   13SAPS   H6X 1691   1.946   0.569   7.248 -0.9890 -2.4141  0.3189
   13SAPS   H6Y 1692   1.771   0.543   7.242  0.2820 -0.5882 -0.4471
   13SAPS   C37 1693   1.854   0.724   7.353 -0.0733  0.1645 -0.0690
   13SAPS   H7X 1694   1.755   0.766   7.381  0.7139  1.5365  0.7303
   13SAPS   H7Y 1695   1.906   0.820   7.336  0.8871 -0.1442  1.0881
   13SAPS   C38 1696   1.916   0.662   7.482 -0.1680  0.8199  0.5996
   13SAPS   H8X 1697   2.022   0.650   7.450  0.0969  3.0078  0.5083
   13SAPS   H8Y 1698   1.870   0.565   7.508 -1.0688  1.3721  1.1277
   13SAPS   C39 1699   1.906   0.762   7.598 -0.9202 -0.4180 -0.4217
   13SAPS   H9X 1700   1.798   0.780   7.616 -0.9398  0.5250 -1.3725
   13SAPS   H9Y 1701   1.958   0.859   7.582  1.2403 -1.1796  1.3993
   13SAPS  C310 1702   1.944   0.713   7.743 -0.3023 -0.1611 -0.0864
   13SAPS  H10X 1703   1.902   0.610   7.747  0.8123 -0.6464 -0.4339
   13SAPS  H10Y 1704   1.896   0.774   7.823 -1.2290 -1.0503  0.0633
   13SAPS  C311 1705   2.092   0.705   7.764  0.2911  0.6781  0.5850
   13SAPS  H11X 1706   2.142   0.804   7.767  0.4386  0.6602 -0.5623
   13SAPS  H11Y 1707   2.138   0.651   7.678 -1.5845  0.5410 -0.3913
   13SAPS  C312 1708   2.115   0.629   7.892  0.6158 -0.7219  0.0974
   13SAPS  H12X 1709   2.082   0.524   7.875 -0.1425 -0.3664 -0.6877
   13SAPS  H12Y 1710   2.051   0.666   7.975  0.5457 -1.6013  0.4514
   13SAPS  C313 1711   2.258   0.628   7.946  0.2444  0.3692 -0.2924
   13SAPS  H13X 1712   2.289   0.731   7.973  0.1412  0.3222  0.0127
   13SAPS  H13Y 1713   2.329   0.591   7.869 -1.2573 -1.5683 -0.8286
   13SAPS  C314 1714   2.273   0.559   8.084 -0.5333  0.3253  0.0712
   13SAPS  H14X 1715   2.274   0.450   8.066  1.8659  0.2658  0.2322
   13SAPS  H14Y 1716   2.186   0.587   8.147  0.9887 -0.7741  2.8280
   13SAPS  C315 1717   2.399   0.612   8.154 -0.5826 -0.0387 -0.3582
   13SAPS  H15X 1718   2.396   0.722   8.165  0.7616  0.1496 -1.5821
   13SAPS  H15Y 1719   2.479   0.592   8.079  1.0160  1.1500  0.9769
   13SAPS  C316 1720   2.443   0.546   8.289  0.3605 -0.2376  0.4447
   13SAPS  H16X 1721   2.537   0.594   8.323  0.4102  0.9004 -1.2170
   13SAPS  H16Y 1722   2.460   0.439   8.267  0.6111  0.1689 -1.5497
   13SAPS  C317 1723   2.342   0.573   8.396 -0.2537  0.1111  0.0711
   13SAPS  H17X 1724   2.246   0.613   8.356  0.2444 -0.6557 -2.0439
   13SAPS  H17Y 1725   2.384   0.653   8.460  2.4391  0.8671 -2.4170
   13SAPS  C318 1726   2.318   0.455   8.484  1.0004 -0.0651 -0.2292
   13SAPS  H18X 1727   2.227   0.462   8.546  0.8205  0.4162 -0.5399
   13SAPS  H18Y 1728   2.409   0.437   8.545  2.0299 -0.3927 -1.8002
   13SAPS  H18Z 1729   2.305   0.362   8.425  1.4383 -2.0357  2.5943
   14SAPS     N 1730   1.818   2.678   5.528 -0.2023 -0.3852 -0.2661
   14SAPS   HN1 1731   1.912   2.686   5.484  0.5482  0.2857  1.3915
   14SAPS   HN2 1732   1.756   2.651   5.448 -1.4302  0.4878  0.3517
   14SAPS   HN3 1733   1.790   2.773   5.561 -1.7438 -0.6465 -0.7163
   14SAPS   C12 1734   1.821   2.582   5.642 -0.4834  0.3258  0.2483
   14SAPS  H12A 1735   1.764   2.627   5.722  0.2013 -0.2354  1.0665
   14SAPS   C13 1736   1.757   2.438   5.615 -0.1148 -0.5899 -0.6304
   14SAPS  O13A 1737   1.719   2.404   5.502 -0.0681 -0.4705  0.4034
   14SAPS  O13B 1738   1.730   2.368   5.720  0.3390 -0.2696  0.4923
   14SAPS   C11 1739   1.962   2.582   5.695 -0.5112  0.4423  0.3425
   14SAPS  H11A 1740   2.043   2.550   5.626  1.1908  1.9123  1.5810
   14SAPS  H11B 1741   1.961   2.514   5.783 -1.0754  0.1205  0.0956
   14SAPS     P 1742   1.998   2.782   5.861 -0.1240  0.5210 -0.0749
   14SAPS   O13 1743   2.038   2.924   5.851 -0.1547  0.6830 -0.2646
   14SAPS   O14 1744   1.866   2.756   5.926  0.0828 -0.3695  0.1042
   14SAPS   O12 1745   1.992   2.720   5.728 -0.3595  0.1983  1.4021
   14SAPS   O11 1746   2.111   2.699   5.930 -0.0381 -0.5332  0.2092
   14SAPS    C1 1747   2.085   2.592   6.017 -0.2067 -0.2698 -0.7620
   14SAPS    HA 1748   2.009   2.523   5.973 -2.0511  1.4197 -0.3580
   14SAPS    HB 1749   2.178   2.533   6.035 -0.7217 -0.8076  0.1861
   14SAPS    C2 1750   2.034   2.631   6.162 -0.0056  0.2849  1.0894
   14SAPS    HS 1751   1.933   2.677   6.163  0.7627  2.0831  1.4106
   14SAPS   O21 1752   2.134   2.718   6.220  0.1136 -0.6043 -0.2491
   14SAPS   C21 1753   2.095   2.832   6.291 -1.0781  1.0660 -0.2053
   14SAPS   O22 1754   1.979   2.858   6.308  0.0861 -0.0214  0.1489
   14SAPS   C22 1755   2.219   2.907   6.339  0.9261 -0.8525 -0.2579
   14SAPS   H2R 1756   2.273   2.840   6.410  0.5481 -0.2176  0.6491
   14SAPS   H2S 1757   2.285   2.924   6.252  1.1742  1.7707  0.3732
   14SAPS    C3 1758   2.022   2.498   6.253 -0.3122 -0.8070  0.9126
   14SAPS    HX 1759   2.127   2.466   6.274 -0.6603 -1.7784  1.1957
   14SAPS    HY 1760   1.972   2.427   6.184  0.7136  2.3184 -3.5119
   14SAPS   O31 1761   1.952   2.528   6.378 -0.3422 -0.6469 -0.1281
   14SAPS   C31 1762   1.821   2.511   6.372 -0.5246  0.1897 -0.1715
   14SAPS   O32 1763   1.754   2.474   6.278 -0.2541 -0.3185  0.0117
   14SAPS   C32 1764   1.769   2.509   6.515  0.2900 -0.0625  0.0581
   14SAPS   H2X 1765   1.791   2.603   6.571  1.8198 -0.5294  0.2693
   14SAPS   H2Y 1766   1.807   2.420   6.570 -2.2294 -1.4438 -0.2818
   14SAPS   C23 1767   2.189   3.048   6.406 -0.3784 -0.0072  0.2983
   14SAPS   H3R 1768   2.121   3.103   6.338  3.1216  1.1727 -2.5767
   14SAPS   H3S 1769   2.283   3.108   6.401 -0.7345  0.4649 -1.1331
   14SAPS   C24 1770   2.129   3.021   6.549  0.1771  0.3659  0.0058
   14SAPS   H4R 1771   2.208   2.995   6.622  0.9615 -0.3967 -1.0906
   14SAPS   H4S 1772   2.071   2.927   6.540  1.2054 -0.3458  0.6700
   14SAPS   C25 1773   2.041   3.134   6.586 -0.0322 -0.2846 -0.4448
   14SAPS   H5R 1774   1.955   3.159   6.522  0.1446 -1.9968 -1.4058
   14SAPS   C26 1775   2.049   3.204   6.700  0.1576 -0.0388 -0.0565
   14SAPS   H6R 1776   1.987   3.294   6.689 -0.2728 -0.2020  0.9611
   14SAPS   C27 1777   2.153   3.189   6.808  0.2171  0.2521  0.1327
   14SAPS   H7R 1778   2.246   3.237   6.772  0.4200 -0.3856 -0.2079
   14SAPS   H7S 1779   2.171   3.082   6.830  0.9482  0.6889  1.8092
   14SAPS   C28 1780   2.129   3.276   6.930 -0.4561 -0.3442 -0.1303
   14SAPS   H8R 1781   2.121   3.383   6.906  0.9373 -0.2752 -0.3834
   14SAPS   C29 1782   2.124   3.234   7.058  0.3769  0.0298 -0.3948
   14SAPS   H9R 1783   2.124   3.319   7.127  0.0662  1.2804 -1.8844
   14SAPS  C210 1784   2.126   3.096   7.115  1.1898 -0.1857  0.0726
   14SAPS  H10R 1785   2.155   3.098   7.222 -0.6492  0.4486  0.5925
   14SAPS  H10S 1786   2.205   3.037   7.064  0.2634 -3.9983  2.6115
   14SAPS  C211 1787   1.998   3.027   7.099 -0.2479  0.1206  0.8046
   14SAPS  H11R 1788   1.992   2.961   7.011 -0.9608  0.1069  0.8549
   14SAPS  C212 1789   1.888   3.036   7.170  0.9188  0.1241 -0.8601
   14SAPS  H12R 1790   1.801   2.984   7.125 -0.1698  0.6020  0.6163
   14SAPS  C213 1791   1.862   3.125   7.289 -0.1722  0.4427 -0.9166
   14SAPS  H13R 1792   1.919   3.220   7.298  0.6831 -0.1494  0.2249
   14SAPS  H13S 1793   1.891   3.063   7.377  1.5402  0.3365 -1.5169
   14SAPS  C214 1794   1.714   3.170   7.306  0.2940  0.3889 -0.5810
   14SAPS  H14R 1795   1.672   3.109   7.387 -0.9466  1.1817 -0.6159
   14SAPS  C215 1796   1.640   3.245   7.220 -0.5369 -0.0514  0.4850
   14SAPS  H15R 1797   1.531   3.246   7.240 -0.4932  1.7654  0.8588
   14SAPS  C216 1798   1.673   3.310   7.086  0.3844  0.6970 -0.3757
   14SAPS  H16R 1799   1.781   3.308   7.059  0.6915 -0.6489  0.8196
   14SAPS  H16S 1800   1.649   3.417   7.101 -2.8260 -0.1145  1.2028
   14SAPS  C217 1801   1.595   3.264   6.964  0.1893  1.1361  0.5222
   14SAPS  H17R 1802   1.577   3.352   6.899 -3.0108 -0.6453 -1.2344
   14SAPS  H17S 1803   1.498   3.216   6.986  1.2022 -2.0211 -1.1887
   14SAPS  C218 1804   1.669   3.160   6.880 -0.3208 -0.0880 -0.0103
   14SAPS  H18R 1805   1.708   3.081   6.947 -4.3887 -1.1647  1.3626
   14SAPS  H18S 1806   1.752   3.202   6.818 -0.4405  0.9454  0.5008
   14SAPS  C219 1807   1.581   3.068   6.786  0.4563 -0.4411 -0.1085
   14SAPS  H19R 1808   1.548   3.124   6.696  0.5799 -0.9242 -0.4505
   14SAPS  H19S 1809   1.495   3.027   6.845 -0.8029  0.1721 -1.4515
   14SAPS  C220 1810   1.658   2.944   6.741 -0.0801 -0.4860 -0.6143
   14SAPS  H20R 1811   1.736   2.981   6.671 -1.7150  1.1929 -1.6466
   14SAPS  H20S 1812   1.597   2.878   6.675 -0.1170 -1.5360  0.4349
   14SAPS  H20T 1813   1.692   2.881   6.825 -2.2284  0.8404  1.3693
   14SAPS   C33 1814   1.617   2.500   6.526 -0.2314 -0.1896  1.1352
   14SAPS   H3X 1815   1.590   2.396   6.499 -1.8211  0.1343  1.3615
   14SAPS   H3Y 1816   1.556   2.557   6.453 -0.9372 -2.6096 -0.2942
   14SAPS   C34 1817   1.558   2.525   6.667  0.2803  0.3532  0.1233
   14SAPS   H4X 1818   1.588   2.623   6.709 -1.1686  0.0585  1.9845
   14SAPS   H4Y 1819   1.602   2.449   6.735  1.0902  1.4322  0.8317
   14SAPS   C35 1820   1.405   2.522   6.664 -0.3360  0.2390  0.5502
   14SAPS   H5X 1821   1.371   2.434   6.605  0.5782  0.2170  0.0480
   14SAPS   H5Y 1822   1.372   2.615   6.613 -1.6351  0.8123  2.3046
   14SAPS   C36 1823   1.345   2.519   6.809 -0.1896 -0.4513  0.1980
   14SAPS   H6X 1824   1.406   2.441   6.860  2.6815  1.0474 -0.7099
   14SAPS   H6Y 1825   1.235   2.508   6.815 -0.6878  2.8470 -0.8171
   14SAPS   C37 1826   1.390   2.644   6.897 -0.0282  0.0340  0.1627
   14SAPS   H7X 1827   1.299   2.700   6.927  1.1851  0.8464  2.6141
   14SAPS   H7Y 1828   1.438   2.726   6.840 -0.5710  1.0972  1.1759
   14SAPS   C38 1829   1.458   2.594   7.024  0.1638  0.3386  0.3158
   14SAPS   H8X 1830   1.551   2.534   7.010  0.3392  0.3433  1.3346
   14SAPS   H8Y 1831   1.387   2.537   7.088 -0.9419 -0.3022 -1.4041
   14SAPS   C39 1832   1.517   2.717   7.106  0.0929  0.2200  0.0714
   14SAPS   H9X 1833   1.432   2.784   7.130  1.8843  3.0283 -0.9741
   14SAPS   H9Y 1834   1.577   2.785   7.041  0.8025  0.0019  0.4869
   14SAPS  C310 1835   1.603   2.666   7.221 -0.1524 -0.8482  0.2240
   14SAPS  H10X 1836   1.697   2.619   7.185  0.4185  0.1207  0.4109
   14SAPS  H10Y 1837   1.559   2.580   7.277  1.0773 -1.2932  0.5350
   14SAPS  C311 1838   1.621   2.780   7.322  0.1009  0.1682 -0.7112
   14SAPS  H11X 1839   1.523   2.809   7.366 -0.1364 -0.6075 -0.7244
   14SAPS  H11Y 1840   1.657   2.878   7.283  1.7802 -0.6772 -1.3703
   14SAPS  C312 1841   1.728   2.741   7.435  1.0046 -0.5230 -0.8619
   14SAPS  H12X 1842   1.830   2.739   7.391  1.5658  1.0308  0.2636
   14SAPS  H12Y 1843   1.709   2.639   7.477 -2.1637 -0.6968 -2.4358
   14SAPS  C313 1844   1.735   2.840   7.551  0.5889  0.3244 -0.4172
   14SAPS  H13X 1845   1.658   2.824   7.629  1.9377 -0.0185  0.9042
   14SAPS  H13Y 1846   1.730   2.941   7.507  0.3592 -0.2665 -1.7907
   14SAPS  C314 1847   1.865   2.831   7.622 -0.5826  0.2362 -0.1166
   14SAPS  H14X 1848   1.899   2.931   7.658 -1.9089 -0.0476  2.1161
   14SAPS  H14Y 1849   1.948   2.812   7.551  1.1677  0.4151  1.7788
   14SAPS  C315 1850   1.859   2.720   7.733 -0.2977 -0.3790  0.3724
   14SAPS  H15X 1851   1.829   2.626   7.682  0.2056 -0.2227 -0.2337
   14SAPS  H15Y 1852   1.773   2.742   7.799 -1.7952 -0.5188 -1.4479
   14SAPS  C316 1853   1.997   2.697   7.805  0.2189 -0.2830 -0.7207
   14SAPS  H16X 1854   2.075   2.763   7.761  1.1775  0.1526  1.5025
   14SAPS  H16Y 1855   2.033   2.596   7.774 -1.2835 -0.7020 -1.1723
   14SAPS  C317 1856   1.988   2.704   7.957  0.5895 -0.8001  0.0885
   14SAPS  H17X 1857   2.091   2.674   7.986  0.1481 -3.5037 -0.8628
   14SAPS  H17Y 1858   1.912   2.629   7.987 -0.7334  1.2268  2.1389
   14SAPS  C318 1859   1.964   2.840   8.017 -0.1744  0.1659  0.5938
   14SAPS  H18X 1860   1.860   2.874   8.000 -0.0923 -0.1301 -0.6249
   14SAPS  H18Y 1861   2.025   2.915   7.961 -0.5440  0.1116  0.1114
   14SAPS  H18Z 1862   1.982   2.853   8.126 -1.1545  2.0858  0.5804
   15SAPS     N 1863   2.359   2.633   5.779 -0.3895 -0.0347 -0.2975
   15SAPS   HN1 1864   2.316   2.723   5.751  0.0866 -0.0348 -1.0715
   15SAPS   HN2 1865   2.325   2.621   5.876 -2.6489 -1.2328 -1.1606
   15SAPS   HN3 1866   2.463   2.634   5.778 -0.3634  0.8930  1.0418
   15SAPS   C12 1867   2.317   2.522   5.697 -0.3010 -0.2496 -0.4802
   15SAPS  H12A 1868   2.210   2.526   5.711 -0.1205  2.3539  0.7661
   15SAPS   C13 1869   2.339   2.545   5.547  0.1820  0.1811 -0.0664
   15SAPS  O13A 1870   2.412   2.642   5.512  0.1818  0.0136  0.1089
   15SAPS  O13B 1871   2.272   2.483   5.462  0.1691  0.3867  0.0224
   15SAPS   C11 1872   2.389   2.392   5.746  0.5697  0.3579  0.0075
   15SAPS  H11A 1873   2.498   2.412   5.732  0.7186 -1.2609 -1.4444
   15SAPS  H11B 1874   2.360   2.310   5.677 -1.0609  0.9548 -0.0665
   15SAPS     P 1875   2.253   2.272   5.943  0.3997 -0.2849 -0.0618
   15SAPS   O13 1876   2.128   2.286   5.873 -0.0787  0.4124 -0.0177
   15SAPS   O14 1877   2.300   2.135   5.968  0.8141  0.3575  0.6004
   15SAPS   O12 1878   2.369   2.359   5.883  0.3671  0.3684 -0.0196
   15SAPS   O11 1879   2.232   2.334   6.087 -0.3516 -0.4797 -0.9535
   15SAPS    C1 1880   2.337   2.331   6.190 -0.0316 -0.7191 -0.3537
   15SAPS    HA 1881   2.438   2.329   6.144  1.1691  0.2234  2.0499
   15SAPS    HB 1882   2.335   2.429   6.243 -0.2698 -0.3468 -1.0380
   15SAPS    C2 1883   2.315   2.219   6.295  0.1127  0.4209 -0.2044
   15SAPS    HS 1884   2.217   2.174   6.267 -1.3416  1.5729  2.6533
   15SAPS   O21 1885   2.298   2.278   6.428 -0.4935 -0.2335 -0.2435
   15SAPS   C21 1886   2.220   2.217   6.509  0.1343  0.6637  0.2663
   15SAPS   O22 1887   2.169   2.107   6.489 -0.4708  0.1564  0.5379
   15SAPS   C22 1888   2.210   2.299   6.636 -0.4665 -0.4527  0.0879
   15SAPS   H2R 1889   2.139   2.246   6.702 -0.7817  0.0825  0.1875
   15SAPS   H2S 1890   2.315   2.305   6.674  0.2330  0.5435 -1.8349
   15SAPS    C3 1891   2.425   2.112   6.295  0.2874  0.7564 -0.1384
   15SAPS    HX 1892   2.458   2.100   6.190  0.0486 -0.4550 -0.0982
   15SAPS    HY 1893   2.377   2.016   6.325 -1.4719  1.3709 -0.8795
   15SAPS   O31 1894   2.535   2.139   6.387  0.3089  0.5320  0.7566
   15SAPS   C31 1895   2.612   2.032   6.411 -0.5852  0.3291 -0.4647
   15SAPS   O32 1896   2.600   1.918   6.365 -0.0487  0.3517 -0.0110
   15SAPS   C32 1897   2.717   2.081   6.518  0.2604 -0.6957  0.3054
   15SAPS   H2X 1898   2.675   2.152   6.593  1.6249 -1.1174  1.4943
   15SAPS   H2Y 1899   2.782   2.146   6.455 -1.7656 -1.4333 -2.8246
   15SAPS   C23 1900   2.163   2.447   6.628 -0.0705  0.6463  0.1490
   15SAPS   H3R 1901   2.052   2.441   6.624 -0.0527 -0.1540  0.6200
   15SAPS   H3S 1902   2.203   2.496   6.537 -1.4086 -0.1176 -0.8852
   15SAPS   C24 1903   2.193   2.532   6.752  0.4261 -0.6102 -0.6362
   15SAPS   H4R 1904   2.303   2.541   6.753  0.3913 -0.1819  0.6434
   15SAPS   H4S 1905   2.169   2.465   6.837  1.6181 -0.0989  0.1164
   15SAPS   C25 1906   2.130   2.664   6.774  0.0773  0.6346  0.1599
   15SAPS   H5R 1907   2.096   2.708   6.679  2.8354 -1.4937 -2.0102
   15SAPS   C26 1908   2.117   2.726   6.893 -0.3691 -0.2107 -0.2614
   15SAPS   H6R 1909   2.085   2.831   6.896 -0.8233 -0.3546  0.1524
   15SAPS   C27 1910   2.161   2.678   7.031  0.2006 -0.4507 -0.2189
   15SAPS   H7R 1911   2.228   2.750   7.082  1.0025 -0.6550 -0.9793
   15SAPS   H7S 1912   2.216   2.584   7.007  0.6920  0.4619 -3.0074
   15SAPS   C28 1913   2.042   2.658   7.123  0.5408  0.4012 -0.4715
   15SAPS   H8R 1914   1.942   2.669   7.080  0.0763 -2.4054 -0.3031
   15SAPS   C29 1915   2.052   2.617   7.251  0.3287  0.5095 -0.2792
   15SAPS   H9R 1916   1.962   2.610   7.314 -1.0483 -1.9366 -2.3203
   15SAPS  C210 1917   2.180   2.581   7.325  0.3768 -0.6704 -0.4846
   15SAPS  H10R 1918   2.230   2.507   7.260  1.0039  0.9175 -1.8800
   15SAPS  H10S 1919   2.154   2.527   7.419  0.7752  0.0839  0.0693
   15SAPS  C211 1920   2.260   2.705   7.346 -0.5792 -0.0388  0.4668
   15SAPS  H11R 1921   2.238   2.783   7.272 -1.2982 -0.1294  0.5763
   15SAPS  C212 1922   2.342   2.734   7.449 -0.1621 -0.5341 -0.1499
   15SAPS  H12R 1923   2.390   2.834   7.450 -1.6337  0.2497 -1.8539
   15SAPS  C213 1924   2.378   2.656   7.566  0.9653 -0.5850  0.4896
   15SAPS  H13R 1925   2.455   2.580   7.542  2.0598  0.2188  1.3616
   15SAPS  H13S 1926   2.287   2.599   7.595 -0.1803  1.2685  0.6346
   15SAPS  C214 1927   2.433   2.730   7.687 -0.6074 -0.9007  0.6997
   15SAPS  H14R 1928   2.361   2.741   7.769 -1.8403 -5.5238  0.4714
   15SAPS  C215 1929   2.550   2.792   7.701  0.9740 -0.2221 -0.0254
   15SAPS  H15R 1930   2.573   2.851   7.791  1.9520  1.7255 -1.4804
   15SAPS  C216 1931   2.651   2.796   7.595 -0.4625 -0.6631 -0.3147
   15SAPS  H16R 1932   2.620   2.731   7.510  0.3777 -2.7065  0.8845
   15SAPS  H16S 1933   2.749   2.757   7.628  0.0357  0.3208 -0.5813
   15SAPS  C217 1934   2.673   2.932   7.532 -0.1494  0.1821 -0.0753
   15SAPS  H17R 1935   2.716   3.000   7.609  2.6808 -1.6999  0.1360
   15SAPS  H17S 1936   2.577   2.972   7.492  0.3844  0.4624 -1.0925
   15SAPS  C218 1937   2.781   2.916   7.426  0.1791  0.0573 -0.3001
   15SAPS  H18R 1938   2.759   2.825   7.368  0.8779  0.1384 -0.6995
   15SAPS  H18S 1939   2.881   2.902   7.473 -0.0334  0.2916  0.2314
   15SAPS  C219 1940   2.774   3.031   7.326  0.1622  0.1777 -0.5970
   15SAPS  H19R 1941   2.781   3.120   7.392 -1.6090 -0.9808  1.2452
   15SAPS  H19S 1942   2.682   3.040   7.265 -0.2353 -1.5729 -0.2869
   15SAPS  C220 1943   2.895   3.037   7.228 -0.4914 -0.1404 -0.0700
   15SAPS  H20R 1944   2.907   3.135   7.177  0.1864 -1.4829 -2.6332
   15SAPS  H20S 1945   2.881   2.959   7.151 -2.9719  0.6661 -0.5296
   15SAPS  H20T 1946   2.990   3.037   7.286 -1.9483 -0.1261  2.4617
   15SAPS   C33 1947   2.783   1.965   6.590 -0.0548 -0.0064  0.3247
   15SAPS   H3X 1948   2.836   1.906   6.512 -0.4139  1.2205 -0.8567
   15SAPS   H3Y 1949   2.709   1.893   6.632 -0.9020 -0.6872 -2.2098
   15SAPS   C34 1950   2.894   1.997   6.690  0.2775  0.0794 -0.1602
   15SAPS   H4X 1951   2.966   2.069   6.645  1.5076 -2.0801 -1.8446
   15SAPS   H4Y 1952   2.957   1.907   6.704 -0.0235  0.1760  2.2379
   15SAPS   C35 1953   2.836   2.051   6.820  0.6509 -0.6399 -0.2161
   15SAPS   H5X 1954   2.788   1.968   6.876 -2.1736  0.5781 -0.6344
   15SAPS   H5Y 1955   2.762   2.133   6.805  1.5354  0.0694 -0.7770
   15SAPS   C36 1956   2.940   2.100   6.918 -0.7878 -0.1075 -0.2115
   15SAPS   H6X 1957   2.993   2.192   6.885  1.7225 -1.2924  0.2483
   15SAPS   H6Y 1958   3.019   2.022   6.933 -1.1900 -0.7246 -1.1905
   15SAPS   C37 1959   2.883   2.143   7.052  0.0196  0.1347 -0.0818
   15SAPS   H7X 1960   2.822   2.065   7.101  1.0954 -0.4455  0.3820
   15SAPS   H7Y 1961   2.825   2.238   7.040 -0.7920 -0.4635 -1.0201
   15SAPS   C38 1962   2.999   2.174   7.150 -0.1067  0.0265 -0.1592
   15SAPS   H8X 1963   3.065   2.257   7.115  1.2484 -1.2475 -0.7100
   15SAPS   H8Y 1964   3.069   2.088   7.151 -1.1238 -0.8511 -1.0645
   15SAPS   C39 1965   2.964   2.201   7.296 -0.3586  0.3917  0.3498
   15SAPS   H9X 1966   2.900   2.117   7.330 -1.3533  1.3790  0.9922
   15SAPS   H9Y 1967   2.902   2.292   7.307 -2.0891 -0.5247 -1.2383
   15SAPS  C310 1968   3.085   2.218   7.396 -1.1547  0.3472  0.3154
   15SAPS  H10X 1969   3.139   2.313   7.376  3.0324 -1.5447  1.5250
   15SAPS  H10Y 1970   3.159   2.140   7.368 -1.1798  0.7566 -0.9466
   15SAPS  C311 1971   3.056   2.206   7.543  0.0664 -0.3772  1.0294
   15SAPS  H11X 1972   3.151   2.192   7.599  0.7670  1.0813  0.2469
   15SAPS  H11Y 1973   2.989   2.121   7.570 -2.6009  1.8341  1.8706
   15SAPS  C312 1974   2.985   2.332   7.603  0.4108 -0.1887 -0.4804
   15SAPS  H12X 1975   2.894   2.365   7.548 -0.4323 -1.3239  0.1760
   15SAPS  H12Y 1976   3.062   2.411   7.593 -0.7824  1.3157  1.5462
   15SAPS  C313 1977   2.939   2.326   7.753  0.1110 -0.4971 -0.4529
   15SAPS  H13X 1978   2.875   2.235   7.748  1.8350 -1.8177  0.5629
   15SAPS  H13Y 1979   2.877   2.415   7.776 -0.4844 -0.9984 -0.1040
   15SAPS  C314 1980   3.051   2.323   7.853 -0.3144  0.3344 -0.3770
   15SAPS  H14X 1981   3.132   2.392   7.820 -1.0515  1.0581 -0.7138
   15SAPS  H14Y 1982   3.105   2.226   7.851 -2.3496 -0.9033  0.7851
   15SAPS  C315 1983   3.014   2.365   8.000 -0.6512 -0.5290  0.5642
   15SAPS  H15X 1984   2.945   2.289   8.043 -2.9047 -0.3288 -2.3715
   15SAPS  H15Y 1985   2.964   2.464   7.996  2.8506  1.3213 -1.4799
   15SAPS  C316 1986   3.134   2.385   8.101 -0.1392 -0.1261  0.0226
   15SAPS  H16X 1987   3.209   2.461   8.069 -0.0803 -0.8842 -1.7546
   15SAPS  H16Y 1988   3.186   2.287   8.108 -1.3712 -0.8334 -0.4421
   15SAPS  C317 1989   3.081   2.404   8.238 -0.4195  0.5437 -0.4209
   15SAPS  H17X 1990   3.018   2.322   8.277  1.4114 -1.2750 -1.1209
   15SAPS  H17Y 1991   3.019   2.496   8.243  1.1490  1.6431 -0.1102
   15SAPS  C318 1992   3.192   2.412   8.341 -0.2772  0.2742  0.5209
   15SAPS  H18X 1993   3.256   2.500   8.316 -3.0369  1.8783 -1.4685
   15SAPS  H18Y 1994   3.248   2.316   8.348 -0.7726 -0.0282  0.3546
   15SAPS  H18Z 1995   3.144   2.429   8.439 -2.7346 -0.7031 -0.4344
   16SAPS     N 1996   4.763   3.993   6.359 -0.0895 -0.9295 -0.4229
   16SAPS   HN1 1997   4.829   4.022   6.285 -0.2694  1.4445  0.2666
   16SAPS   HN2 1998   4.676   4.050   6.348 -0.9410 -2.1992 -0.5028
   16SAPS   HN3 1999   4.814   4.022   6.445  2.4939 -1.2607 -1.7680
   16SAPS   C12 2000   4.731   3.852   6.363  0.0868 -0.3883 -0.4077
   16SAPS  H12A 2001   4.696   3.822   6.266  0.3718  2.6891 -1.5583
   16SAPS   C13 2002   4.853   3.769   6.404 -0.0852  0.1474 -0.5741
   16SAPS  O13A 2003   4.962   3.820   6.440 -0.3805  0.0447 -0.2718
   16SAPS  O13B 2004   4.847   3.640   6.407 -0.5465 -0.2207  0.5866
   16SAPS   C11 2005   4.617   3.829   6.464  0.0493 -0.1449  0.0810
   16SAPS  H11A 2006   4.653   3.850   6.567  2.2662  1.3782 -0.9118
   16SAPS  H11B 2007   4.603   3.719   6.457  1.3310 -0.4842  1.9103
   16SAPS     P 2008   4.372   3.843   6.365  0.2207 -0.0993 -0.1839
   16SAPS   O13 2009   4.280   3.953   6.329  0.2239  0.2126  0.6053
   16SAPS   O14 2010   4.421   3.759   6.256  0.6042 -0.6501 -0.2197
   16SAPS   O12 2011   4.502   3.909   6.428 -0.5690  0.3028 -0.0435
   16SAPS   O11 2012   4.320   3.755   6.487  0.3520 -0.3574 -0.1732
   16SAPS    C1 2013   4.283   3.806   6.611  0.3731 -0.2331 -1.0682
   16SAPS    HA 2014   4.344   3.893   6.643 -0.7751 -1.0764  4.4493
   16SAPS    HB 2015   4.177   3.839   6.615 -0.0174 -1.5587  0.8041
   16SAPS    C2 2016   4.311   3.704   6.730 -0.3787  0.0184 -0.1694
   16SAPS    HS 2017   4.413   3.669   6.705 -0.7638 -1.1079 -0.2519
   16SAPS   O21 2018   4.200   3.613   6.721 -0.2077 -0.1669 -0.0887
   16SAPS   C21 2019   4.230   3.491   6.753 -0.5825 -0.1909 -0.2444
   16SAPS   O22 2020   4.341   3.451   6.776 -0.3962  0.5627 -1.1529
   16SAPS   C22 2021   4.112   3.403   6.761  0.1819 -0.5917  0.1162
   16SAPS   H2R 2022   4.030   3.472   6.788 -0.5415 -1.3308 -0.1490
   16SAPS   H2S 2023   4.094   3.368   6.657  0.0615  1.9769 -0.8009
   16SAPS    C3 2024   4.310   3.773   6.864 -0.2638  0.1747 -0.3215
   16SAPS    HX 2025   4.212   3.825   6.873 -0.7527 -0.6637 -0.7832
   16SAPS    HY 2026   4.391   3.850   6.862 -1.5066  1.5552 -3.5558
   16SAPS   O31 2027   4.310   3.686   6.983 -0.0519  0.1357 -0.2476
   16SAPS   C31 2028   4.429   3.656   7.028  0.0323  0.4164  0.3242
   16SAPS   O32 2029   4.530   3.705   6.987  0.3483  0.1682  0.0048
   16SAPS   C32 2030   4.419   3.576   7.161  0.0522 -0.2454 -0.0243
   16SAPS   H2X 2031   4.335   3.504   7.156 -1.3521  1.0873  2.6864
   16SAPS   H2Y 2032   4.398   3.647   7.243 -1.5495 -2.7196  1.8453
   16SAPS   C23 2033   4.127   3.290   6.870 -0.6012 -0.5539 -0.2492
   16SAPS   H3R 2034   4.227   3.243   6.858 -0.6612 -0.4087 -1.5121
   16SAPS   H3S 2035   4.054   3.213   6.838 -1.8360 -1.0908  3.4554
   16SAPS   C24 2036   4.097   3.331   7.013  0.2630  0.5058  0.2039
   16SAPS   H4R 2037   3.999   3.383   7.008 -0.3298 -0.3504  1.8834
   16SAPS   H4S 2038   4.175   3.397   7.056 -1.6069  2.4432  0.8116
   16SAPS   C25 2039   4.082   3.206   7.099 -0.6608  0.9756 -0.4876
   16SAPS   H5R 2040   4.050   3.120   7.039  0.5303 -0.7936  1.2709
   16SAPS   C26 2041   4.068   3.209   7.236 -0.2813 -0.6011  0.1842
   16SAPS   H6R 2042   4.062   3.115   7.293 -1.5623 -1.0544 -0.6703
   16SAPS   C27 2043   4.080   3.331   7.317 -0.1681  0.1614 -0.3246
   16SAPS   H7R 2044   4.115   3.421   7.263 -1.7792  1.0089 -0.0071
   16SAPS   H7S 2045   4.161   3.316   7.391  1.0004 -0.3650 -1.6713
   16SAPS   C28 2046   3.947   3.364   7.382 -0.3952  0.4434 -0.3511
   16SAPS   H8R 2047   3.856   3.371   7.319 -0.3868  1.3520 -0.2788
   16SAPS   C29 2048   3.936   3.377   7.517  0.5894 -0.2392 -0.1921
   16SAPS   H9R 2049   3.841   3.420   7.553  0.4996  1.5503 -2.3176
   16SAPS  C210 2050   4.049   3.377   7.620  0.1292  0.2819 -0.4800
   16SAPS  H10R 2051   4.026   3.452   7.699 -1.9577 -0.2804 -0.4813
   16SAPS  H10S 2052   4.141   3.420   7.576  0.7379 -0.3487  0.1537
   16SAPS  C211 2053   4.087   3.241   7.687  0.2568 -0.2256 -0.1543
   16SAPS  H11R 2054   4.123   3.165   7.616  0.0184 -0.1211 -0.3860
   16SAPS  C212 2055   4.112   3.219   7.819 -0.2232  0.5459  0.6283
   16SAPS  H12R 2056   4.135   3.119   7.857  0.4183  1.1173  1.8072
   16SAPS  C213 2057   4.111   3.323   7.928  1.0977  0.5762  0.0918
   16SAPS  H13R 2058   4.172   3.409   7.893 -0.5508  1.2274 -1.2933
   16SAPS  H13S 2059   4.150   3.279   8.023  1.3856  1.1923  0.2685
   16SAPS  C214 2060   3.965   3.354   7.952  0.5615 -0.5920  0.5583
   16SAPS  H14R 2061   3.904   3.339   7.862  0.1879 -0.0619  0.7163
   16SAPS  C215 2062   3.912   3.400   8.059 -0.3183  0.2184 -0.1770
   16SAPS  H15R 2063   3.803   3.414   8.057 -0.5386 -1.2464  0.3315
   16SAPS  C216 2064   3.988   3.430   8.185 -0.0279 -0.3391 -0.0705
   16SAPS  H16R 2065   4.061   3.512   8.166 -0.6980 -0.0207 -1.3506
   16SAPS  H16S 2066   4.055   3.341   8.191  0.5191 -0.1660 -2.5550
   16SAPS  C217 2067   3.889   3.453   8.300 -0.0018 -0.4251 -0.6740
   16SAPS  H17R 2068   3.832   3.359   8.316  0.1554 -0.8662 -2.3951
   16SAPS  H17S 2069   3.814   3.527   8.267 -1.2701 -0.6468  1.5658
   16SAPS  C218 2070   3.958   3.475   8.433 -0.2973 -0.6135 -0.8216
   16SAPS  H18R 2071   4.044   3.542   8.413 -0.6207 -0.2896 -1.1312
   16SAPS  H18S 2072   4.002   3.382   8.475  2.3565  1.3960  1.2137
   16SAPS  C219 2073   3.866   3.545   8.532  0.3223  0.3678 -0.3830
   16SAPS  H19R 2074   3.769   3.492   8.522  1.4132 -1.3681 -2.6098
   16SAPS  H19S 2075   3.853   3.638   8.474  0.8105  0.4629 -0.3458
   16SAPS  C220 2076   3.919   3.564   8.673 -0.6964 -0.0463  0.2388
   16SAPS  H20R 2077   4.020   3.609   8.665 -0.6701  0.0495  1.0448
   16SAPS  H20S 2078   3.933   3.468   8.726 -2.1123  0.0785  0.8967
   16SAPS  H20T 2079   3.849   3.625   8.735 -0.3437  3.0678 -2.1811
   16SAPS   C33 2080   4.552   3.506   7.196 -0.1621 -0.8010  0.7177
   16SAPS   H3X 2081   4.632   3.582   7.205 -1.9264  1.2380 -0.0220
   16SAPS   H3Y 2082   4.587   3.429   7.124 -0.6566 -0.9826  0.6664
   16SAPS   C34 2083   4.550   3.430   7.332 -0.2313 -0.2742 -0.1579
   16SAPS   H4X 2084   4.617   3.343   7.348 -1.4227 -1.1908 -0.0547
   16SAPS   H4Y 2085   4.447   3.392   7.344 -0.8499  1.5683  0.8406
   16SAPS   C35 2086   4.588   3.526   7.444 -0.1708  0.4836 -0.2975
   16SAPS   H5X 2087   4.558   3.632   7.431 -1.3565  0.0409 -1.4913
   16SAPS   H5Y 2088   4.698   3.530   7.457  0.0659 -1.5618 -1.2881
   16SAPS   C36 2089   4.525   3.468   7.579  0.1220 -1.5013 -0.4722
   16SAPS   H6X 2090   4.578   3.379   7.620  1.4864 -0.3222  0.4061
   16SAPS   H6Y 2091   4.421   3.436   7.555 -0.0070 -0.3827 -1.4899
   16SAPS   C37 2092   4.517   3.574   7.691  0.9665  0.0927 -0.2846
   16SAPS   H7X 2093   4.445   3.649   7.652 -3.1183 -2.1826  2.2339
   16SAPS   H7Y 2094   4.617   3.622   7.698  1.0315 -0.1723  0.7821
   16SAPS   C38 2095   4.481   3.531   7.834 -0.2611  0.2635 -0.5328
   16SAPS   H8X 2096   4.373   3.504   7.841 -0.6773  2.0658  0.9034
   16SAPS   H8Y 2097   4.479   3.622   7.898 -0.7258 -0.4501  0.4974
   16SAPS   C39 2098   4.567   3.423   7.906 -0.6757 -0.4692  0.1716
   16SAPS   H9X 2099   4.672   3.456   7.891 -1.2875  1.4814 -0.1348
   16SAPS   H9Y 2100   4.557   3.324   7.855  0.7453 -1.7196  2.1989
   16SAPS  C310 2101   4.543   3.409   8.056  0.1503 -0.4121 -0.2385
   16SAPS  H10X 2102   4.601   3.319   8.086  1.9685  0.6070 -0.5183
   16SAPS  H10Y 2103   4.438   3.376   8.073  0.5297 -0.9638  1.2114
   16SAPS  C311 2104   4.587   3.509   8.164  0.4813 -0.7132 -0.0229
   16SAPS  H11X 2105   4.535   3.606   8.150  0.4980 -0.6159  0.5763
   16SAPS  H11Y 2106   4.697   3.526   8.160  0.3925 -0.0791  0.1031
   16SAPS  C312 2107   4.553   3.447   8.303  0.4017 -0.1652  1.0135
   16SAPS  H12X 2108   4.582   3.339   8.305 -0.7436 -0.6383 -2.3747
   16SAPS  H12Y 2109   4.443   3.447   8.312  0.3355 -0.4845  0.3014
   16SAPS  C313 2110   4.612   3.524   8.416  0.0587 -0.1934  0.1516
   16SAPS  H13X 2111   4.561   3.492   8.509  0.2468  0.3409  0.4429
   16SAPS  H13Y 2112   4.586   3.630   8.396 -0.8231 -0.5949 -0.9608
   16SAPS  C314 2113   4.769   3.501   8.435  0.1895  0.9350 -0.2441
   16SAPS  H14X 2114   4.803   3.566   8.518 -0.5134 -0.1373  0.9087
   16SAPS  H14Y 2115   4.823   3.543   8.348  0.0895 -0.0958 -0.8251
   16SAPS  C315 2116   4.810   3.352   8.463  0.0456 -0.1457 -0.2771
   16SAPS  H15X 2117   4.817   3.292   8.370  2.0092  2.5830 -2.0884
   16SAPS  H15Y 2118   4.732   3.313   8.531 -1.5156 -0.5410 -2.2285
   16SAPS  C316 2119   4.953   3.352   8.528 -0.0067 -0.0421  1.0680
   16SAPS  H16X 2120   4.947   3.432   8.605 -1.7066 -0.3464  1.2951
   16SAPS  H16Y 2121   5.030   3.390   8.457  1.3907  2.8492  3.8887
   16SAPS  C317 2122   4.991   3.213   8.583  0.0386 -0.1645  0.0856
   16SAPS  H17X 2123   4.985   3.144   8.496 -0.6088  2.1031 -1.7733
   16SAPS  H17Y 2124   4.915   3.171   8.653 -0.3421 -0.7151 -0.6328
   16SAPS  C318 2125   5.130   3.245   8.646 -0.4374 -0.6290  0.0021
   16SAPS  H18X 2126   5.166   3.149   8.689 -1.4729 -1.6723 -1.3668
   16SAPS  H18Y 2127   5.112   3.322   8.724  1.3319 -2.5900  2.5122
   16SAPS  H18Z 2128   5.200   3.279   8.567  0.5649  0.0531  1.1403
   17SAPC     N 2129   0.793   0.150  10.382  0.7811 -0.3971 -0.0885
   17SAPC   C12 2130   0.737   0.257  10.295  1.2062  0.4370 -0.3538
   17SAPC  H12A 2131   0.803   0.282  10.214  1.4303 -1.3647 -0.7631
   17SAPC  H12B 2132   0.717   0.345  10.355  0.1611 -0.6171  0.9298
   17SAPC   C13 2133   0.922   0.191  10.449 -0.2582  0.1967  0.3487
   17SAPC  H13A 2134   0.993   0.207  10.369  0.5149  1.1047  1.2035
   17SAPC  H13B 2135   0.915   0.288  10.495 -0.6338  0.8717 -1.0741
   17SAPC  H13C 2136   0.957   0.119  10.521 -1.5181 -0.1048  0.6899
   17SAPC   C14 2137   0.701   0.121  10.495 -0.0049  0.1983 -0.0376
   17SAPC  H14A 2138   0.754   0.044  10.549 -0.3116 -0.3422 -0.4996
   17SAPC  H14B 2139   0.682   0.210  10.553 -1.3731  0.7629 -1.2931
   17SAPC  H14C 2140   0.607   0.089  10.454  0.0020  1.0227 -0.7304
   17SAPC   C15 2141   0.815   0.026  10.307 -0.1490 -0.5114  0.1376
   17SAPC  H15A 2142   0.744   0.001  10.229  0.2139  2.4821 -1.3322
   17SAPC  H15B 2143   0.901   0.037  10.242 -0.4604 -4.5776 -1.2158
   17SAPC  H15C 2144   0.841  -0.058  10.370  1.0012  0.2889  0.7626
   17SAPC   C11 2145   0.595   0.225  10.228  0.0624 -0.3980 -0.5599
   17SAPC  H11A 2146   0.583   0.122  10.188 -0.6640 -1.3663  1.9781
   17SAPC  H11B 2147   0.578   0.299  10.147  0.3120 -0.4982 -0.7067
   17SAPC     P 2148   0.431   0.344  10.386  0.0102 -0.2310 -0.0618
   17SAPC   O13 2149   0.295   0.363  10.327  0.2663  0.5695  0.3515
   17SAPC   O14 2150   0.438   0.330  10.528 -0.3655  0.9872 -0.3484
   17SAPC   O12 2151   0.499   0.225  10.325 -1.2789  0.4395  0.0581
   17SAPC   O11 2152   0.521   0.465  10.346 -0.3225  0.7077  0.2874
   17SAPC    C1 2153   0.482   0.600  10.368  0.1581 -0.0163 -0.0825
   17SAPC    HA 2154   0.448   0.620  10.472 -1.2400  1.3242 -0.7474
   17SAPC    HB 2155   0.571   0.661  10.344 -0.3124  0.6258 -0.2511
   17SAPC    C2 2156   0.376   0.650  10.267  0.7128 -0.4660 -0.5764
   17SAPC    HS 2157   0.277   0.607  10.292  0.4381 -0.0539 -0.9303
   17SAPC   O21 2158   0.418   0.612  10.135 -0.3669 -0.1740 -0.3801
   17SAPC   C21 2159   0.332   0.594  10.036  0.3820 -0.3198  0.1981
   17SAPC   O22 2160   0.213   0.589  10.048  0.2802  0.0255  0.4195
   17SAPC   C22 2161   0.407   0.592   9.902 -0.0143  0.9029  0.2470
   17SAPC   H2R 2162   0.476   0.679   9.893  1.9720 -0.5101  0.9565
   17SAPC   H2S 2163   0.478   0.507   9.897  0.1733  0.9628  1.4796
   17SAPC    C3 2164   0.356   0.801  10.284 -0.0841  0.1097  0.1786
   17SAPC    HX 2165   0.463   0.826  10.268  0.7429 -3.8583 -1.7004
   17SAPC    HY 2166   0.332   0.837  10.387  0.0798  2.4533 -0.5473
   17SAPC   O31 2167   0.280   0.864  10.182  0.6373  0.1628  0.0246
   17SAPC   C31 2168   0.154   0.856  10.196  0.1424  0.1625  0.0731
   17SAPC   O32 2169   0.090   0.838  10.297  0.1713 -0.2996 -0.3387
   17SAPC   C32 2170   0.089   0.898  10.065 -0.7336 -0.0796  0.2715
   17SAPC   H2X 2171   0.123   0.838   9.978  2.0290  2.4348 -0.5558
   17SAPC   H2Y 2172   0.113   1.005  10.046 -0.1157 -0.4570 -1.1915
   17SAPC   C23 2173   0.310   0.606   9.783 -0.3921 -0.1782  0.5190
   17SAPC   H3R 2174   0.293   0.715   9.776  2.2682  0.2039 -1.2378
   17SAPC   H3S 2175   0.210   0.562   9.804 -1.0701  0.4625 -1.1852
   17SAPC   C24 2176   0.354   0.559   9.650 -1.1967 -0.3066  0.5986
   17SAPC   H4R 2177   0.284   0.589   9.570 -0.6698 -0.8495 -0.0746
   17SAPC   H4S 2178   0.359   0.448   9.648  2.0535 -0.2609 -0.1942
   17SAPC   C25 2179   0.490   0.610   9.610 -0.5231  0.3957  0.6768
   17SAPC   H5R 2180   0.576   0.599   9.677 -0.2210 -0.6018  0.1573
   17SAPC   C26 2181   0.518   0.670   9.490 -0.5629  0.0972 -0.7759
   17SAPC   H6R 2182   0.621   0.697   9.462 -0.9428  0.5651 -1.7790
   17SAPC   C27 2183   0.421   0.693   9.374  0.2475 -0.4385  0.8831
   17SAPC   H7R 2184   0.331   0.630   9.383  1.0528 -1.4524  2.2128
   17SAPC   H7S 2185   0.470   0.660   9.280  2.1150 -0.1134  1.6857
   17SAPC   C28 2186   0.389   0.848   9.356 -0.2956  0.8792 -0.0020
   17SAPC   H8R 2187   0.467   0.915   9.316 -1.0093  1.2662 -0.7771
   17SAPC   C29 2188   0.270   0.897   9.351 -0.2397 -0.6844 -0.1891
   17SAPC   H9R 2189   0.269   1.007   9.347  0.1123 -0.7146 -1.7385
   17SAPC  C210 2190   0.133   0.824   9.375 -0.1721  0.1444 -0.2698
   17SAPC  H10R 2191   0.138   0.793   9.482  0.5669  1.0610 -0.0253
   17SAPC  H10S 2192   0.124   0.734   9.311 -2.4337  0.3203 -0.2772
   17SAPC  C211 2193   0.008   0.905   9.344  0.4841  0.0226 -0.1625
   17SAPC  H11R 2194  -0.031   0.890   9.243 -0.2328 -0.4966  0.1838
   17SAPC  C212 2195  -0.058   0.989   9.430 -0.1122 -0.3520 -0.6809
   17SAPC  H12R 2196  -0.151   1.036   9.395 -0.8705 -0.4564  1.0607
   17SAPC  C213 2197   0.004   1.032   9.563 -0.3067  0.5365 -0.3133
   17SAPC  H13R 2198   0.110   1.001   9.576 -0.7778 -0.4306  1.6074
   17SAPC  H13S 2199  -0.034   0.975   9.651 -0.0846  0.8022 -0.0400
   17SAPC  C214 2200  -0.022   1.175   9.578 -0.2275 -0.0535  0.1607
   17SAPC  H14R 2201  -0.095   1.216   9.507 -1.2685 -0.4712  0.9530
   17SAPC  C215 2202   0.010   1.253   9.682 -0.0486  0.5958  0.4172
   17SAPC  H15R 2203  -0.021   1.358   9.670 -1.3053  0.1130 -0.8875
   17SAPC  C216 2204   0.077   1.199   9.808 -0.0179 -0.0617 -0.5537
   17SAPC  H16R 2205   0.092   1.089   9.802  1.6824  0.0243  1.2115
   17SAPC  H16S 2206   0.022   1.202   9.904  1.8184 -1.0651  0.5781
   17SAPC  C217 2207   0.218   1.253   9.825  0.2922 -0.0171 -0.0494
   17SAPC  H17R 2208   0.239   1.251   9.934  3.0663 -1.6948 -0.4946
   17SAPC  H17S 2209   0.233   1.352   9.776  2.5573 -1.1257 -1.7896
   17SAPC  C218 2210   0.321   1.167   9.758  1.1797 -0.2245 -0.6741
   17SAPC  H18R 2211   0.402   1.242   9.743  0.9363  0.4451  1.0666
   17SAPC  H18S 2212   0.299   1.122   9.659  0.0896 -1.9926  0.3230
   17SAPC  C219 2213   0.373   1.052   9.842  0.7847 -0.6256 -0.5315
   17SAPC  H19R 2214   0.284   0.992   9.874 -3.3250  5.0657  0.2981
   17SAPC  H19S 2215   0.406   1.092   9.940 -0.8224  0.0413 -0.2258
   17SAPC  C220 2216   0.482   0.972   9.784  0.9861 -0.0510 -0.1459
   17SAPC  H20R 2217   0.567   1.041   9.766  0.4806  0.0596 -2.3442
   17SAPC  H20S 2218   0.453   0.901   9.704 -0.1186  0.4994 -0.2451
   17SAPC  H20T 2219   0.507   0.909   9.873  0.3955  1.5800  1.2400
   17SAPC   C33 2220  -0.062   0.885  10.079  0.1082  0.1501 -0.3845
   17SAPC   H3X 2221  -0.099   0.951  10.160 -0.1334 -0.2692 -0.1487
   17SAPC   H3Y 2222  -0.080   0.779  10.107  1.2466  0.1650  0.5026
   17SAPC   C34 2223  -0.146   0.903   9.949  0.7262 -0.4776 -0.1518
   17SAPC   H4X 2224  -0.101   0.833   9.875 -0.7287 -0.8301 -0.7507
   17SAPC   H4Y 2225  -0.140   1.006   9.910 -1.2960  0.0074  0.6585
   17SAPC   C35 2226  -0.295   0.873   9.970  0.6748 -0.6995 -0.4645
   17SAPC   H5X 2227  -0.324   0.943  10.051 -0.4342  1.0135 -2.2415
   17SAPC   H5Y 2228  -0.311   0.770  10.007 -1.6323 -0.0699  0.4812
   17SAPC   C36 2229  -0.381   0.894   9.840  0.3556 -0.1410  0.0144
   17SAPC   H6X 2230  -0.391   1.003   9.824 -0.4074  0.1737  2.3514
   17SAPC   H6Y 2231  -0.486   0.869   9.866 -0.3877  1.5957 -1.1405
   17SAPC   C37 2232  -0.338   0.817   9.713 -0.0296  0.1106  0.4813
   17SAPC   H7X 2233  -0.321   0.712   9.744  0.2692  0.8994  3.2622
   17SAPC   H7Y 2234  -0.242   0.867   9.686  0.2701 -0.8814 -0.3520
   17SAPC   C38 2235  -0.450   0.830   9.607  0.1879  0.2639  0.0002
   17SAPC   H8X 2236  -0.456   0.934   9.568 -1.2250 -0.2029 -1.1463
   17SAPC   H8Y 2237  -0.547   0.803   9.654  0.4511 -0.3108  0.2251
   17SAPC   C39 2238  -0.441   0.732   9.490 -0.1084  0.4060  0.1485
   17SAPC   H9X 2239  -0.435   0.628   9.530  0.5578  0.5944  0.5697
   17SAPC   H9Y 2240  -0.354   0.756   9.426 -0.8888  3.3193  0.0501
   17SAPC  C310 2241  -0.546   0.744   9.384 -0.3878 -0.1541 -0.0342
   17SAPC  H10X 2242  -0.559   0.851   9.361  1.6707  0.7740  2.5847
   17SAPC  H10Y 2243  -0.636   0.700   9.432 -0.9614  1.1338  0.0994
   17SAPC  C311 2244  -0.519   0.663   9.253  0.0093  0.1623 -0.7094
   17SAPC  H11X 2245  -0.535   0.556   9.281 -2.1645  1.1672  2.4506
   17SAPC  H11Y 2246  -0.419   0.682   9.209  0.2705 -1.6126 -0.9722
   17SAPC  C312 2247  -0.623   0.705   9.154  0.0022 -0.5486  0.3613
   17SAPC  H12X 2248  -0.594   0.799   9.102 -0.7385 -1.2254 -1.3475
   17SAPC  H12Y 2249  -0.721   0.702   9.206  1.0110 -1.0097  2.3440
   17SAPC  C313 2250  -0.636   0.610   9.031  0.4993  0.5470  0.4289
   17SAPC  H13X 2251  -0.728   0.636   8.975 -0.6101 -1.2112  1.3351
   17SAPC  H13Y 2252  -0.654   0.510   9.076 -0.9330 -0.2457 -1.7277
   17SAPC  C314 2253  -0.505   0.598   8.946  0.5551 -0.5103 -0.0522
   17SAPC  H14X 2254  -0.439   0.547   9.020  0.6362  0.2521  0.4069
   17SAPC  H14Y 2255  -0.462   0.700   8.943  2.6976 -1.2308  2.3852
   17SAPC  C315 2256  -0.525   0.542   8.805  0.3025 -0.0480 -0.3611
   17SAPC  H15X 2257  -0.573   0.442   8.818  2.5417 -0.9711  1.5840
   17SAPC  H15Y 2258  -0.425   0.534   8.757  0.1383 -1.2604 -0.5271
   17SAPC  C316 2259  -0.612   0.630   8.724 -0.4051  0.7843  0.3467
   17SAPC  H16X 2260  -0.579   0.736   8.728  0.6138  0.4491  1.6307
   17SAPC  H16Y 2261  -0.715   0.628   8.766 -0.2898  0.6879  0.6284
   17SAPC  C317 2262  -0.634   0.570   8.579  0.9047  0.5511  0.6744
   17SAPC  H17X 2263  -0.677   0.472   8.607  0.6701  0.1512 -0.9770
   17SAPC  H17Y 2264  -0.542   0.555   8.519 -1.5521  1.1438 -3.6872
   17SAPC  C318 2265  -0.739   0.659   8.508 -1.1319  0.3256 -0.6717
   17SAPC  H18X 2266  -0.797   0.617   8.423 -0.4207 -0.9939 -0.5205
   17SAPC  H18Y 2267  -0.810   0.695   8.586 -0.5814 -2.8240  1.4503
   17SAPC  H18Z 2268  -0.686   0.745   8.462  2.8505 -1.2817  0.5162
   18SAPC     N 2269   0.539   6.480  10.631 -0.5696 -0.2630 -0.3705
   18SAPC   C12 2270   0.676   6.421  10.603 -0.2106 -0.3109 -0.4304
   18SAPC  H12A 2271   0.669   6.324  10.556 -1.6414  0.8437 -2.7490
   18SAPC  H12B 2272   0.728   6.417  10.698 -2.3463 -0.1586  0.7967
   18SAPC   C13 2273   0.458   6.477  10.502  0.0428  0.5475 -0.5806
   18SAPC  H13A 2274   0.367   6.535  10.504 -0.9582 -0.9631 -0.9540
   18SAPC  H13B 2275   0.518   6.520  10.423  0.5377  0.6492 -0.1600
   18SAPC  H13C 2276   0.432   6.374  10.483  1.3021 -0.3239  2.0134
   18SAPC   C14 2277   0.468   6.398  10.739  0.0670 -0.0625  0.1869
   18SAPC  H14A 2278   0.527   6.373  10.826  0.5325 -0.6490 -0.2839
   18SAPC  H14B 2279   0.385   6.455  10.778 -0.6887 -0.8437 -0.2349
   18SAPC  H14C 2280   0.424   6.312  10.689 -0.1267  1.3021 -2.1340
   18SAPC   C15 2281   0.552   6.617  10.679  0.0541 -0.6427 -0.7026
   18SAPC  H15A 2282   0.618   6.676  10.616 -0.2545 -0.3731 -0.7778
   18SAPC  H15B 2283   0.463   6.679  10.686 -0.8362 -1.9296 -0.3582
   18SAPC  H15C 2284   0.603   6.630  10.773 -1.8375 -2.3425  0.6388
   18SAPC   C11 2285   0.777   6.487  10.502  0.8934  0.1283  0.2753
   18SAPC  H11A 2286   0.720   6.489  10.407  1.3675 -1.9052 -0.1060
   18SAPC  H11B 2287   0.863   6.417  10.487  1.3885  0.8760 -0.4146
   18SAPC     P 2288   0.928   6.630  10.650  0.1421  0.2426  0.1555
   18SAPC   O13 2289   0.969   6.769  10.664 -0.0579 -0.5596  0.0740
   18SAPC   O14 2290   0.904   6.558  10.777  0.4454 -0.1329 -0.2981
   18SAPC   O12 2291   0.804   6.623  10.550  0.4705 -0.4153  0.3224
   18SAPC   O11 2292   1.045   6.558  10.575 -0.0169 -0.3804  0.5563
   18SAPC    C1 2293   1.126   6.615  10.473  0.4090 -0.5701  0.4692
   18SAPC    HA 2294   1.120   6.726  10.464  2.3826 -0.5355 -1.0293
   18SAPC    HB 2295   1.231   6.584  10.491  0.5179 -0.4276  0.1006
   18SAPC    C2 2296   1.089   6.569  10.325  0.4295  0.9243 -0.2567
   18SAPC    HS 2297   0.990   6.612  10.299 -0.3048  0.4526  1.5516
   18SAPC   O21 2298   1.097   6.423  10.307  0.6502 -0.2341 -0.0092
   18SAPC   C21 2299   1.011   6.370  10.222 -0.2723  0.5036 -0.2614
   18SAPC   O22 2300   0.913   6.428  10.178 -0.0300  0.3737 -0.1779
   18SAPC   C22 2301   1.047   6.220  10.183  0.2458  0.1132  0.1793
   18SAPC   H2R 2302   1.158   6.224  10.180  0.2955 -1.2769 -0.7618
   18SAPC   H2S 2303   1.003   6.154  10.260 -1.1545 -0.4303 -1.0292
   18SAPC    C3 2304   1.188   6.633  10.237  0.2108  0.0651  0.8576
   18SAPC    HX 2305   1.280   6.583  10.274  0.4640  0.0996  0.2908
   18SAPC    HY 2306   1.209   6.742  10.249  0.4040  0.5157 -2.4147
   18SAPC   O31 2307   1.160   6.610  10.095 -0.1293 -0.2021  0.7951
   18SAPC   C31 2308   1.090   6.711  10.034 -0.3392  0.4615  0.7629
   18SAPC   O32 2309   1.043   6.802  10.091 -0.3887  0.5596 -0.1600
   18SAPC   C32 2310   1.080   6.690   9.885  0.2466 -0.1026 -0.0333
   18SAPC   H2X 2311   0.972   6.679   9.861  0.5011 -1.5870 -0.6546
   18SAPC   H2Y 2312   1.119   6.589   9.858 -1.9584 -0.4893 -2.1092
   18SAPC   C23 2313   0.968   6.184  10.055 -0.3871  0.1318  0.2790
   18SAPC   H3R 2314   0.866   6.229  10.057 -0.8212 -0.7269 -0.9522
   18SAPC   H3S 2315   0.963   6.073  10.064 -1.1729  0.2167  1.0623
   18SAPC   C24 2316   1.036   6.231   9.930  0.8105 -0.0476 -0.5681
   18SAPC   H4R 2317   1.143   6.204   9.928  1.7050  2.8318  1.3779
   18SAPC   H4S 2318   1.028   6.341   9.939 -0.9263 -0.1819  0.0274
   18SAPC   C25 2319   0.946   6.176   9.822 -0.1114 -0.7810  0.0236
   18SAPC   H5R 2320   0.928   6.069   9.806  1.5497 -0.9227 -1.1184
   18SAPC   C26 2321   0.883   6.263   9.737 -0.1865  0.2313  0.3243
   18SAPC   H6R 2322   0.818   6.218   9.660  0.8385 -1.0425  0.1909
   18SAPC   C27 2323   0.894   6.414   9.734  0.3267 -0.6171 -0.6401
   18SAPC   H7R 2324   1.002   6.442   9.741 -0.0547  0.4840  2.6120
   18SAPC   H7S 2325   0.858   6.438   9.836  2.3205 -1.8290  0.4325
   18SAPC   C28 2326   0.815   6.490   9.627 -0.1785  0.0616 -0.0296
   18SAPC   H8R 2327   0.758   6.575   9.666 -2.0579 -0.8259 -0.7374
   18SAPC   C29 2328   0.793   6.467   9.496  0.7205  0.7223 -0.1686
   18SAPC   H9R 2329   0.744   6.546   9.438 -0.1167  0.6240  0.3991
   18SAPC  C210 2330   0.837   6.352   9.409  0.3444  0.1711 -0.3255
   18SAPC  H10R 2331   0.772   6.344   9.319  0.2905 -0.7632 -0.2063
   18SAPC  H10S 2332   0.818   6.254   9.458 -1.8136  1.6468  2.0410
   18SAPC  C211 2333   0.980   6.371   9.365  0.1338  0.2272 -0.0877
   18SAPC  H11R 2334   1.048   6.320   9.435 -0.5284 -0.8855 -0.2333
   18SAPC  C212 2335   1.022   6.451   9.264  0.0632  0.0198 -0.0803
   18SAPC  H12R 2336   1.129   6.450   9.239  0.2584  1.3046  0.6067
   18SAPC  C213 2337   0.946   6.537   9.166  0.3706 -0.3157  1.2281
   18SAPC  H13R 2338   1.002   6.616   9.112  0.0932 -1.0190 -0.1145
   18SAPC  H13S 2339   0.869   6.589   9.228  1.3403  1.7432  0.7867
   18SAPC  C214 2340   0.876   6.454   9.060  0.5801  0.0412 -0.7957
   18SAPC  H14R 2341   0.891   6.347   9.078 -0.0216  0.1703  0.5545
   18SAPC  C215 2342   0.796   6.502   8.967  0.7010 -0.3090  0.3769
   18SAPC  H15R 2343   0.756   6.427   8.897  0.3981 -0.2318  0.4701
   18SAPC  C216 2344   0.771   6.650   8.942 -0.0650  0.0523 -0.2789
   18SAPC  H16R 2345   0.858   6.711   8.975  0.1747  0.3372 -1.3934
   18SAPC  H16S 2346   0.682   6.675   9.003  1.1626  0.3683  1.4383
   18SAPC  C217 2347   0.702   6.673   8.807  0.5127  0.3102  0.4426
   18SAPC  H17R 2348   0.758   6.626   8.724 -0.4603  1.5897 -1.0153
   18SAPC  H17S 2349   0.703   6.783   8.791 -2.0855  0.5928  1.5976
   18SAPC  C218 2350   0.564   6.608   8.791  0.2336 -0.9221  0.1937
   18SAPC  H18R 2351   0.496   6.661   8.862 -0.5453 -2.2354  0.4526
   18SAPC  H18S 2352   0.567   6.502   8.822 -0.9607 -0.5943  1.5153
   18SAPC  C219 2353   0.492   6.625   8.664  0.7428 -0.6611  0.5133
   18SAPC  H19R 2354   0.559   6.583   8.586 -0.1933 -0.8175 -0.2176
   18SAPC  H19S 2355   0.470   6.728   8.630  1.1217 -0.7797 -0.1047
   18SAPC  C220 2356   0.358   6.546   8.664 -0.2144 -0.4363  0.1795
   18SAPC  H20R 2357   0.319   6.552   8.560  0.1246  2.4208  0.1349
   18SAPC  H20S 2358   0.288   6.582   8.742  0.3642  0.3126  0.3648
   18SAPC  H20T 2359   0.372   6.438   8.686 -1.6799 -0.4938  0.9383
   18SAPC   C33 2360   1.149   6.789   9.791  0.1549  0.3352  0.6258
   18SAPC   H3X 2361   1.259   6.793   9.799  0.1792 -0.9231  0.9764
   18SAPC   H3Y 2362   1.117   6.894   9.807  1.1013  0.4664  1.7303
   18SAPC   C34 2363   1.119   6.749   9.643  0.5814 -0.0713 -0.1382
   18SAPC   H4X 2364   1.008   6.750   9.641  0.5601 -0.1746  0.7042
   18SAPC   H4Y 2365   1.157   6.646   9.626 -1.8504 -1.6210  2.7623
   18SAPC   C35 2366   1.170   6.834   9.528  0.0813  0.5076  0.1184
   18SAPC   H5X 2367   1.280   6.826   9.526 -0.0143 -1.6676 -2.6391
   18SAPC   H5Y 2368   1.137   6.940   9.537 -0.1549  0.4417  0.0322
   18SAPC   C36 2369   1.111   6.777   9.399  0.0833  0.4986  0.7461
   18SAPC   H6X 2370   1.004   6.804   9.386  0.4561  1.5982 -0.2537
   18SAPC   H6Y 2371   1.117   6.667   9.412 -0.1438  0.0007 -2.5017
   18SAPC   C37 2372   1.186   6.819   9.266 -0.3440 -0.1629  0.1425
   18SAPC   H7X 2373   1.142   6.790   9.169  1.0870  1.2768 -0.9842
   18SAPC   H7Y 2374   1.284   6.770   9.286  0.7458  2.3313  1.3111
   18SAPC   C38 2375   1.212   6.967   9.267  0.2570  0.5160 -0.5877
   18SAPC   H8X 2376   1.279   6.995   9.351  0.0381  1.2219 -0.6384
   18SAPC   H8Y 2377   1.115   7.014   9.292 -0.3385 -0.7917 -0.3865
   18SAPC   C39 2378   1.297   7.012   9.143 -0.8136  0.3701 -0.4471
   18SAPC   H9X 2379   1.373   6.932   9.128 -0.3553  0.7577 -0.2309
   18SAPC   H9Y 2380   1.348   7.102   9.183  2.0377 -1.8814  1.4603
   18SAPC  C310 2381   1.227   7.054   9.020  0.2034  0.2273  0.3475
   18SAPC  H10X 2382   1.152   7.133   9.041  0.6511  0.8358 -0.2934
   18SAPC  H10Y 2383   1.191   6.961   8.971  2.1023 -0.2160 -0.3273
   18SAPC  C311 2384   1.316   7.129   8.918 -0.5865  0.3858 -0.8538
   18SAPC  H11X 2385   1.358   7.220   8.966  1.3923  0.7919 -3.1444
   18SAPC  H11Y 2386   1.247   7.153   8.834  0.1220 -2.9362 -2.5715
   18SAPC  C312 2387   1.425   7.040   8.859  0.1172 -0.5702  0.2013
   18SAPC  H12X 2388   1.376   6.951   8.815 -0.6169  0.6360 -1.5429
   18SAPC  H12Y 2389   1.489   7.005   8.943  2.5141  0.2541 -1.1942
   18SAPC  C313 2390   1.514   7.113   8.758 -0.5428  0.6316  0.1573
   18SAPC  H13X 2391   1.447   7.179   8.699 -1.0141  0.8916  0.9661
   18SAPC  H13Y 2392   1.558   7.042   8.685  2.0112  2.4463 -0.1864
   18SAPC  C314 2393   1.632   7.193   8.827 -0.2199  0.6337 -0.6712
   18SAPC  H14X 2394   1.704   7.120   8.870  1.8364  2.4059 -0.8773
   18SAPC  H14Y 2395   1.581   7.257   8.902 -0.6411 -0.0943 -0.3233
   18SAPC  C315 2396   1.712   7.278   8.727 -0.1673  0.0855 -0.1057
   18SAPC  H15X 2397   1.771   7.357   8.778  2.5374 -0.8119 -1.6328
   18SAPC  H15Y 2398   1.634   7.317   8.659  1.2511  1.2991 -1.0957
   18SAPC  C316 2399   1.810   7.192   8.646 -0.1238 -0.4502 -0.0632
   18SAPC  H16X 2400   1.745   7.118   8.595 -1.1803 -1.0853  2.0699
   18SAPC  H16Y 2401   1.870   7.139   8.723  0.8113 -0.8491 -1.0334
   18SAPC  C317 2402   1.909   7.276   8.553  0.4256  0.7490  0.1941
   18SAPC  H17X 2403   1.840   7.330   8.485  0.8226 -1.0368 -1.7228
   18SAPC  H17Y 2404   1.974   7.209   8.492 -1.6471 -1.3374  0.1213
   18SAPC  C318 2405   1.993   7.382   8.616  0.3135  0.6726  0.3893
   18SAPC  H18X 2406   2.079   7.340   8.672 -0.4658 -1.6079  0.0060
   18SAPC  H18Y 2407   1.939   7.465   8.666  0.6235  2.2514 -1.7531
   18SAPC  H18Z 2408   2.046   7.429   8.530  0.9963  1.3557  1.1663
   19SAPC     N 2409   2.501   1.479  10.666 -0.3050 -0.0320 -0.6210
   19SAPC   C12 2410   2.424   1.391  10.558 -0.4721 -0.8978 -0.2611
   19SAPC  H12A 2411   2.481   1.303  10.531  3.7561  1.5792 -0.2992
   19SAPC  H12B 2412   2.407   1.446  10.466  0.4348 -2.2842 -1.2950
   19SAPC   C13 2413   2.518   1.408  10.796  0.4860  0.4984 -0.2313
   19SAPC  H13A 2414   2.519   1.300  10.796 -1.0493  0.4072  2.0965
   19SAPC  H13B 2415   2.601   1.452  10.851 -1.0281  2.1869  0.8140
   19SAPC  H13C 2416   2.426   1.432  10.848  0.8043  0.8827  0.1684
   19SAPC   C14 2417   2.645   1.496  10.616  0.3611  0.5113 -0.8486
   19SAPC  H14A 2418   2.715   1.414  10.624  1.8213  1.8818  1.2064
   19SAPC  H14B 2419   2.644   1.526  10.512  0.9998  0.4570 -0.8745
   19SAPC  H14C 2420   2.693   1.577  10.670  0.2137  0.0456  0.0097
   19SAPC   C15 2421   2.445   1.620  10.685 -0.4307 -0.2472 -0.4873
   19SAPC  H15A 2422   2.365   1.621  10.758  0.0932  0.6572  0.1083
   19SAPC  H15B 2423   2.520   1.684  10.730 -2.0584  0.2605  1.7100
   19SAPC  H15C 2424   2.412   1.667  10.594  0.7136  2.9005  0.5749
   19SAPC   C11 2425   2.283   1.349  10.599  0.2015  0.1260 -0.3902
   19SAPC  H11A 2426   2.294   1.289  10.692 -1.7959 -1.1661 -0.9249
   19SAPC  H11B 2427   2.247   1.277  10.523  0.7723  0.9716 -1.4869
   19SAPC     P 2428   2.146   1.543  10.484 -0.0121  0.1429  0.0450
   19SAPC   O13 2429   2.099   1.439  10.390  0.5048 -0.1865  0.0703
   19SAPC   O14 2430   2.056   1.654  10.520  0.6162 -0.0471 -0.3416
   19SAPC   O12 2431   2.190   1.466  10.614  0.3274 -0.2523 -0.0399
   19SAPC   O11 2432   2.282   1.603  10.426  0.1223 -0.0774 -0.2238
   19SAPC    C1 2433   2.301   1.747  10.431 -0.3582  0.2916 -0.2596
   19SAPC    HA 2434   2.281   1.789  10.531  0.2342  1.1016 -0.4713
   19SAPC    HB 2435   2.408   1.761  10.403  0.3620 -2.7120  0.5824
   19SAPC    C2 2436   2.220   1.812  10.325  0.4063 -0.0165  0.4858
   19SAPC    HS 2437   2.110   1.795  10.335  0.9267 -2.3971  3.4078
   19SAPC   O21 2438   2.265   1.762  10.192  1.0222  0.8127 -0.3975
   19SAPC   C21 2439   2.173   1.739  10.106  0.5959 -0.0050  0.4907
   19SAPC   O22 2440   2.051   1.744  10.126 -0.1458 -0.0711  0.1526
   19SAPC   C22 2441   2.223   1.685   9.976  0.0745  0.3967 -0.0481
   19SAPC   H2R 2442   2.163   1.727   9.892  1.6750  0.3245 -1.2695
   19SAPC   H2S 2443   2.325   1.727   9.962  0.1931 -0.4684 -2.2136
   19SAPC    C3 2444   2.244   1.966  10.321 -0.7177 -0.1321  0.5393
   19SAPC    HX 2445   2.345   1.983  10.280 -0.4719 -1.2226  0.6714
   19SAPC    HY 2446   2.229   2.000  10.426 -0.7334  0.9823  0.1838
   19SAPC   O31 2447   2.162   2.022  10.222  0.2316 -0.2417  0.2590
   19SAPC   C31 2448   2.055   2.085  10.260  0.1767  0.0269 -0.4925
   19SAPC   O32 2449   2.034   2.126  10.377 -0.0696  0.1037 -0.4384
   19SAPC   C32 2450   1.965   2.115  10.142  0.1795  1.3234 -0.1164
   19SAPC   H2X 2451   1.880   2.178  10.176  0.5773  2.4258 -1.1019
   19SAPC   H2Y 2452   1.935   2.014  10.104 -0.5846  0.5906  2.2708
   19SAPC   C23 2453   2.245   1.529   9.971  0.7393  0.3977 -0.3722
   19SAPC   H3R 2454   2.169   1.476  10.031 -0.3835  1.6183 -0.6618
   19SAPC   H3S 2455   2.345   1.519  10.019  0.9365 -0.1774 -0.8909
   19SAPC   C24 2456   2.257   1.472   9.833 -0.6385 -0.4039  0.0076
   19SAPC   H4R 2457   2.162   1.489   9.777 -1.4946  0.6327  1.7130
   19SAPC   H4S 2458   2.257   1.362   9.846 -0.1009 -0.6012 -1.4978
   19SAPC   C25 2459   2.369   1.525   9.739 -0.2221  0.3039  0.0900
   19SAPC   H5R 2460   2.456   1.560   9.797  1.8033  0.5032 -2.8450
   19SAPC   C26 2461   2.374   1.529   9.604  0.3891  0.1004 -0.1974
   19SAPC   H6R 2462   2.455   1.580   9.550 -0.6247 -0.2717 -2.1662
   19SAPC   C27 2463   2.263   1.475   9.520  0.1351  0.7342 -0.0968
   19SAPC   H7R 2464   2.220   1.560   9.463  1.4952  2.7591  1.7253
   19SAPC   H7S 2465   2.177   1.435   9.578  2.1700  0.4715  2.9755
   19SAPC   C28 2466   2.312   1.371   9.423  0.0293  0.4002  0.2151
   19SAPC   H8R 2467   2.309   1.272   9.472  0.2164  0.7151  0.8723
   19SAPC   C29 2468   2.350   1.391   9.299 -0.2328 -0.6951 -0.7350
   19SAPC   H9R 2469   2.394   1.302   9.250 -0.3744 -2.1219  1.5621
   19SAPC  C210 2470   2.355   1.530   9.234  0.2571 -0.2117  0.0457
   19SAPC  H10R 2471   2.402   1.612   9.294 -0.2754  0.5954 -0.6177
   19SAPC  H10S 2472   2.248   1.561   9.234  0.3574  0.4380  2.6498
   19SAPC  C211 2473   2.435   1.536   9.101  0.3933  0.4959 -0.1506
   19SAPC  H11R 2474   2.536   1.576   9.113  0.8776 -0.6620 -0.2155
   19SAPC  C212 2475   2.391   1.495   8.980 -0.6105  0.0863 -0.3086
   19SAPC  H12R 2476   2.452   1.535   8.897 -1.3942 -1.2860 -1.6019
   19SAPC  C213 2477   2.261   1.431   8.933 -0.6835 -0.6241  0.0823
   19SAPC  H13R 2478   2.193   1.419   9.020  0.3701  3.5636  1.7073
   19SAPC  H13S 2479   2.286   1.330   8.894 -0.2571 -0.0973 -1.0446
   19SAPC  C214 2480   2.186   1.511   8.833 -0.7740  0.3572 -0.1061
   19SAPC  H14R 2481   2.159   1.610   8.873 -0.0341  0.0107  1.2941
   19SAPC  C215 2482   2.139   1.474   8.704  0.7365 -0.4231  0.2578
   19SAPC  H15R 2483   2.086   1.553   8.649  0.1369  0.7531  2.3972
   19SAPC  C216 2484   2.142   1.350   8.624 -0.2538  0.1305  0.6198
   19SAPC  H16R 2485   2.067   1.272   8.647  0.5664 -1.3369 -1.3475
   19SAPC  H16S 2486   2.231   1.284   8.627 -0.1126  0.3253  0.7111
   19SAPC  C217 2487   2.113   1.381   8.480 -0.1679  0.1132  1.3853
   19SAPC  H17R 2488   2.015   1.431   8.463  0.8244  1.0689 -2.4516
   19SAPC  H17S 2489   2.107   1.290   8.417  0.3738  1.1879 -0.3104
   19SAPC  C218 2490   2.225   1.466   8.405 -0.1228 -0.2721  0.2544
   19SAPC  H18R 2491   2.327   1.427   8.423  0.2204  0.5029  0.0185
   19SAPC  H18S 2492   2.219   1.575   8.425 -0.9435 -0.2654  0.0114
   19SAPC  C219 2493   2.210   1.453   8.253 -0.0081 -0.3126 -0.0818
   19SAPC  H19R 2494   2.109   1.485   8.220  0.2048 -0.8936 -1.3871
   19SAPC  H19S 2495   2.207   1.346   8.221  1.9287  0.0988 -1.8742
   19SAPC  C220 2496   2.314   1.532   8.163 -0.1038  0.8176 -0.5749
   19SAPC  H20R 2497   2.329   1.637   8.197  0.4164  0.7379 -0.5611
   19SAPC  H20S 2498   2.281   1.532   8.057  1.4733  0.3588 -1.0912
   19SAPC  H20T 2499   2.409   1.476   8.173 -1.0087 -0.5474  1.0013
   19SAPC   C33 2500   2.041   2.174  10.030 -0.5365 -0.2571  0.2509
   19SAPC   H3X 2501   2.142   2.136  10.003  2.0383  3.4541  3.5332
   19SAPC   H3Y 2502   2.056   2.283  10.045 -0.1817 -0.1991 -0.5214
   19SAPC   C34 2503   1.942   2.182   9.914 -0.8069 -0.1149  0.1480
   19SAPC   H4X 2504   1.862   2.255   9.941 -2.2332 -1.7817  0.5872
   19SAPC   H4Y 2505   1.892   2.085   9.892 -2.2688  1.0159 -1.8172
   19SAPC   C35 2506   2.007   2.211   9.781 -0.3811  1.0920  0.5459
   19SAPC   H5X 2507   2.092   2.140   9.777  0.0185  1.5191  1.2638
   19SAPC   H5Y 2508   2.064   2.306   9.773  1.6267 -0.1973 -1.8211
   19SAPC   C36 2509   1.916   2.203   9.656 -0.0989  0.6086  0.3569
   19SAPC   H6X 2510   1.833   2.275   9.674 -1.8934 -1.4914  0.9904
   19SAPC   H6Y 2511   1.871   2.103   9.673  1.9496 -0.5875 -0.9210
   19SAPC   C37 2512   1.993   2.217   9.523 -0.0050  0.4042  0.4529
   19SAPC   H7X 2513   2.065   2.136   9.498 -1.6255 -1.0999  0.3902
   19SAPC   H7Y 2514   2.053   2.310   9.524  0.5798  0.0627 -0.5140
   19SAPC   C38 2515   1.895   2.235   9.408  0.3403 -0.4638  0.7834
   19SAPC   H8X 2516   1.842   2.333   9.404  0.1437 -0.6029 -2.4771
   19SAPC   H8Y 2517   1.821   2.153   9.419  1.5646 -1.5904  0.9305
   19SAPC   C39 2518   1.960   2.202   9.273  0.1014 -0.3721  0.2043
   19SAPC   H9X 2519   1.976   2.092   9.277 -0.1296 -0.5970 -2.8346
   19SAPC   H9Y 2520   2.062   2.245   9.271 -0.2957  0.7956  2.4469
   19SAPC  C310 2521   1.884   2.254   9.149 -0.1129 -0.0322 -0.3751
   19SAPC  H10X 2522   1.876   2.364   9.150  1.3118  0.1621 -2.6217
   19SAPC  H10Y 2523   1.784   2.206   9.143  1.6395 -4.0682 -1.2912
   19SAPC  C311 2524   1.966   2.209   9.025 -0.6502  0.1818  0.4905
   19SAPC  H11X 2525   1.979   2.098   9.026  0.4588  0.2522 -1.4842
   19SAPC  H11Y 2526   2.069   2.251   9.033 -0.0474 -0.6161 -1.9565
   19SAPC  C312 2527   1.912   2.263   8.895  0.0579 -0.0855 -0.2498
   19SAPC  H12X 2528   1.912   2.374   8.907  1.5997 -0.1196  0.2476
   19SAPC  H12Y 2529   1.811   2.222   8.875  0.8830 -2.5902  0.3578
   19SAPC  C313 2530   2.009   2.239   8.779 -0.0150  0.4686 -0.1602
   19SAPC  H13X 2531   2.030   2.131   8.764  0.3098  0.4792  0.1907
   19SAPC  H13Y 2532   2.101   2.292   8.812 -0.5663  0.8696  0.7785
   19SAPC  C314 2533   1.958   2.301   8.648 -0.0528 -0.4624 -0.3648
   19SAPC  H14X 2534   1.957   2.412   8.652  0.8104 -0.4826  1.9140
   19SAPC  H14Y 2535   1.855   2.272   8.619 -0.6786  0.8091  0.4777
   19SAPC  C315 2536   2.045   2.262   8.529  0.3687  0.1622 -0.2364
   19SAPC  H15X 2537   2.004   2.169   8.485  0.4574 -0.9990  2.0160
   19SAPC  H15Y 2538   2.145   2.231   8.566 -0.5625 -2.1859  0.4524
   19SAPC  C316 2539   2.047   2.379   8.424 -0.1193  0.2904 -0.2671
   19SAPC  H16X 2540   2.137   2.362   8.361 -0.1562  0.4351 -0.3571
   19SAPC  H16Y 2541   2.081   2.466   8.484 -0.5007  0.6118 -0.5115
   19SAPC  C317 2542   1.921   2.402   8.357 -0.0507 -0.2634  0.1719
   19SAPC  H17X 2543   1.853   2.451   8.430  1.7729 -0.0540  1.7764
   19SAPC  H17Y 2544   1.882   2.303   8.323 -1.7543  0.2760  0.4574
   19SAPC  C318 2545   1.944   2.489   8.233 -0.0681 -0.8678 -0.1431
   19SAPC  H18X 2546   2.030   2.448   8.174 -0.9355 -0.5383 -1.6940
   19SAPC  H18Y 2547   1.972   2.593   8.259 -0.0065 -0.9699  0.2041
   19SAPC  H18Z 2548   1.852   2.490   8.171 -0.1969 -0.0267  0.0547
   20SAPC     N 2549   0.942   3.918  11.199  0.2392 -0.6634  0.1368
   20SAPC   C12 2550   1.082   3.887  11.225 -0.4353 -0.7300  0.8882
   20SAPC  H12A 2551   1.088   3.907  11.331 -2.6093  0.2134  0.8935
   20SAPC  H12B 2552   1.146   3.955  11.171 -1.9435  1.1214  1.2873
   20SAPC   C13 2553   0.855   3.819  11.269 -0.0261  0.8558 -0.0322
   20SAPC  H13A 2554   0.880   3.721  11.232 -0.6214  0.1300  1.4109
   20SAPC  H13B 2555   0.873   3.820  11.376  0.8759 -0.0667 -0.1616
   20SAPC  H13C 2556   0.750   3.834  11.251 -0.3669 -0.5862  0.6343
   20SAPC   C14 2557   0.908   4.050  11.255 -0.2903  0.3831 -0.0201
   20SAPC  H14A 2558   0.968   4.130  11.214  0.5940  0.3426  1.1488
   20SAPC  H14B 2559   0.809   4.088  11.237 -0.6402 -0.3286  0.3370
   20SAPC  H14C 2560   0.928   4.040  11.360  3.1264  0.6822 -0.5388
   20SAPC   C15 2561   0.900   3.901  11.056  0.5791 -0.0028  0.3010
   20SAPC  H15A 2562   0.931   3.802  11.026  0.7634  0.2463 -0.3375
   20SAPC  H15B 2563   0.796   3.911  11.031  0.7561 -0.2737 -0.5704
   20SAPC  H15C 2564   0.938   3.978  10.990 -0.0612 -1.2953 -1.6546
   20SAPC   C11 2565   1.134   3.751  11.170 -0.2355  0.7742 -0.1810
   20SAPC  H11A 2566   1.080   3.661  11.206  1.4505 -0.7434 -1.2922
   20SAPC  H11B 2567   1.233   3.748  11.219 -1.8879  3.3150  3.8525
   20SAPC     P 2568   1.265   3.803  10.951  0.1803 -0.3823 -0.4780
   20SAPC   O13 2569   1.325   3.900  11.051  0.0643  0.0474  0.5004
   20SAPC   O14 2570   1.349   3.695  10.891 -0.6252 -0.6742  0.4984
   20SAPC   O12 2571   1.150   3.733  11.026  0.1800 -0.0706  0.4540
   20SAPC   O11 2572   1.195   3.882  10.831 -0.3985 -0.0539  0.3025
   20SAPC    C1 2573   1.092   3.833  10.750 -0.0743 -0.3473  0.1684
   20SAPC    HA 2574   1.034   3.754  10.802 -0.8806  0.3749  0.3793
   20SAPC    HB 2575   1.018   3.914  10.733  0.5385  0.1433 -0.2062
   20SAPC    C2 2576   1.146   3.779  10.611 -0.7011 -0.4889 -0.3562
   20SAPC    HS 2577   1.235   3.716  10.634 -0.5314  0.0470  0.5492
   20SAPC   O21 2578   1.168   3.895  10.532 -0.0679 -0.8910 -0.3360
   20SAPC   C21 2579   1.280   3.902  10.455 -0.6749 -0.2374 -0.7384
   20SAPC   O22 2580   1.379   3.835  10.480  0.8851 -0.0162  0.3281
   20SAPC   C22 2581   1.270   3.998  10.337 -0.2721  0.6161  0.0605
   20SAPC   H2R 2582   1.174   3.982  10.284 -0.5697  0.0625  0.7631
   20SAPC   H2S 2583   1.256   4.094  10.391 -4.0009  1.3280 -1.8006
   20SAPC    C3 2584   1.034   3.684  10.547  0.1302  0.3134 -1.7031
   20SAPC    HX 2585   0.946   3.753  10.549 -0.3824 -0.3540  0.2097
   20SAPC    HY 2586   1.019   3.600  10.617  2.4198  2.0560  1.0886
   20SAPC   O31 2587   1.070   3.646  10.417  0.0854 -0.1029 -0.1758
   20SAPC   C31 2588   1.156   3.541  10.404  0.4160 -0.2701 -0.0934
   20SAPC   O32 2589   1.203   3.483  10.501  0.4092 -0.5025 -0.7855
   20SAPC   C32 2590   1.151   3.496  10.259 -0.1604 -0.1789 -0.0935
   20SAPC   H2X 2591   1.153   3.589  10.198  0.3893  0.8742  1.4550
   20SAPC   H2Y 2592   1.058   3.439  10.242  1.1616 -2.7602  0.7875
   20SAPC   C23 2593   1.394   3.984  10.244 -0.0768 -0.1526 -0.4261
   20SAPC   H3R 2594   1.481   3.968  10.310  1.6815  3.2594 -1.6510
   20SAPC   H3S 2595   1.412   4.080  10.190  1.0810  0.3316  0.7732
   20SAPC   C24 2596   1.383   3.869  10.141 -0.3735  0.0535 -0.4047
   20SAPC   H4R 2597   1.373   3.774  10.197 -0.1746  0.1345 -0.2278
   20SAPC   H4S 2598   1.476   3.852  10.083 -2.7125 -1.3083 -4.0605
   20SAPC   C25 2599   1.271   3.879  10.045 -0.6742 -0.5794 -0.3824
   20SAPC   H5R 2600   1.174   3.841  10.080 -0.1601 -1.4443  0.1211
   20SAPC   C26 2601   1.281   3.931   9.924  0.0125  0.1099  0.8695
   20SAPC   H6R 2602   1.188   3.939   9.864  1.5628  0.0908 -1.6882
   20SAPC   C27 2603   1.409   3.986   9.869 -0.0177  0.5460  0.2973
   20SAPC   H7R 2604   1.454   3.914   9.798 -2.3557  0.4915 -1.2135
   20SAPC   H7S 2605   1.487   4.009   9.945  0.0025  0.4029  0.3202
   20SAPC   C28 2606   1.373   4.123   9.804 -0.0500 -0.1284 -0.4808
   20SAPC   H8R 2607   1.361   4.200   9.882 -0.5170 -1.6954  1.0397
   20SAPC   C29 2608   1.363   4.161   9.674 -0.3371  0.1713 -0.9879
   20SAPC   H9R 2609   1.349   4.269   9.658 -0.3309  0.5735  1.4199
   20SAPC  C210 2610   1.389   4.064   9.556 -0.5967  0.0352 -0.3255
   20SAPC  H10R 2611   1.367   3.961   9.590  1.4227 -0.3099  0.0772
   20SAPC  H10S 2612   1.498   4.063   9.533 -0.5429  0.4500 -0.1048
   20SAPC  C211 2613   1.320   4.100   9.432  0.2324  0.0357  0.4694
   20SAPC  H11R 2614   1.291   4.205   9.421  2.6626  0.8014  0.7718
   20SAPC  C212 2615   1.275   4.007   9.337 -0.4187 -0.5557 -0.1049
   20SAPC  H12R 2616   1.241   4.038   9.237  0.5984  0.3004 -0.2084
   20SAPC  C213 2617   1.290   3.856   9.336 -0.1194  0.2821  0.3128
   20SAPC  H13R 2618   1.305   3.805   9.434 -1.0446  0.0522  0.3448
   20SAPC  H13S 2619   1.371   3.817   9.272 -0.0629  0.2633  0.3960
   20SAPC  C214 2620   1.171   3.790   9.267  0.1277 -0.3969 -1.4512
   20SAPC  H14R 2621   1.089   3.762   9.336  0.1823 -0.0711 -1.2506
   20SAPC  C215 2622   1.153   3.750   9.137  0.2849  0.8208  0.3551
   20SAPC  H15R 2623   1.069   3.687   9.105  0.0302  1.9867 -1.4029
   20SAPC  C216 2624   1.259   3.770   9.036  0.7793  0.6359 -0.0222
   20SAPC  H16R 2625   1.326   3.682   9.024  1.2657  1.0367 -0.2577
   20SAPC  H16S 2626   1.326   3.853   9.069  2.1257 -1.1066  1.9331
   20SAPC  C217 2627   1.220   3.801   8.892 -0.0585 -0.2967 -0.5587
   20SAPC  H17R 2628   1.193   3.908   8.890  1.7857  0.2184 -0.3183
   20SAPC  H17S 2629   1.129   3.749   8.855 -1.1067  0.0179  1.4736
   20SAPC  C218 2630   1.343   3.784   8.797 -0.2836 -0.2748 -0.0214
   20SAPC  H18R 2631   1.376   3.679   8.783  1.1745  0.3425 -1.5203
   20SAPC  H18S 2632   1.424   3.844   8.842 -0.1091 -0.8273  0.4040
   20SAPC  C219 2633   1.309   3.843   8.658 -0.5781  0.0459  0.2224
   20SAPC  H19R 2634   1.294   3.953   8.659  1.2881  0.3284  1.8685
   20SAPC  H19S 2635   1.214   3.797   8.622 -1.0685  1.8323 -0.8942
   20SAPC  C220 2636   1.422   3.815   8.553 -0.1254  0.7498  0.6934
   20SAPC  H20R 2637   1.464   3.712   8.555  0.6466  1.0678  1.8268
   20SAPC  H20S 2638   1.503   3.889   8.572 -0.6943  1.4701  0.3773
   20SAPC  H20T 2639   1.378   3.836   8.454  0.0540  0.9356  0.6524
   20SAPC   C33 2640   1.269   3.410  10.227  0.0954 -0.1060 -0.0921
   20SAPC   H3X 2641   1.305   3.339  10.305 -1.4327 -0.3596  0.4012
   20SAPC   H3Y 2642   1.346   3.490  10.215  0.3040 -0.2004  0.5576
   20SAPC   C34 2643   1.237   3.331  10.094 -0.6352 -0.4145 -0.8125
   20SAPC   H4X 2644   1.170   3.243  10.108  0.7160 -1.8729 -2.9462
   20SAPC   H4Y 2645   1.340   3.292  10.077  1.2172  1.8795  3.4192
   20SAPC   C35 2646   1.212   3.410   9.974  0.5362 -0.9098 -0.4398
   20SAPC   H5X 2647   1.275   3.501   9.963 -0.3718 -0.3574 -1.2215
   20SAPC   H5Y 2648   1.107   3.444   9.980 -0.2839 -2.6800 -2.9846
   20SAPC   C36 2649   1.226   3.335   9.841  0.0183  0.2033 -0.0815
   20SAPC   H6X 2650   1.197   3.231   9.866 -0.4781  0.4194  0.2538
   20SAPC   H6Y 2651   1.334   3.337   9.814  1.0048 -2.6422  2.9540
   20SAPC   C37 2652   1.148   3.389   9.720  0.0039 -0.1675 -0.0626
   20SAPC   H7X 2653   1.187   3.492   9.703  1.2067 -0.8860 -2.0009
   20SAPC   H7Y 2654   1.040   3.394   9.747 -0.0054 -0.5824 -0.0190
   20SAPC   C38 2655   1.170   3.299   9.597  0.1567  0.1906 -1.2654
   20SAPC   H8X 2656   1.139   3.193   9.611 -0.2756  0.3136 -1.2673
   20SAPC   H8Y 2657   1.270   3.313   9.551  0.0576  2.5747 -0.8605
   20SAPC   C39 2658   1.092   3.351   9.477  0.9571  0.0590  0.9119
   20SAPC   H9X 2659   1.133   3.454   9.469 -2.7729  1.6486 -0.1817
   20SAPC   H9Y 2660   0.985   3.365   9.505 -0.2410 -1.9091 -2.1967
   20SAPC  C310 2661   1.110   3.275   9.340  0.0299  0.1079  0.1702
   20SAPC  H10X 2662   1.090   3.168   9.363  1.6944 -0.7736 -2.1151
   20SAPC  H10Y 2663   1.215   3.287   9.305 -0.4192  2.8070 -0.4720
   20SAPC  C311 2664   1.009   3.341   9.248  0.6713 -0.1675 -0.3009
   20SAPC  H11X 2665   1.031   3.449   9.243 -0.7098  0.1047 -1.3386
   20SAPC  H11Y 2666   0.904   3.325   9.283  1.5060 -0.1534  2.4318
   20SAPC  C312 2667   1.015   3.281   9.106 -0.1907 -0.9901  1.1762
   20SAPC  H12X 2668   0.918   3.279   9.052 -0.0899 -0.2828  0.9659
   20SAPC  H12Y 2669   1.042   3.173   9.111 -0.0662 -1.2517 -2.4283
   20SAPC  C313 2670   1.116   3.346   9.008  0.3629  0.1483  0.5530
   20SAPC  H13X 2671   1.211   3.301   9.044  0.1904  1.0968  2.3433
   20SAPC  H13Y 2672   1.102   3.451   9.040 -1.7781 -0.4960  1.9749
   20SAPC  C314 2673   1.076   3.333   8.861  0.9799 -0.9385  0.8550
   20SAPC  H14X 2674   0.967   3.349   8.853  1.1829 -0.0145 -0.2860
   20SAPC  H14Y 2675   1.111   3.232   8.829  2.4255 -0.0607 -0.4458
   20SAPC  C315 2676   1.152   3.416   8.769 -0.5548  0.1382  0.3304
   20SAPC  H15X 2677   1.250   3.370   8.743 -2.3655 -2.0153 -3.5912
   20SAPC  H15Y 2678   1.178   3.511   8.820  1.2069  0.2142 -0.6030
   20SAPC  C316 2679   1.090   3.441   8.629  0.1160  0.4363  0.6856
   20SAPC  H16X 2680   1.024   3.530   8.633  1.3761  1.5719 -1.6108
   20SAPC  H16Y 2681   1.037   3.349   8.596 -0.4987  1.2994 -0.8189
   20SAPC  C317 2682   1.205   3.460   8.524  0.7655  0.0521 -0.0222
   20SAPC  H17X 2683   1.253   3.360   8.511  0.8007  0.2167 -1.3311
   20SAPC  H17Y 2684   1.275   3.537   8.561 -0.0861  0.5634  0.5407
   20SAPC  C318 2685   1.155   3.519   8.390 -0.2283  0.1380 -0.4579
   20SAPC  H18X 2686   1.096   3.609   8.416 -1.1935 -0.9042  1.1174
   20SAPC  H18Y 2687   1.099   3.440   8.336 -0.6545  0.2872 -0.2377
   20SAPC  H18Z 2688   1.234   3.549   8.318  0.6958  0.2277  0.5587
   21SAPC     N 2689   2.070   3.248  10.601  0.3702 -0.0895 -0.1988
   21SAPC   C12 2690   1.979   3.339  10.517  0.4498 -0.5667 -0.0971
   21SAPC  H12A 2691   1.964   3.297  10.418 -0.3218 -1.6719  0.4737
   21SAPC  H12B 2692   2.027   3.434  10.502  1.1062 -1.3014 -3.5807
   21SAPC   C13 2693   2.013   3.113  10.621  0.1474 -0.5408  0.5616
   21SAPC  H13A 2694   1.961   3.073  10.536  0.8416 -0.8815  0.2915
   21SAPC  H13B 2695   2.089   3.044  10.656  1.2653  1.2297  1.8272
   21SAPC  H13C 2696   1.927   3.116  10.687  0.3077 -0.0765  0.7529
   21SAPC   C14 2697   2.198   3.229  10.523  0.5539  0.5984 -0.2683
   21SAPC  H14A 2698   2.260   3.152  10.566 -0.8601  0.2331  1.2497
   21SAPC  H14B 2699   2.164   3.204  10.424 -1.5388  1.1558  0.2508
   21SAPC  H14C 2700   2.246   3.325  10.511 -0.8498  1.1023 -2.3175
   21SAPC   C15 2701   2.101   3.309  10.735 -0.1102 -0.2913  0.3043
   21SAPC  H15A 2702   2.008   3.349  10.771  0.6016  2.7402 -0.8810
   21SAPC  H15B 2703   2.138   3.232  10.801  2.1481 -0.5361 -1.1074
   21SAPC  H15C 2704   2.179   3.381  10.712 -0.3471  0.2221  1.0796
   21SAPC   C11 2705   1.834   3.370  10.586 -1.1716  0.6022 -0.1573
   21SAPC  H11A 2706   1.796   3.271  10.616  1.2665 -0.3801 -0.0696
   21SAPC  H11B 2707   1.775   3.424  10.509 -0.0286  2.5867  0.2555
   21SAPC     P 2708   1.900   3.600  10.707  0.1845  0.0308 -0.5139
   21SAPC   O13 2709   1.802   3.695  10.760 -0.4938  0.3132  0.2272
   21SAPC   O14 2710   2.025   3.601  10.780 -0.8308  0.2867 -0.1067
   21SAPC   O12 2711   1.845   3.449  10.708  0.6170 -0.2624 -0.3319
   21SAPC   O11 2712   1.931   3.634  10.558 -1.3972 -0.1168 -0.0408
   21SAPC    C1 2713   1.835   3.702  10.480 -0.3483 -0.4425  0.2750
   21SAPC    HA 2714   1.736   3.664  10.513 -0.2395 -1.1386 -0.1818
   21SAPC    HB 2715   1.843   3.812  10.494 -2.5893 -0.4867  2.8284
   21SAPC    C2 2716   1.835   3.676  10.327  0.4375 -0.5045  0.5285
   21SAPC    HS 2717   1.809   3.568  10.321  0.8131 -0.5752  0.1308
   21SAPC   O21 2718   1.965   3.702  10.283 -0.4306  0.9106  0.5605
   21SAPC   C21 2719   2.026   3.604  10.208  0.4667 -0.1077 -0.1760
   21SAPC   O22 2720   1.971   3.493  10.188 -0.2531 -0.2067  0.0056
   21SAPC   C22 2721   2.165   3.647  10.154  0.0293  0.1324 -0.2603
   21SAPC   H2R 2722   2.165   3.729  10.079  1.2438  0.8520  0.4798
   21SAPC   H2S 2723   2.217   3.683  10.246 -2.3685  1.8246  0.5393
   21SAPC    C3 2724   1.732   3.772  10.254 -0.5823 -0.3310  0.2609
   21SAPC    HX 2725   1.768   3.874  10.278 -1.6104  0.2276 -0.4855
   21SAPC    HY 2726   1.629   3.764  10.297  0.4168 -1.4135  2.6065
   21SAPC   O31 2727   1.738   3.756  10.108 -0.5913 -0.0334  0.4223
   21SAPC   C31 2728   1.682   3.645  10.059 -0.3744 -0.4317  0.3151
   21SAPC   O32 2729   1.641   3.551  10.123 -0.1435 -0.3319  0.0858
   21SAPC   C32 2730   1.668   3.669   9.900 -0.3213  0.0244 -0.3694
   21SAPC   H2X 2731   1.767   3.695   9.859 -0.7938  2.9232  0.1059
   21SAPC   H2Y 2732   1.621   3.769   9.890  1.3384  0.8543 -0.2048
   21SAPC   C23 2733   2.256   3.548  10.082 -0.6400 -0.0319  0.4655
   21SAPC   H3R 2734   2.208   3.519   9.986  0.2973  1.2917 -0.4235
   21SAPC   H3S 2735   2.259   3.452  10.138  0.0236 -0.0727  0.3689
   21SAPC   C24 2736   2.398   3.602  10.052 -0.3246  0.7285 -0.3720
   21SAPC   H4R 2737   2.453   3.621  10.146 -0.1614  0.9582 -0.5116
   21SAPC   H4S 2738   2.384   3.698   9.999  0.9474  0.0708 -1.9741
   21SAPC   C25 2739   2.476   3.511   9.966 -0.3264 -0.1759 -0.3079
   21SAPC   H5R 2740   2.547   3.451  10.024 -2.2225 -1.5879  0.6731
   21SAPC   C26 2741   2.469   3.489   9.839 -0.3988  0.2989  0.3196
   21SAPC   H6R 2742   2.540   3.417   9.796 -0.0244  2.0936 -2.2467
   21SAPC   C27 2743   2.381   3.557   9.741 -0.0047  0.8264  0.0983
   21SAPC   H7R 2744   2.453   3.629   9.696  0.9796  1.8346  3.0447
   21SAPC   H7S 2745   2.297   3.617   9.781  1.2496  2.3628  0.5132
   21SAPC   C28 2746   2.321   3.460   9.645  0.4191 -0.0430 -0.6658
   21SAPC   H8R 2747   2.275   3.371   9.690 -0.7854 -1.2151 -3.9335
   21SAPC   C29 2748   2.317   3.480   9.520 -0.7062  0.3014  0.7578
   21SAPC   H9R 2749   2.271   3.407   9.451  2.7612  1.3351 -2.9822
   21SAPC  C210 2750   2.377   3.590   9.436 -0.1228  0.5472 -0.3657
   21SAPC  H10R 2751   2.487   3.572   9.436 -0.5365 -2.6665 -1.9153
   21SAPC  H10S 2752   2.364   3.691   9.481 -0.3472  0.2433  0.2640
   21SAPC  C211 2753   2.316   3.599   9.294  0.2764  0.5484 -0.7744
   21SAPC  H11R 2754   2.247   3.682   9.270  2.4194  1.9644 -2.3362
   21SAPC  C212 2755   2.335   3.514   9.192 -0.1881 -0.2563  0.4763
   21SAPC  H12R 2756   2.293   3.523   9.090 -0.2660 -0.5185  0.4855
   21SAPC  C213 2757   2.429   3.392   9.206  0.2714  0.2148  0.1293
   21SAPC  H13R 2758   2.382   3.291   9.209  1.6594 -0.5272 -1.3417
   21SAPC  H13S 2759   2.494   3.391   9.295  0.9249 -0.9185 -0.3460
   21SAPC  C214 2760   2.533   3.385   9.106 -0.0359 -0.0192  0.5141
   21SAPC  H14R 2761   2.622   3.448   9.123  0.1659 -0.0836 -0.2676
   21SAPC  C215 2762   2.528   3.310   8.986 -0.0836 -0.0195  0.0925
   21SAPC  H15R 2763   2.622   3.302   8.930  0.8116 -1.8006  1.7148
   21SAPC  C216 2764   2.400   3.225   8.956  0.0608  0.3207  0.2136
   21SAPC  H16R 2765   2.302   3.268   8.986  0.3745  0.2873  1.3096
   21SAPC  H16S 2766   2.415   3.127   9.007  1.6786  0.5078  0.1533
   21SAPC  C217 2767   2.379   3.212   8.798 -0.4479 -0.1628 -0.3059
   21SAPC  H17R 2768   2.408   3.305   8.745 -1.2172  0.4795  0.3790
   21SAPC  H17S 2769   2.272   3.186   8.780 -0.6406  0.0497  0.5160
   21SAPC  C218 2770   2.458   3.089   8.738  0.0590 -0.1261  0.6707
   21SAPC  H18R 2771   2.420   2.994   8.781 -0.2522 -0.3742 -0.1249
   21SAPC  H18S 2772   2.557   3.101   8.787  0.1816 -2.1328  1.0215
   21SAPC  C219 2773   2.467   3.092   8.586 -0.2576 -0.6285 -0.7077
   21SAPC  H19R 2774   2.530   3.179   8.556 -0.3324 -0.7951 -1.3666
   21SAPC  H19S 2775   2.359   3.096   8.561 -0.6479 -0.8996  0.8380
   21SAPC  C220 2776   2.527   2.958   8.539 -0.2689  0.3400  0.0108
   21SAPC  H20R 2777   2.525   2.937   8.429 -0.2221 -0.6612  0.1873
   21SAPC  H20S 2778   2.466   2.875   8.580 -2.2102  1.8955  0.3921
   21SAPC  H20T 2779   2.632   2.949   8.573  0.3723 -0.7508 -2.0883
   21SAPC   C33 2780   1.600   3.557   9.812  0.2046  0.1270 -0.0904
   21SAPC   H3X 2781   1.494   3.542   9.843  0.6767 -1.0445  1.0176
   21SAPC   H3Y 2782   1.644   3.456   9.827  0.1162  0.2072  0.7783
   21SAPC   C34 2783   1.588   3.611   9.673 -0.0638  0.2265  0.9370
   21SAPC   H4X 2784   1.691   3.639   9.641 -0.2342  1.7588  1.6122
   21SAPC   H4Y 2785   1.540   3.711   9.667  2.3857  1.3969 -2.4945
   21SAPC   C35 2786   1.526   3.516   9.569 -0.0836 -0.0708 -0.2707
   21SAPC   H5X 2787   1.415   3.514   9.574 -0.1570  0.8774 -1.1157
   21SAPC   H5Y 2788   1.576   3.419   9.590  3.1929  1.4210 -0.5159
   21SAPC   C36 2789   1.558   3.547   9.419 -0.2147  0.5597  0.2731
   21SAPC   H6X 2790   1.666   3.543   9.393 -0.5656 -0.1338 -1.1658
   21SAPC   H6Y 2791   1.537   3.655   9.405 -0.3945  0.3671 -1.1245
   21SAPC   C37 2792   1.471   3.465   9.324 -0.0120 -0.6526 -0.4575
   21SAPC   H7X 2793   1.361   3.475   9.338 -0.1922  0.7518 -2.4036
   21SAPC   H7Y 2794   1.483   3.360   9.355 -1.3465 -0.0053  2.6270
   21SAPC   C38 2795   1.508   3.500   9.177 -0.8749  0.4036  0.1139
   21SAPC   H8X 2796   1.518   3.610   9.169 -0.3167  0.2385 -2.3316
   21SAPC   H8Y 2797   1.424   3.464   9.115 -0.5773 -0.4838  0.2046
   21SAPC   C39 2798   1.641   3.441   9.126 -0.8993  1.0285  0.5027
   21SAPC   H9X 2799   1.644   3.342   9.075 -2.6582  1.2467 -0.0879
   21SAPC   H9Y 2800   1.720   3.436   9.204 -0.5590  1.1385  0.1684
   21SAPC  C310 2801   1.696   3.548   9.033  0.4411 -0.7213 -0.1649
   21SAPC  H10X 2802   1.690   3.644   9.088 -1.4693 -1.2254  0.5711
   21SAPC  H10Y 2803   1.635   3.550   8.940  0.5577  1.9351 -0.2616
   21SAPC  C311 2804   1.841   3.533   8.991  0.1422 -1.0028  0.2669
   21SAPC  H11X 2805   1.901   3.534   9.084 -0.2581 -2.1871  0.5630
   21SAPC  H11Y 2806   1.871   3.621   8.930 -0.1064 -2.1469 -1.5845
   21SAPC  C312 2807   1.859   3.401   8.906  0.6616 -0.2604  0.5884
   21SAPC  H12X 2808   1.797   3.416   8.815  2.2653  0.3451 -0.4451
   21SAPC  H12Y 2809   1.825   3.319   8.973  0.5233 -1.8780 -1.3480
   21SAPC  C313 2810   2.004   3.379   8.856  0.5539  0.0558 -0.6336
   21SAPC  H13X 2811   2.000   3.288   8.792 -0.9300 -1.3463  1.3204
   21SAPC  H13Y 2812   2.065   3.345   8.943  0.2247 -0.7958 -0.7191
   21SAPC  C314 2813   2.073   3.492   8.781  0.8767  0.2021  0.4514
   21SAPC  H14X 2814   2.178   3.456   8.783  1.5980  2.1426 -0.1212
   21SAPC  H14Y 2815   2.074   3.579   8.850 -0.8742  0.5484  0.0923
   21SAPC  C315 2816   2.021   3.546   8.647  0.1313  0.4462  0.1027
   21SAPC  H15X 2817   1.913   3.525   8.634  0.5457 -1.1648 -1.0821
   21SAPC  H15Y 2818   2.079   3.506   8.561 -1.2944  1.7978 -1.5608
   21SAPC  C316 2819   2.025   3.700   8.638 -0.2816 -0.3114 -0.3168
   21SAPC  H16X 2820   2.129   3.735   8.654  0.6825 -2.1577 -2.0566
   21SAPC  H16Y 2821   1.963   3.727   8.726 -0.3995 -1.8493  0.1062
   21SAPC  C317 2822   1.979   3.771   8.502 -0.3551 -0.2209 -0.7572
   21SAPC  H17X 2823   2.062   3.764   8.428  0.1217  3.1927 -0.6976
   21SAPC  H17Y 2824   1.979   3.881   8.516  3.5315 -0.1195 -0.4349
   21SAPC  C318 2825   1.843   3.723   8.451 -0.2897  0.1700  0.1932
   21SAPC  H18X 2826   1.824   3.768   8.351 -0.2427  1.2375  0.6505
   21SAPC  H18Y 2827   1.761   3.751   8.520 -0.1238  2.2988 -0.4025
   21SAPC  H18Z 2828   1.837   3.614   8.430 -1.2861  0.0922  0.8144
   22SAPC     N 2829   1.531   0.506  10.664 -0.0904 -0.5310 -0.5017
   22SAPC   C12 2830   1.432   0.626  10.642 -0.3595  0.1032 -0.6742
   22SAPC  H12A 2831   1.333   0.590  10.623  0.9574 -2.7473 -2.8756
   22SAPC  H12B 2832   1.461   0.683  10.554 -2.0097  3.0210  0.5276
   22SAPC   C13 2833   1.670   0.554  10.679  0.1406 -0.5239  0.9601
   22SAPC  H13A 2834   1.739   0.472  10.687  0.4746 -0.4524 -0.8838
   22SAPC  H13B 2835   1.703   0.606  10.590  2.3522 -1.4679  1.1565
   22SAPC  H13C 2836   1.686   0.628  10.757  0.6895  1.3362 -0.8239
   22SAPC   C14 2837   1.479   0.428  10.778  0.1975  0.2960 -0.0185
   22SAPC  H14A 2838   1.371   0.425  10.784  0.1370  0.2330 -0.9700
   22SAPC  H14B 2839   1.532   0.340  10.811 -2.3015 -0.0604  3.6124
   22SAPC  H14C 2840   1.502   0.490  10.863 -0.2602  0.1540  0.2109
   22SAPC   C15 2841   1.522   0.400  10.552  0.2335 -0.2126  0.6395
   22SAPC  H15A 2842   1.531   0.452  10.458  0.9007 -2.1437 -0.4235
   22SAPC  H15B 2843   1.606   0.333  10.555 -1.0356 -1.9237  0.0143
   22SAPC  H15C 2844   1.431   0.342  10.557 -0.4510  0.5405 -1.7550
   22SAPC   C11 2845   1.435   0.732  10.755  0.2815  0.3373 -0.6653
   22SAPC  H11A 2846   1.534   0.782  10.765 -0.5129  1.8961 -0.1556
   22SAPC  H11B 2847   1.411   0.680  10.850  1.2589 -0.0012 -0.5941
   22SAPC     P 2848   1.356   0.949  10.632  0.6993 -0.0823 -0.0395
   22SAPC   O13 2849   1.230   1.038  10.637 -0.2256  0.8578  0.0260
   22SAPC   O14 2850   1.488   1.009  10.670  0.8095  0.0678 -0.4146
   22SAPC   O12 2851   1.328   0.823  10.723  0.3081  0.2190 -0.5227
   22SAPC   O11 2852   1.382   0.865  10.500  0.0185 -0.4341 -0.2838
   22SAPC    C1 2853   1.269   0.824  10.422 -0.5868  0.1892  0.0620
   22SAPC    HA 2854   1.237   0.719  10.443 -2.2828  0.3159 -1.6095
   22SAPC    HB 2855   1.178   0.885  10.435  0.4768  1.6808  0.7307
   22SAPC    C2 2856   1.307   0.840  10.271 -0.7426  0.4466 -0.0028
   22SAPC    HS 2857   1.229   0.788  10.212 -1.0191  1.2751 -0.3782
   22SAPC   O21 2858   1.447   0.790  10.248 -0.8155 -0.6250  0.2561
   22SAPC   C21 2859   1.478   0.661  10.280  0.5576  0.1805 -0.7146
   22SAPC   O22 2860   1.403   0.578  10.330 -0.5519  0.5670 -0.5915
   22SAPC   C22 2861   1.618   0.627  10.227  0.4555 -0.0176  0.1990
   22SAPC   H2R 2862   1.666   0.715  10.179  1.7459 -0.6728  0.2457
   22SAPC   H2S 2863   1.680   0.603  10.315 -0.1625 -2.5213  0.0264
   22SAPC    C3 2864   1.317   0.989  10.224 -0.0325 -0.6028  0.2125
   22SAPC    HX 2865   1.344   0.992  10.117 -0.6561 -0.8097  0.0437
   22SAPC    HY 2866   1.401   1.046  10.270 -0.6403  0.6935 -0.2243
   22SAPC   O31 2867   1.193   1.057  10.254  0.3903 -0.2430 -0.6036
   22SAPC   C31 2868   1.146   1.159  10.186 -0.1072 -0.4998 -0.3425
   22SAPC   O32 2869   1.208   1.211  10.097 -0.5306 -0.3679 -0.9216
   22SAPC   C32 2870   1.008   1.183  10.221  0.0834  0.0103  0.4535
   22SAPC   H2X 2871   1.006   1.197  10.331 -0.4206 -1.6796  0.6888
   22SAPC   H2Y 2872   0.941   1.096  10.205  1.1394 -0.9513  1.1224
   22SAPC   C23 2873   1.595   0.506  10.131 -0.5193 -0.3315 -0.2419
   22SAPC   H3R 2874   1.513   0.536  10.063 -0.5549  1.1834  0.4263
   22SAPC   H3S 2875   1.554   0.428  10.198  0.0551 -1.2120 -0.9017
   22SAPC   C24 2876   1.725   0.475  10.067  0.7284  1.2480 -0.4763
   22SAPC   H4R 2877   1.764   0.387  10.121 -0.6958  1.4161  0.8963
   22SAPC   H4S 2878   1.807   0.549  10.082  0.6690  1.3389 -0.5905
   22SAPC   C25 2879   1.711   0.427   9.923  0.6303  0.5223 -0.4195
   22SAPC   H5R 2880   1.656   0.332   9.922 -0.0305  0.7367  3.2176
   22SAPC   C26 2881   1.740   0.495   9.813  0.1476 -0.6212 -0.0763
   22SAPC   H6R 2882   1.704   0.463   9.714  0.7084  1.9195 -1.1658
   22SAPC   C27 2883   1.796   0.638   9.830 -0.0265  0.0941  0.1985
   22SAPC   H7R 2884   1.871   0.640   9.912  0.7506  0.2025 -0.5045
   22SAPC   H7S 2885   1.709   0.701   9.859 -0.8715 -0.0863 -1.8167
   22SAPC   C28 2886   1.859   0.685   9.705  0.7965 -0.1281  0.8212
   22SAPC   H8R 2887   1.957   0.644   9.678  2.3567  2.0917  2.6519
   22SAPC   C29 2888   1.796   0.772   9.616 -0.0846  0.3925  0.7903
   22SAPC   H9R 2889   1.857   0.791   9.526  0.2788  1.4887  1.2550
   22SAPC  C210 2890   1.658   0.830   9.620 -0.2015 -0.3056  1.5288
   22SAPC  H10R 2891   1.614   0.838   9.721 -1.5368  1.9280  0.8527
   22SAPC  H10S 2892   1.588   0.769   9.559 -1.2068  1.3163  1.0013
   22SAPC  C211 2893   1.659   0.970   9.563 -0.3802 -0.1505 -0.5392
   22SAPC  H11R 2894   1.637   1.046   9.639  1.0026  0.2883 -0.5455
   22SAPC  C212 2895   1.683   1.014   9.440  0.2667  0.5372 -0.0712
   22SAPC  H12R 2896   1.703   1.120   9.417 -1.5189  0.7584 -0.7152
   22SAPC  C213 2897   1.715   0.926   9.322 -0.2455 -0.2128 -0.3470
   22SAPC  H13R 2898   1.624   0.923   9.258  0.9425  0.3129 -2.1219
   22SAPC  H13S 2899   1.734   0.826   9.369  0.0781  1.2060  2.8500
   22SAPC  C214 2900   1.839   0.975   9.249  0.2659 -0.1937  0.1116
   22SAPC  H14R 2901   1.940   0.952   9.285  1.1639  3.9342  0.7418
   22SAPC  C215 2902   1.827   1.046   9.135 -0.4457 -0.3429 -0.6720
   22SAPC  H15R 2903   1.915   1.072   9.075  0.1505 -2.2676 -0.7157
   22SAPC  C216 2904   1.702   1.087   9.063  0.2805 -0.0517  0.2671
   22SAPC  H16R 2905   1.697   1.198   9.060 -2.8051 -0.0617  0.9498
   22SAPC  H16S 2906   1.608   1.070   9.121  0.4492 -0.9822  0.2806
   22SAPC  C217 2907   1.684   1.028   8.917 -0.1761  0.2799  0.4012
   22SAPC  H17R 2908   1.761   1.064   8.845 -0.3578  1.0308  0.5710
   22SAPC  H17S 2909   1.588   1.073   8.885 -0.5722 -1.6529 -1.3251
   22SAPC  C218 2910   1.663   0.879   8.919 -0.4471  0.1138 -0.4060
   22SAPC  H18R 2911   1.595   0.854   9.003  1.4854  0.0047  1.1956
   22SAPC  H18S 2912   1.759   0.831   8.946 -0.6726  0.5542  1.2545
   22SAPC  C219 2913   1.619   0.828   8.780 -0.1382  0.3588 -0.0796
   22SAPC  H19R 2914   1.522   0.876   8.754 -0.6192  0.7981  2.3470
   22SAPC  H19S 2915   1.600   0.719   8.795 -1.6061  0.5413 -0.4717
   22SAPC  C220 2916   1.714   0.870   8.664 -0.3008  0.3101 -0.0216
   22SAPC  H20R 2917   1.656   0.843   8.574 -1.6460 -1.4150  1.2953
   22SAPC  H20S 2918   1.816   0.827   8.677 -0.0429  1.4244  2.1300
   22SAPC  H20T 2919   1.729   0.980   8.655  0.6052  0.1205 -1.0966
   22SAPC   C33 2920   0.948   1.305  10.151  0.7706 -0.6746  0.3516
   22SAPC   H3X 2921   1.034   1.375  10.152  1.6636 -1.7095  2.0010
   22SAPC   H3Y 2922   0.864   1.340  10.215 -0.0424 -2.6492  0.4306
   22SAPC   C34 2923   0.887   1.268  10.010 -0.6399 -0.3206 -0.0648
   22SAPC   H4X 2924   0.789   1.217  10.021 -1.1724  1.1495  3.0370
   22SAPC   H4Y 2925   0.960   1.209   9.950 -0.3494  0.9682 -1.0162
   22SAPC   C35 2926   0.861   1.402   9.940  0.1233 -0.9630  0.2479
   22SAPC   H5X 2927   0.960   1.444   9.912 -0.9108  0.6272 -1.1741
   22SAPC   H5Y 2928   0.815   1.477  10.008 -0.0798 -0.0275 -0.8882
   22SAPC   C36 2929   0.775   1.373   9.815 -0.5484  0.2307  0.5406
   22SAPC   H6X 2930   0.771   1.473   9.766  0.8175  0.2131  0.3683
   22SAPC   H6Y 2931   0.669   1.343   9.833 -1.2518  0.5273 -2.5163
   22SAPC   C37 2932   0.826   1.266   9.723 -0.4989 -0.4700  0.1932
   22SAPC   H7X 2933   0.843   1.167   9.771  2.5487  0.5237  1.4155
   22SAPC   H7Y 2934   0.930   1.297   9.699 -1.2778  2.6380  0.3628
   22SAPC   C38 2935   0.740   1.263   9.593 -0.2830  0.1676 -0.3653
   22SAPC   H8X 2936   0.720   1.364   9.551 -1.2808  0.1548  0.0563
   22SAPC   H8Y 2937   0.637   1.225   9.611 -0.8062  1.6388 -0.1384
   22SAPC   C39 2938   0.799   1.172   9.486  0.0362  0.0134  0.7085
   22SAPC   H9X 2939   0.819   1.068   9.521 -1.7898 -0.4904  0.3216
   22SAPC   H9Y 2940   0.896   1.204   9.442  0.1395 -2.5894 -1.1838
   22SAPC  C310 2941   0.724   1.167   9.348 -0.3143 -0.6451  0.0727
   22SAPC  H10X 2942   0.718   1.275   9.323 -1.0403 -0.4141  1.1830
   22SAPC  H10Y 2943   0.625   1.118   9.359 -1.8534  2.0600 -0.7442
   22SAPC  C311 2944   0.789   1.092   9.236 -0.7355 -0.8167  0.6041
   22SAPC  H11X 2945   0.816   0.996   9.285 -0.9602 -0.3067  1.7591
   22SAPC  H11Y 2946   0.888   1.131   9.203 -0.6612 -1.2122  0.3455
   22SAPC  C312 2947   0.692   1.063   9.118  0.7881 -0.0210 -0.3894
   22SAPC  H12X 2948   0.629   1.151   9.095 -0.4197 -0.4383  1.1604
   22SAPC  H12Y 2949   0.630   0.983   9.166  0.2741  0.7365  0.2297
   22SAPC  C313 2950   0.756   1.002   8.988  0.0601 -0.1196 -0.1529
   22SAPC  H13X 2951   0.835   0.931   9.017 -0.9317 -0.5778  1.5858
   22SAPC  H13Y 2952   0.817   1.080   8.938  0.8785  0.8233  2.1410
   22SAPC  C314 2953   0.652   0.938   8.897  0.8161  0.5871  0.3657
   22SAPC  H14X 2954   0.563   1.003   8.883 -0.1878 -0.1132  2.9333
   22SAPC  H14Y 2955   0.608   0.848   8.947  0.6102  0.0200 -0.8100
   22SAPC  C315 2956   0.706   0.901   8.753 -0.4219  0.6153 -0.0378
   22SAPC  H15X 2957   0.798   0.842   8.777 -0.9431  0.1469  0.8582
   22SAPC  H15Y 2958   0.750   0.990   8.704  0.3363  0.4078  0.2480
   22SAPC  C316 2959   0.609   0.823   8.668  0.8425 -0.3921  0.6415
   22SAPC  H16X 2960   0.509   0.870   8.672  0.5174 -1.1497  3.1142
   22SAPC  H16Y 2961   0.600   0.716   8.697 -1.6721 -0.7418 -1.1094
   22SAPC  C317 2962   0.656   0.815   8.523  0.5668  0.0358  1.1819
   22SAPC  H17X 2963   0.757   0.771   8.516  0.7428  0.5256  0.4753
   22SAPC  H17Y 2964   0.674   0.914   8.474  1.5220 -1.5467 -1.9207
   22SAPC  C318 2965   0.557   0.737   8.439  0.0790  0.5225 -0.7009
   22SAPC  H18X 2966   0.599   0.729   8.337 -0.1447 -0.3553 -0.7360
   22SAPC  H18Y 2967   0.461   0.793   8.441  1.3085  2.7063  0.3794
   22SAPC  H18Z 2968   0.540   0.633   8.475  0.3845  0.9258  0.6595
   23SAPC     N 2969   2.085   3.967  10.686  0.2693 -0.2958  0.1608
   23SAPC   C12 2970   2.107   3.867  10.573  0.2826  0.0876  0.3385
   23SAPC  H12A 2971   2.037   3.883  10.492  0.9334  1.6032  0.0469
   23SAPC  H12B 2972   2.085   3.770  10.615 -3.2201 -0.7469 -2.9379
   23SAPC   C13 2973   2.153   4.096  10.641 -0.0755 -0.0848  0.5605
   23SAPC  H13A 2974   2.115   4.179  10.698 -2.1146 -0.7993  0.3114
   23SAPC  H13B 2975   2.260   4.092  10.653 -0.1144  0.1076  1.0054
   23SAPC  H13C 2976   2.148   4.115  10.535  2.3020  0.5224  0.5089
   23SAPC   C14 2977   1.935   3.994  10.690  0.0793  0.9541 -1.0590
   23SAPC  H14A 2978   1.902   4.010  10.588 -1.9854 -0.2115 -0.6396
   23SAPC  H14B 2979   1.893   3.906  10.736 -0.4081  1.4294 -0.5743
   23SAPC  H14C 2980   1.919   4.085  10.747 -1.7155 -0.2014  0.3894
   23SAPC   C15 2981   2.130   3.918  10.819  0.4736  0.4864 -0.1780
   23SAPC  H15A 2982   2.067   3.840  10.857 -0.9467  1.9558  0.5717
   23SAPC  H15B 2983   2.232   3.887  10.800  0.2697  0.6085 -1.5630
   23SAPC  H15C 2984   2.126   3.996  10.893 -0.8855 -0.2408  0.5444
   23SAPC   C11 2985   2.247   3.843  10.511 -0.0191  0.7616 -0.0504
   23SAPC  H11A 2986   2.283   3.927  10.447 -0.1004  0.1124 -0.9725
   23SAPC  H11B 2987   2.248   3.760  10.437  0.9972  1.1668 -0.5259
   23SAPC     P 2988   2.481   3.899  10.645  0.0854  0.2229 -0.3416
   23SAPC   O13 2989   2.459   4.037  10.684  0.1456  0.2400 -0.7996
   23SAPC   O14 2990   2.559   3.808  10.738 -0.0125  0.0472  1.0350
   23SAPC   O12 2991   2.350   3.823  10.607 -0.3515 -0.1982  0.1136
   23SAPC   O11 2992   2.567   3.907  10.517  0.1957  0.4093  0.1228
   23SAPC    C1 2993   2.687   3.983  10.513 -0.2879 -0.6471 -0.4718
   23SAPC    HA 2994   2.690   4.054  10.599 -1.0300 -0.7234 -0.3737
   23SAPC    HB 2995   2.772   3.921  10.547  1.7610  2.6835  0.9530
   23SAPC    C2 2996   2.721   4.057  10.383 -0.1710  0.0750  0.1496
   23SAPC    HS 2997   2.644   4.138  10.381  1.7907  2.1233  1.7725
   23SAPC   O21 2998   2.729   3.965  10.270  0.9292 -0.6235 -0.2085
   23SAPC   C21 2999   2.677   4.011  10.157 -0.0597 -0.6269 -0.7120
   23SAPC   O22 3000   2.611   4.116  10.142 -0.4865 -0.1525 -0.0416
   23SAPC   C22 3001   2.707   3.906  10.049  0.0629 -0.2421 -0.7919
   23SAPC   H2R 3002   2.779   3.830  10.087 -1.4913 -1.0495  0.7328
   23SAPC   H2S 3003   2.611   3.852  10.031 -0.5464  0.4565  0.2350
   23SAPC    C3 3004   2.856   4.134  10.390 -0.5388 -0.3378 -0.2264
   23SAPC    HX 3005   2.940   4.062  10.395 -0.4705 -0.2019  0.8007
   23SAPC    HY 3006   2.862   4.200  10.479  2.3167  1.1979 -1.4452
   23SAPC   O31 3007   2.882   4.211  10.272  0.1714  0.2967 -0.0747
   23SAPC   C31 3008   2.832   4.341  10.279 -0.0749 -0.3671  0.7534
   23SAPC   O32 3009   2.765   4.385  10.367 -0.0177  0.4513 -0.1166
   23SAPC   C32 3010   2.874   4.404  10.142 -0.0975  0.0873  0.2051
   23SAPC   H2X 3011   2.880   4.325  10.063 -0.5292  0.0915  0.1678
   23SAPC   H2Y 3012   2.979   4.440  10.152  0.0243 -0.2267  0.0858
   23SAPC   C23 3013   2.763   3.962   9.913 -0.0269 -0.4534  0.3375
   23SAPC   H3R 3014   2.810   3.885   9.847 -0.1490 -1.0198  0.9039
   23SAPC   H3S 3015   2.851   4.024   9.940  0.4114 -1.4569  1.3065
   23SAPC   C24 3016   2.663   4.030   9.820 -0.0174  0.3539 -0.1330
   23SAPC   H4R 3017   2.729   4.080   9.746 -0.9218  0.0330 -1.1751
   23SAPC   H4S 3018   2.608   4.114   9.868 -2.2740 -0.2743 -1.4820
   23SAPC   C25 3019   2.563   3.929   9.757 -0.4872  0.4330  0.8890
   23SAPC   H5R 3020   2.482   3.893   9.821 -1.4154  0.1860 -0.3941
   23SAPC   C26 3021   2.549   3.895   9.624 -0.5741 -0.3627  0.2570
   23SAPC   H6R 3022   2.483   3.811   9.599  0.8340 -0.6880 -2.8563
   23SAPC   C27 3023   2.628   3.937   9.502  0.2750 -0.0236  0.4002
   23SAPC   H7R 3024   2.675   3.853   9.448  0.9180  1.1684 -0.9804
   23SAPC   H7S 3025   2.719   3.986   9.543 -0.0266 -0.9706  2.3065
   23SAPC   C28 3026   2.535   4.035   9.434  0.0561  0.4646  0.0353
   23SAPC   H8R 3027   2.513   4.122   9.498  0.2320  1.5659 -1.3722
   23SAPC   C29 3028   2.481   4.019   9.306  0.8826 -0.2887 -0.8381
   23SAPC   H9R 3029   2.402   4.091   9.279  0.1377 -0.4159  0.8445
   23SAPC  C210 3030   2.513   3.902   9.214  0.2215 -0.3172  0.1120
   23SAPC  H10R 3031   2.415   3.871   9.171  0.6545  2.8359 -3.6761
   23SAPC  H10S 3032   2.543   3.811   9.270 -1.2320 -1.4471 -0.8577
   23SAPC  C211 3033   2.618   3.946   9.111  0.1943 -0.2182  0.2400
   23SAPC  H11R 3034   2.716   3.973   9.152 -0.2553  0.4547  0.9030
   23SAPC  C212 3035   2.594   3.962   8.980  0.0848 -0.1638 -0.1264
   23SAPC  H12R 3036   2.675   4.004   8.919  0.1401 -0.5240 -0.3044
   23SAPC  C213 3037   2.462   3.948   8.911  0.4676  0.8664 -0.0883
   23SAPC  H13R 3038   2.462   4.013   8.820 -1.4379  0.9378 -0.0824
   23SAPC  H13S 3039   2.387   3.992   8.981 -0.2793  0.2140 -0.4644
   23SAPC  C214 3040   2.422   3.811   8.875  1.3562 -0.1095  0.2349
   23SAPC  H14R 3041   2.360   3.761   8.951 -1.4862  1.8527 -0.6313
   23SAPC  C215 3042   2.435   3.742   8.765 -0.3372  0.6666  0.0401
   23SAPC  H15R 3043   2.402   3.637   8.757 -0.8923  0.9335 -1.6342
   23SAPC  C216 3044   2.498   3.789   8.633 -0.2545  0.1839  0.3291
   23SAPC  H16R 3045   2.601   3.749   8.643 -0.0295  0.3190 -1.2074
   23SAPC  H16S 3046   2.505   3.900   8.623  1.4538 -0.0259 -1.2200
   23SAPC  C217 3047   2.425   3.731   8.507  0.0861 -0.3262 -0.5171
   23SAPC  H17R 3048   2.490   3.745   8.418  1.0632  0.1229  0.2474
   23SAPC  H17S 3049   2.328   3.784   8.499 -0.1846 -0.7576 -0.1702
   23SAPC  C218 3050   2.402   3.576   8.500 -0.1402 -0.3684 -0.9314
   23SAPC  H18R 3051   2.304   3.552   8.547 -0.0049  0.9361  0.0538
   23SAPC  H18S 3052   2.486   3.529   8.556 -0.9129 -3.1862 -1.9664
   23SAPC  C219 3053   2.397   3.532   8.355  0.3034 -0.2105 -0.3982
   23SAPC  H19R 3054   2.494   3.562   8.309 -0.1942  0.9913 -0.6934
   23SAPC  H19S 3055   2.322   3.602   8.313  0.2119  0.9515  1.5830
   23SAPC  C220 3056   2.354   3.389   8.337 -0.8498  0.0538  0.5655
   23SAPC  H20R 3057   2.442   3.333   8.375 -1.5733  0.3164  2.7337
   23SAPC  H20S 3058   2.323   3.372   8.232 -3.8078  0.0965  1.3506
   23SAPC  H20T 3059   2.273   3.371   8.411 -0.8874  0.3848  0.6088
   23SAPC   C33 3060   2.776   4.516  10.094  0.5408 -0.0354 -0.4417
   23SAPC   H3X 3061   2.781   4.601  10.165  0.6305 -0.6655  0.3279
   23SAPC   H3Y 3062   2.674   4.476  10.075 -0.4519  1.7375  0.8902
   23SAPC   C34 3063   2.824   4.570   9.958  0.1672  0.5740  0.5139
   23SAPC   H4X 3064   2.935   4.578   9.949  0.1727  0.3618  0.3803
   23SAPC   H4Y 3065   2.782   4.671   9.936  2.1120  1.2364 -0.4742
   23SAPC   C35 3066   2.781   4.477   9.846 -0.3670  0.1025 -0.4659
   23SAPC   H5X 3067   2.671   4.463   9.852 -0.2256 -1.1128 -0.3360
   23SAPC   H5Y 3068   2.829   4.376   9.848  2.9748  1.5451 -0.7106
   23SAPC   C36 3069   2.816   4.526   9.703  0.2018 -0.2478 -0.0364
   23SAPC   H6X 3070   2.927   4.522   9.695  0.1966 -2.1878  0.4377
   23SAPC   H6Y 3071   2.791   4.634   9.693  0.2109 -0.3150 -0.8044
   23SAPC   C37 3072   2.743   4.457   9.581  0.1293  0.6130  0.3297
   23SAPC   H7X 3073   2.638   4.494   9.577  0.6187  1.9748 -0.3401
   23SAPC   H7Y 3074   2.749   4.347   9.592 -2.0589  0.3313 -0.6473
   23SAPC   C38 3075   2.803   4.501   9.449 -0.0606 -0.3631  0.4782
   23SAPC   H8X 3076   2.913   4.486   9.453  0.1495  1.2334  1.8728
   23SAPC   H8Y 3077   2.794   4.612   9.453  0.6029 -0.1980 -1.4010
   23SAPC   C39 3078   2.730   4.451   9.326 -0.7550  0.0450 -0.6087
   23SAPC   H9X 3079   2.706   4.530   9.252 -1.0527 -0.6717 -1.2980
   23SAPC   H9Y 3080   2.632   4.408   9.357 -1.2359  2.1695  1.0591
   23SAPC  C310 3081   2.814   4.345   9.250 -0.4746 -0.2477  0.1577
   23SAPC  H10X 3082   2.743   4.288   9.186 -0.0723  2.2546 -2.7555
   23SAPC  H10Y 3083   2.863   4.273   9.319 -0.5680 -1.0886 -0.6302
   23SAPC  C311 3084   2.922   4.424   9.170  0.0892 -0.1743 -0.0693
   23SAPC  H11X 3085   3.014   4.429   9.233 -0.6340  0.1198  1.0097
   23SAPC  H11Y 3086   2.871   4.520   9.145 -0.1933 -0.1282  0.6404
   23SAPC  C312 3087   2.962   4.353   9.034 -1.1620  0.4052  0.5845
   23SAPC  H12X 3088   3.019   4.264   9.069 -0.8197  0.8224  1.1056
   23SAPC  H12Y 3089   3.041   4.416   8.987  0.7440 -0.7139  2.1151
   23SAPC  C313 3090   2.839   4.317   8.942  0.5185 -0.2831 -0.6113
   23SAPC  H13X 3091   2.762   4.396   8.953 -0.8627 -1.6428 -0.1229
   23SAPC  H13Y 3092   2.792   4.225   8.984  0.9847  0.5370  1.8704
   23SAPC  C314 3093   2.877   4.316   8.793  0.7883 -0.3505  0.1372
   23SAPC  H14X 3094   2.958   4.240   8.785 -0.5554 -1.6908 -1.6140
   23SAPC  H14Y 3095   2.904   4.418   8.760 -1.8237 -0.3155 -2.2595
   23SAPC  C315 3096   2.761   4.271   8.693  0.1235 -0.1423  0.0073
   23SAPC  H15X 3097   2.695   4.360   8.686  0.8680  0.7695  2.9929
   23SAPC  H15Y 3098   2.689   4.194   8.726  1.0737 -0.5450  1.2422
   23SAPC  C316 3099   2.818   4.224   8.557 -0.3279  0.2071 -0.3494
   23SAPC  H16X 3100   2.848   4.121   8.585 -1.0153  0.7260  2.6929
   23SAPC  H16Y 3101   2.905   4.286   8.530  0.2250 -0.3020  0.2394
   23SAPC  C317 3102   2.717   4.234   8.436 -0.0739  0.8376  0.0044
   23SAPC  H17X 3103   2.753   4.189   8.341 -0.8068  2.3626 -1.0330
   23SAPC  H17Y 3104   2.701   4.343   8.424  0.3797  0.8025 -1.0487
   23SAPC  C318 3105   2.581   4.171   8.461 -0.8162 -0.3687 -0.1783
   23SAPC  H18X 3106   2.602   4.065   8.436  1.2383  0.4609 -2.3330
   23SAPC  H18Y 3107   2.504   4.208   8.390 -3.0757 -2.9654  0.7459
   23SAPC  H18Z 3108   2.539   4.188   8.563 -0.8944 -2.7512  0.2382
   24SAPC     N 3109   4.255   5.738  11.107 -0.5773 -0.3613 -0.1336
   24SAPC   C12 3110   4.300   5.668  10.976  0.3872 -0.0479 -0.5692
   24SAPC  H12A 3111   4.402   5.633  10.980 -0.4686 -3.0833 -2.3460
   24SAPC  H12B 3112   4.293   5.736  10.892  1.7410 -0.1151 -0.7623
   24SAPC   C13 3113   4.118   5.795  11.098  0.2694  0.0229 -0.4438
   24SAPC  H13A 3114   4.088   5.822  10.998  0.3001 -0.0459 -0.4719
   24SAPC  H13B 3115   4.050   5.717  11.129 -0.1189 -0.0922 -1.5225
   24SAPC  H13C 3116   4.107   5.877  11.167 -0.1824 -1.2927  1.1196
   24SAPC   C14 3117   4.262   5.653  11.222  0.0817 -0.3378  0.8079
   24SAPC  H14A 3118   4.365   5.625  11.235 -0.2964 -0.6490  3.9785
   24SAPC  H14B 3119   4.232   5.701  11.314 -3.1257  1.2814 -0.9200
   24SAPC  H14C 3120   4.211   5.559  11.209  0.7581 -0.6406  0.2858
   24SAPC   C15 3121   4.347   5.857  11.140 -0.1952  0.1035  0.5441
   24SAPC  H15A 3122   4.331   5.934  11.066 -1.0619  0.0313  0.6390
   24SAPC  H15B 3123   4.316   5.909  11.230 -0.4265  0.8106  0.0681
   24SAPC  H15C 3124   4.453   5.839  11.140 -0.0889  0.4706 -1.5365
   24SAPC   C11 3125   4.224   5.540  10.932 -0.6615 -0.1818 -0.4975
   24SAPC  H11A 3126   4.238   5.529  10.822  2.7353  0.4941 -0.2127
   24SAPC  H11B 3127   4.114   5.541  10.948 -0.9585 -3.3561 -1.5742
   24SAPC     P 3128   4.400   5.358  10.972 -0.0362 -0.3105  0.0147
   24SAPC   O13 3129   4.512   5.454  10.955 -0.1433  0.4111  0.5127
   24SAPC   O14 3130   4.423   5.250  11.069  0.2025  0.1848  0.3042
   24SAPC   O12 3131   4.271   5.434  11.015  0.3123  0.0308 -0.6696
   24SAPC   O11 3132   4.366   5.295  10.831  0.2377  0.6377 -0.0578
   24SAPC    C1 3133   4.231   5.261  10.790 -0.0410  0.2886  0.0857
   24SAPC    HA 3134   4.169   5.219  10.872  1.8539  0.9375  1.9408
   24SAPC    HB 3135   4.175   5.346  10.746 -1.3523 -0.7863 -0.3885
   24SAPC    C2 3136   4.230   5.157  10.672 -0.0648 -0.1367  0.6254
   24SAPC    HS 3137   4.228   5.055  10.716 -0.2312 -0.7207 -0.6790
   24SAPC   O21 3138   4.347   5.179  10.586 -0.3299  0.6857  0.7233
   24SAPC   C21 3139   4.381   5.070  10.514 -0.7272  0.1275 -0.5378
   24SAPC   O22 3140   4.327   4.964  10.526  0.0202  0.6533  0.2562
   24SAPC   C22 3141   4.509   5.093  10.425 -0.1660 -0.1322  0.4185
   24SAPC   H2R 3142   4.550   5.192  10.456 -0.9164  0.1907  0.3954
   24SAPC   H2S 3143   4.585   5.018  10.457 -0.2829 -0.2540  0.4125
   24SAPC    C3 3144   4.097   5.175  10.597  0.5453  0.7661  0.7914
   24SAPC    HX 3145   4.093   5.276  10.552  0.6690  0.1667 -0.6021
   24SAPC    HY 3146   4.015   5.174  10.672  0.2958  3.1451  0.6461
   24SAPC   O31 3147   4.076   5.077  10.491 -0.0217  0.2604 -0.1422
   24SAPC   C31 3148   4.010   4.967  10.520 -0.4610 -0.1152  0.2527
   24SAPC   O32 3149   3.959   4.943  10.623  0.5309  0.1185 -0.0619
   24SAPC   C32 3150   4.028   4.875  10.408  0.5900  0.4315  0.0509
   24SAPC   H2X 3151   4.132   4.837  10.400  0.2883  0.0064 -2.4264
   24SAPC   H2Y 3152   4.009   4.940  10.320  2.1738  1.2310  0.2659
   24SAPC   C23 3153   4.464   5.084  10.279 -0.4492 -0.5069 -0.0107
   24SAPC   H3R 3154   4.399   4.996  10.259 -0.9282 -0.2233  0.2690
   24SAPC   H3S 3155   4.556   5.066  10.221 -0.8193  0.4039 -0.9084
   24SAPC   C24 3156   4.401   5.214  10.224 -0.9042 -0.2377 -0.0930
   24SAPC   H4R 3157   4.299   5.220  10.268 -0.9545  1.5928 -0.3964
   24SAPC   H4S 3158   4.391   5.204  10.114 -1.7574  1.6083 -0.2158
   24SAPC   C25 3159   4.480   5.340  10.247 -0.4854  0.5334 -0.5646
   24SAPC   H5R 3160   4.460   5.396  10.339  0.0481  1.6493 -1.1045
   24SAPC   C26 3161   4.574   5.389  10.161  0.1159  0.0397  0.2179
   24SAPC   H6R 3162   4.621   5.482  10.196 -1.7270 -0.1273  3.6391
   24SAPC   C27 3163   4.619   5.328  10.032 -0.6987 -0.4815  0.6024
   24SAPC   H7R 3164   4.663   5.407   9.968 -3.5373 -0.6798 -1.8139
   24SAPC   H7S 3165   4.528   5.292   9.978 -0.5911 -1.6792  1.1814
   24SAPC   C28 3166   4.712   5.209  10.040  0.0490 -0.0887 -0.0912
   24SAPC   H8R 3167   4.787   5.211  10.121  1.5152  0.8243 -1.4222
   24SAPC   C29 3168   4.727   5.110   9.952  0.6447 -0.1139 -0.7230
   24SAPC   H9R 3169   4.775   5.019   9.992  0.8115  0.0236 -0.6121
   24SAPC  C210 3170   4.637   5.100   9.831  0.2172  0.1537 -0.3766
   24SAPC  H10R 3171   4.688   5.043   9.750  0.4741 -1.1296  0.6703
   24SAPC  H10S 3172   4.613   5.201   9.792 -1.8116  0.2168  0.9148
   24SAPC  C211 3173   4.504   5.032   9.866  0.2579 -0.1583 -0.3526
   24SAPC  H11R 3174   4.491   5.005   9.972 -0.6050 -0.4778 -0.5342
   24SAPC  C212 3175   4.415   4.978   9.782 -0.5447 -0.3136  0.2948
   24SAPC  H12R 3176   4.336   4.922   9.834  0.4740 -1.2609  0.8610
   24SAPC  C213 3177   4.416   4.961   9.630 -0.5407  0.3505  0.3063
   24SAPC  H13R 3178   4.423   5.063   9.588  2.8317 -0.3131 -1.1119
   24SAPC  H13S 3179   4.318   4.930   9.587  0.3441  1.3507 -2.6506
   24SAPC  C214 3180   4.530   4.878   9.576 -0.4884 -0.7441  0.4590
   24SAPC  H14R 3181   4.598   4.841   9.654  0.9957  2.4558  0.8255
   24SAPC  C215 3182   4.545   4.844   9.444 -0.0925  0.4377 -0.5615
   24SAPC  H15R 3183   4.634   4.782   9.424  0.9529  1.0255  1.8153
   24SAPC  C216 3184   4.462   4.885   9.325  0.3370  0.1091 -0.6462
   24SAPC  H16R 3185   4.371   4.944   9.350  0.2211  0.0860 -1.0079
   24SAPC  H16S 3186   4.422   4.792   9.277 -2.6417  1.6090 -1.3211
   24SAPC  C217 3187   4.547   4.963   9.233  0.3612  0.1347  0.5525
   24SAPC  H17R 3188   4.647   4.916   9.222  1.0228  1.3124  1.3420
   24SAPC  H17S 3189   4.571   5.067   9.263 -0.6790  0.1353  1.4548
   24SAPC  C218 3190   4.471   4.983   9.101  0.1431 -0.0228 -0.1660
   24SAPC  H18R 3191   4.372   5.024   9.129  0.9184 -0.5805  4.0066
   24SAPC  H18S 3192   4.468   4.879   9.062  0.3603 -0.5758  1.2312
   24SAPC  C219 3193   4.523   5.084   9.000 -0.3050  0.0536 -0.0530
   24SAPC  H19R 3194   4.458   5.090   8.910 -1.4395 -0.6161  0.6968
   24SAPC  H19S 3195   4.623   5.043   8.973 -1.2483 -1.5968 -1.2795
   24SAPC  C220 3196   4.521   5.223   9.071 -0.4995 -0.2599  0.1744
   24SAPC  H20R 3197   4.442   5.228   9.149 -0.2186 -2.2353  0.6230
   24SAPC  H20S 3198   4.512   5.301   8.993 -0.6582  1.2150  1.6012
   24SAPC  H20T 3199   4.620   5.235   9.122  0.2935 -2.8314 -0.6388
   24SAPC   C33 3200   3.920   4.772  10.419  0.4726 -0.5097  0.7979
   24SAPC   H3X 3201   3.817   4.810  10.439 -0.7995 -2.4989 -1.4081
   24SAPC   H3Y 3202   3.936   4.699  10.501 -2.0917  0.8614  2.6575
   24SAPC   C34 3203   3.909   4.688  10.293  0.0719  0.1953 -0.5731
   24SAPC   H4X 3204   3.853   4.597  10.324 -1.4648  0.4361 -2.4442
   24SAPC   H4Y 3205   4.000   4.642  10.251  1.6176  2.0071  0.6164
   24SAPC   C35 3206   3.842   4.764  10.186  1.2059  0.3000  0.1580
   24SAPC   H5X 3207   3.899   4.852  10.148 -0.8712  1.6631  0.0137
   24SAPC   H5Y 3208   3.751   4.811  10.229 -1.2761 -2.1298 -2.0438
   24SAPC   C36 3209   3.798   4.685  10.053 -0.5019 -0.0533 -0.7629
   24SAPC   H6X 3210   3.746   4.595  10.092  0.3417 -0.6162 -0.9396
   24SAPC   H6Y 3211   3.890   4.646  10.005 -2.4913 -2.9952 -2.4847
   24SAPC   C37 3212   3.707   4.752   9.949 -0.3279  0.4492 -0.5487
   24SAPC   H7X 3213   3.760   4.847   9.928  2.1328 -0.4548  1.0748
   24SAPC   H7Y 3214   3.612   4.781   9.999 -1.2313 -0.0341 -1.9174
   24SAPC   C38 3215   3.680   4.673   9.825  0.9794 -0.1164 -0.4462
   24SAPC   H8X 3216   3.633   4.573   9.836  1.7436 -0.4896 -0.5157
   24SAPC   H8Y 3217   3.779   4.650   9.782  1.0602  0.6025 -0.6603
   24SAPC   C39 3218   3.597   4.757   9.723  0.0103  0.1765 -0.9981
   24SAPC   H9X 3219   3.596   4.863   9.753  4.4017  0.1145  0.0495
   24SAPC   H9Y 3220   3.494   4.717   9.708  0.6334 -1.3246 -1.4732
   24SAPC  C310 3221   3.662   4.762   9.581  0.2913  0.1418 -0.0079
   24SAPC  H10X 3222   3.713   4.664   9.568  1.0651 -0.0111  3.2318
   24SAPC  H10Y 3223   3.739   4.842   9.581  0.9788 -0.4631  1.5324
   24SAPC  C311 3224   3.554   4.793   9.472  0.1963 -0.3771 -0.2760
   24SAPC  H11X 3225   3.510   4.894   9.485  0.9638  0.3746 -2.8002
   24SAPC  H11Y 3226   3.471   4.719   9.476  0.5263 -0.7197  0.3073
   24SAPC  C312 3227   3.608   4.794   9.329 -0.0835  0.2254 -0.0767
   24SAPC  H12X 3228   3.670   4.705   9.304 -0.0054 -0.7760  3.2109
   24SAPC  H12Y 3229   3.678   4.879   9.313  1.0578 -1.2258 -3.8420
   24SAPC  C313 3230   3.502   4.798   9.217 -0.1413  0.1284 -1.1513
   24SAPC  H13X 3231   3.437   4.885   9.240 -0.9306 -0.4986 -0.9940
   24SAPC  H13Y 3232   3.447   4.702   9.226 -3.9088  1.9950 -2.1694
   24SAPC  C314 3233   3.554   4.811   9.070 -0.5671  0.3701  0.0014
   24SAPC  H14X 3234   3.605   4.725   9.022 -2.3784 -0.6895 -0.1251
   24SAPC  H14Y 3235   3.625   4.896   9.066 -0.9786  0.8053  1.3697
   24SAPC  C315 3236   3.442   4.853   8.970 -0.3161  0.0435  0.0846
   24SAPC  H15X 3237   3.481   4.933   8.903  1.2996 -0.9336 -0.2224
   24SAPC  H15Y 3238   3.359   4.899   9.027  0.3808 -0.0908  1.2464
   24SAPC  C316 3239   3.389   4.738   8.881  0.3443  0.0591  0.1610
   24SAPC  H16X 3240   3.346   4.652   8.938 -1.7950  0.0654 -1.3441
   24SAPC  H16Y 3241   3.468   4.697   8.814 -1.2808 -0.3321 -1.5846
   24SAPC  C317 3242   3.283   4.781   8.777  0.3285 -0.7082  1.0095
   24SAPC  H17X 3243   3.283   4.892   8.772  1.5647 -0.7164  0.2064
   24SAPC  H17Y 3244   3.181   4.744   8.798  1.2945 -2.6965  2.4691
   24SAPC  C318 3245   3.315   4.738   8.635 -0.4137  0.3571  0.3697
   24SAPC  H18X 3246   3.421   4.762   8.612 -0.2972 -0.5749 -0.0953
   24SAPC  H18Y 3247   3.254   4.781   8.553  1.1938  2.9069  0.4101
   24SAPC  H18Z 3248   3.325   4.628   8.624  1.8320  0.5717 -0.1310
   25SAPC     N 3249   0.432   2.467   6.244  0.4098 -0.5815  0.1737
   25SAPC   C12 3250   0.542   2.445   6.336  0.0977 -0.1718  0.0637
   25SAPC  H12A 3251   0.500   2.441   6.435 -0.3836  0.1010 -0.1271
   25SAPC  H12B 3252   0.612   2.528   6.333 -0.6187  0.4097 -0.8367
   25SAPC   C13 3253   0.330   2.355   6.245  0.4394 -0.5355  0.1956
   25SAPC  H13A 3254   0.306   2.327   6.346  1.4050  0.0081  0.5892
   25SAPC  H13B 3255   0.248   2.379   6.178  1.4349 -2.0620 -1.6536
   25SAPC  H13C 3256   0.376   2.267   6.204 -1.6200 -1.3951 -0.4383
   25SAPC   C14 3257   0.360   2.589   6.291 -0.1909 -0.3773  0.6248
   25SAPC  H14A 3258   0.281   2.612   6.221 -0.2063 -0.1740  0.7094
   25SAPC  H14B 3259   0.319   2.574   6.390  1.2347  0.9665  1.4568
   25SAPC  H14C 3260   0.422   2.677   6.295  0.8513 -0.8839 -2.0279
   25SAPC   C15 3261   0.476   2.482   6.101 -0.0617  0.0718  0.2750
   25SAPC  H15A 3262   0.550   2.408   6.073 -0.4142 -0.4089  0.6113
   25SAPC  H15B 3263   0.389   2.471   6.038 -0.2531  1.1090  0.3421
   25SAPC  H15C 3264   0.523   2.578   6.086 -0.5667  0.3861  0.7024
   25SAPC   C11 3265   0.619   2.313   6.323 -0.7118 -0.1579  0.6000
   25SAPC  H11A 3266   0.543   2.234   6.343  0.5977 -2.1087 -1.5520
   25SAPC  H11B 3267   0.694   2.295   6.402  1.4062 -0.6559 -1.4231
   25SAPC     P 3268   0.755   2.171   6.152 -0.0602 -0.0840  0.2254
   25SAPC   O13 3269   0.667   2.063   6.114  0.2821 -0.0909 -0.4570
   25SAPC   O14 3270   0.854   2.217   6.054  0.7374 -0.5687  0.1093
   25SAPC   O12 3271   0.664   2.296   6.195 -0.4501  0.0937 -0.7016
   25SAPC   O11 3272   0.835   2.125   6.284 -0.3406  0.4438  0.4255
   25SAPC    C1 3273   0.940   2.215   6.332 -0.0724  0.0029 -0.2973
   25SAPC    HA 3274   1.024   2.214   6.259 -0.8538  1.7477 -1.2880
   25SAPC    HB 3275   0.903   2.320   6.335  1.0276  0.6673 -4.1622
   25SAPC    C2 3276   1.008   2.161   6.466  0.0767  0.7079 -0.0570
   25SAPC    HS 3277   1.041   2.057   6.443 -1.6981 -0.1294  0.9986
   25SAPC   O21 3278   0.914   2.154   6.574  0.3162 -0.3343  0.0184
   25SAPC   C21 3279   0.914   2.039   6.639 -0.3677 -0.8264 -0.7239
   25SAPC   O22 3280   0.972   1.940   6.603 -1.1350 -0.8428 -0.7915
   25SAPC   C22 3281   0.826   2.073   6.759  0.0632 -0.6595  0.3674
   25SAPC   H2R 3282   0.864   2.168   6.802 -0.3908 -0.9874  1.5216
   25SAPC   H2S 3283   0.722   2.092   6.723  0.3656  1.7693  0.5707
   25SAPC    C3 3284   1.133   2.245   6.506  0.6730  0.0649  0.7258
   25SAPC    HX 3285   1.111   2.354   6.515  0.9187  0.2910 -1.0563
   25SAPC    HY 3286   1.200   2.242   6.417 -0.7722  0.5942 -0.4179
   25SAPC   O31 3287   1.188   2.178   6.622  0.3417  0.2659  0.1703
   25SAPC   C31 3288   1.306   2.126   6.606  0.3110  0.6199 -0.3549
   25SAPC   O32 3289   1.386   2.152   6.522 -0.0113 -0.2786  0.0183
   25SAPC   C32 3290   1.337   2.042   6.726 -0.4771  0.5337 -0.1254
   25SAPC   H2X 3291   1.420   1.975   6.693 -1.8041 -0.6917 -1.1370
   25SAPC   H2Y 3292   1.244   1.982   6.741  0.0718 -0.0323  1.2153
   25SAPC   C23 3293   0.831   1.973   6.872  0.1861 -0.2067 -0.3448
   25SAPC   H3R 3294   0.799   1.870   6.847  3.7342 -2.2451  2.6695
   25SAPC   H3S 3295   0.764   2.018   6.949  1.1296  0.2907  0.2039
   25SAPC   C24 3296   0.976   1.951   6.920  0.0620  0.6063 -0.3256
   25SAPC   H4R 3297   1.020   2.030   6.984 -0.1622  2.3005 -2.1444
   25SAPC   H4S 3298   1.041   1.948   6.830 -0.3134  3.7837 -0.8430
   25SAPC   C25 3299   0.990   1.816   6.987  0.4848 -0.3009  0.7069
   25SAPC   H5R 3300   1.001   1.731   6.917 -1.1538  1.0120 -1.2456
   25SAPC   C26 3301   0.992   1.796   7.122 -0.0574 -0.2040  0.1499
   25SAPC   H6R 3302   1.010   1.693   7.157  3.2384  0.5444  1.0865
   25SAPC   C27 3303   0.982   1.905   7.231 -0.7338  0.2443  0.6209
   25SAPC   H7R 3304   1.048   1.993   7.214  0.6830 -1.2733 -2.7725
   25SAPC   H7S 3305   1.030   1.854   7.317  0.3524 -1.3768 -0.8830
   25SAPC   C28 3306   0.851   1.964   7.260 -0.5049 -0.4300  0.3256
   25SAPC   H8R 3307   0.810   2.028   7.181  3.0961  0.5450 -0.9391
   25SAPC   C29 3308   0.781   1.955   7.372  0.6453 -0.5860 -0.6348
   25SAPC   H9R 3309   0.677   1.992   7.375  1.2176  1.1849  2.9265
   25SAPC  C210 3310   0.812   1.888   7.498  0.1052  0.0881 -0.0660
   25SAPC  H10R 3311   0.918   1.904   7.527  0.3855 -2.5026  0.5283
   25SAPC  H10S 3312   0.809   1.779   7.476 -0.9249  0.2097 -0.5990
   25SAPC  C211 3313   0.734   1.937   7.612 -0.1112 -0.2361 -0.2333
   25SAPC  H11R 3314   0.632   1.967   7.584 -0.3477 -0.8644 -0.0686
   25SAPC  C212 3315   0.780   1.931   7.743 -0.5719 -0.1600 -0.5323
   25SAPC  H12R 3316   0.721   1.978   7.824 -3.2762 -1.5276 -1.5835
   25SAPC  C213 3317   0.918   1.886   7.796  0.2619  1.0635 -0.1298
   25SAPC  H13R 3318   0.929   1.932   7.897 -1.0574 -0.3108  0.6914
   25SAPC  H13S 3319   0.992   1.920   7.722 -0.2771  0.1423 -1.1279
   25SAPC  C214 3320   0.915   1.734   7.808 -0.9648 -0.4021 -0.1780
   25SAPC  H14R 3321   0.888   1.679   7.717 -1.1430  2.3311 -1.8920
   25SAPC  C215 3322   0.952   1.663   7.914 -0.0682 -0.3817  0.4189
   25SAPC  H15R 3323   0.949   1.554   7.903 -3.2173 -0.4282  1.0097
   25SAPC  C216 3324   1.008   1.716   8.046  0.9936  0.1733 -0.0077
   25SAPC  H16R 3325   1.026   1.826   8.041 -2.4237  0.9179  1.2740
   25SAPC  H16S 3326   1.109   1.673   8.062  1.2921 -0.5344 -3.1299
   25SAPC  C217 3327   0.929   1.672   8.171 -0.2217  1.0256 -0.4390
   25SAPC  H17R 3328   1.007   1.686   8.249  0.9869 -1.2663 -1.1461
   25SAPC  H17S 3329   0.903   1.565   8.156  1.2652  0.3859  1.1665
   25SAPC  C218 3330   0.805   1.759   8.202  0.0610  1.1785 -0.3194
   25SAPC  H18R 3331   0.755   1.771   8.103 -1.5180 -1.0544  0.1536
   25SAPC  H18S 3332   0.842   1.859   8.235  1.1814  1.0799 -1.1825
   25SAPC  C219 3333   0.713   1.704   8.313  0.7822  0.5057  1.2203
   25SAPC  H19R 3334   0.773   1.685   8.405  0.9047  0.3390  1.1069
   25SAPC  H19S 3335   0.679   1.606   8.275  2.3474 -0.4527  2.1641
   25SAPC  C220 3336   0.598   1.796   8.342  0.1223  0.7157 -0.1575
   25SAPC  H20R 3337   0.548   1.832   8.250 -1.6738  3.0871  1.6345
   25SAPC  H20S 3338   0.633   1.880   8.405  4.1154  0.8192 -2.1754
   25SAPC  H20T 3339   0.527   1.737   8.404  0.1773 -2.3469 -2.7236
   25SAPC   C33 3340   1.358   2.119   6.853 -0.2052  0.1368 -0.2463
   25SAPC   H3X 3341   1.265   2.174   6.877 -1.1011 -0.0624 -2.9028
   25SAPC   H3Y 3342   1.452   2.178   6.854 -0.8437  1.2746 -1.8986
   25SAPC   C34 3343   1.374   2.017   6.970  0.4268  0.3684  0.4064
   25SAPC   H4X 3344   1.466   1.958   6.948 -0.7627 -0.9986 -1.1076
   25SAPC   H4Y 3345   1.290   1.945   6.967  0.7005  0.0795 -0.7211
   25SAPC   C35 3346   1.379   2.085   7.106  0.2713  0.0406 -0.2273
   25SAPC   H5X 3347   1.297   2.161   7.110 -0.2478 -0.4775 -0.7418
   25SAPC   H5Y 3348   1.476   2.139   7.102 -0.3704  1.1817 -1.3211
   25SAPC   C36 3349   1.367   1.993   7.228 -0.9383 -0.1406  0.1489
   25SAPC   H6X 3350   1.430   1.902   7.218 -0.4192 -0.1883  2.8688
   25SAPC   H6Y 3351   1.263   1.963   7.253 -1.0960  0.4313  0.1826
   25SAPC   C37 3352   1.418   2.065   7.362 -0.0184 -0.3593 -0.3737
   25SAPC   H7X 3353   1.357   2.157   7.373  0.4484 -0.1939  0.9599
   25SAPC   H7Y 3354   1.519   2.108   7.347 -1.2805  3.9916  1.7887
   25SAPC   C38 3355   1.413   1.977   7.485  0.1366  0.6104 -0.5202
   25SAPC   H8X 3356   1.510   1.925   7.500 -1.0968 -2.1687 -1.4621
   25SAPC   H8Y 3357   1.340   1.894   7.476 -0.2757  0.3978  3.0820
   25SAPC   C39 3358   1.371   2.063   7.607 -0.3912  0.0454  0.0668
   25SAPC   H9X 3359   1.260   2.070   7.601 -0.3845  0.3777  0.3080
   25SAPC   H9Y 3360   1.424   2.160   7.619 -0.5735  0.0275  1.2152
   25SAPC  C310 3361   1.404   1.991   7.739 -0.0282  0.5391  0.0395
   25SAPC  H10X 3362   1.511   2.005   7.763 -0.0958  0.0377  0.6648
   25SAPC  H10Y 3363   1.398   1.881   7.723  0.1705  0.4668  0.4418
   25SAPC  C311 3364   1.314   2.013   7.865 -0.2938 -0.6601  0.5393
   25SAPC  H11X 3365   1.359   1.960   7.952  3.2686 -1.5496 -1.6157
   25SAPC  H11Y 3366   1.211   1.980   7.840 -0.2853  0.9704 -2.0042
   25SAPC  C312 3367   1.307   2.163   7.903 -0.0184  0.3464  0.6111
   25SAPC  H12X 3368   1.278   2.221   7.813  2.0235  0.7775  0.1900
   25SAPC  H12Y 3369   1.408   2.184   7.944  0.7055 -0.6766 -0.5810
   25SAPC  C313 3370   1.206   2.187   8.019  0.0632  0.0997  0.3903
   25SAPC  H13X 3371   1.099   2.174   7.993 -0.0457  1.4529  0.1165
   25SAPC  H13Y 3372   1.222   2.290   8.058 -2.3840 -0.3159  2.8107
   25SAPC  C314 3373   1.225   2.107   8.149 -0.1944  0.4299  0.2180
   25SAPC  H14X 3374   1.330   2.110   8.183  0.5484 -2.1683 -1.5375
   25SAPC  H14Y 3375   1.198   2.000   8.143  0.7655  0.1588  0.6158
   25SAPC  C315 3376   1.142   2.170   8.262  0.0414 -0.1813  0.1846
   25SAPC  H15X 3377   1.046   2.213   8.226  0.3387  1.3759  1.1871
   25SAPC  H15Y 3378   1.203   2.255   8.299  0.5356 -0.4242 -0.0584
   25SAPC  C316 3379   1.114   2.081   8.382  0.3652  0.0556  0.2324
   25SAPC  H16X 3380   1.212   2.051   8.424  0.0451 -0.5338  0.5847
   25SAPC  H16Y 3381   1.069   1.984   8.350  0.8328  0.4292 -1.6888
   25SAPC  C317 3382   1.020   2.143   8.484 -0.3667 -0.4005  0.6156
   25SAPC  H17X 3383   1.031   2.252   8.500 -0.9981  0.3998 -3.3993
   25SAPC  H17Y 3384   1.033   2.095   8.584 -2.2617  0.2562  1.2204
   25SAPC  C318 3385   0.871   2.121   8.449 -0.1373 -0.3956  0.1582
   25SAPC  H18X 3386   0.796   2.140   8.528 -1.4278  2.9894 -1.6715
   25SAPC  H18Y 3387   0.861   2.017   8.411  0.7537 -0.7529  0.8775
   25SAPC  H18Z 3388   0.836   2.184   8.364 -1.1967  0.1519  0.9789
   26SAPC     N 3389   1.736   4.334   6.083  0.1492  0.4907  0.8238
   26SAPC   C12 3390   1.670   4.280   6.210  0.2056  0.0781  0.2790
   26SAPC  H12A 3391   1.715   4.185   6.235 -2.3665 -1.4000 -0.4338
   26SAPC  H12B 3392   1.564   4.260   6.205 -0.2968  1.8736  2.1366
   26SAPC   C13 3393   1.631   4.409   6.009  0.0114  0.1482 -0.2084
   26SAPC  H13A 3394   1.589   4.492   6.065  0.8140  2.1573 -2.4113
   26SAPC  H13B 3395   1.673   4.441   5.915  1.6380  1.1480  0.7908
   26SAPC  H13C 3396   1.551   4.341   5.984 -0.2480  0.7372 -1.0334
   26SAPC   C14 3397   1.853   4.414   6.114 -0.1844  0.3753  1.0747
   26SAPC  H14A 3398   1.917   4.432   6.029  0.2989 -0.7733  1.1677
   26SAPC  H14B 3399   1.811   4.504   6.155  1.5867  1.9623 -0.4214
   26SAPC  H14C 3400   1.921   4.368   6.183  0.1806  0.7740  0.9825
   26SAPC   C15 3401   1.777   4.206   6.016 -0.2986 -0.0743 -0.4514
   26SAPC  H15A 3402   1.865   4.170   6.067 -0.2967 -1.1625 -1.2004
   26SAPC  H15B 3403   1.692   4.139   6.024  0.5051 -0.8939  3.8805
   26SAPC  H15C 3404   1.809   4.208   5.914  0.0713  2.0832 -0.3268
   26SAPC   C11 3405   1.659   4.375   6.331  1.1512  0.5984  0.0630
   26SAPC  H11A 3406   1.757   4.416   6.363  2.1541 -1.0944 -0.7308
   26SAPC  H11B 3407   1.614   4.325   6.419  0.7393  0.5773 -0.1571
   26SAPC     P 3408   1.580   4.630   6.298 -0.0627  0.1371  0.1246
   26SAPC   O13 3409   1.633   4.669   6.164 -0.4313 -1.1281 -0.6261
   26SAPC   O14 3410   1.451   4.694   6.329  0.0222  0.1099  0.2145
   26SAPC   O12 3411   1.567   4.476   6.299  0.1566  0.3947  0.5288
   26SAPC   O11 3412   1.694   4.665   6.407  0.9206 -0.0908 -0.0531
   26SAPC    C1 3413   1.671   4.636   6.548  0.3812 -0.5337 -0.2954
   26SAPC    HA 3414   1.665   4.739   6.587  2.0003 -0.3186 -0.5421
   26SAPC    HB 3415   1.573   4.587   6.568 -1.0374  1.5853 -1.6092
   26SAPC    C2 3416   1.788   4.554   6.605 -0.8563  0.1894  0.0025
   26SAPC    HS 3417   1.780   4.451   6.566 -2.3760  0.4034 -0.3259
   26SAPC   O21 3418   1.784   4.558   6.750 -0.0753 -0.2698 -0.5358
   26SAPC   C21 3419   1.704   4.480   6.809  0.0308 -0.2595  0.1675
   26SAPC   O22 3420   1.622   4.404   6.757  0.1186 -0.2166  0.4092
   26SAPC   C22 3421   1.727   4.488   6.961  0.2312  0.1722  0.0557
   26SAPC   H2R 3422   1.770   4.392   6.997  1.2686  0.2719 -0.8706
   26SAPC   H2S 3423   1.802   4.570   6.971 -0.8188  1.3153 -1.0139
   26SAPC    C3 3424   1.924   4.616   6.554  0.2256 -0.7476  0.0232
   26SAPC    HX 3425   1.915   4.724   6.577  0.7671 -0.4136 -1.2441
   26SAPC    HY 3426   1.928   4.595   6.445  1.4086 -1.3391  0.1701
   26SAPC   O31 3427   2.034   4.560   6.632  0.2173 -0.1123 -0.3756
   26SAPC   C31 3428   2.141   4.641   6.637 -0.6162  0.9034 -0.2601
   26SAPC   O32 3429   2.151   4.738   6.566  1.0990  0.1700 -0.6598
   26SAPC   C32 3430   2.249   4.577   6.726 -0.0406  0.5886 -0.4022
   26SAPC   H2X 3431   2.334   4.645   6.748  0.4717 -0.2728  0.3533
   26SAPC   H2Y 3432   2.304   4.505   6.661  1.4097  1.2626  0.0269
   26SAPC   C23 3433   1.597   4.517   7.035  0.8234 -0.0638 -0.1922
   26SAPC   H3R 3434   1.543   4.421   7.046  1.9290 -0.8931 -1.6993
   26SAPC   H3S 3435   1.534   4.593   6.983  0.1279 -0.9322 -0.6350
   26SAPC   C24 3436   1.635   4.580   7.174 -0.8852 -0.1679 -0.0122
   26SAPC   H4R 3437   1.553   4.634   7.225  1.6149  1.1971  2.9214
   26SAPC   H4S 3438   1.711   4.653   7.139 -0.7105 -0.6734 -0.7246
   26SAPC   C25 3439   1.687   4.469   7.267 -0.1388  0.7799  0.6868
   26SAPC   H5R 3440   1.725   4.377   7.221  1.7530  1.0088  1.6971
   26SAPC   C26 3441   1.690   4.477   7.401  0.2899 -0.0767  0.4138
   26SAPC   H6R 3442   1.735   4.393   7.456 -0.0744  0.5051  1.6294
   26SAPC   C27 3443   1.644   4.585   7.496  0.1922 -1.1578  0.0546
   26SAPC   H7R 3444   1.614   4.679   7.444  1.6880 -0.2287  0.7902
   26SAPC   H7S 3445   1.732   4.622   7.554 -0.1312 -1.6602  0.8847
   26SAPC   C28 3446   1.536   4.528   7.588 -0.9392  0.4455  0.2042
   26SAPC   H8R 3447   1.463   4.461   7.539  0.3580 -0.2993 -0.7916
   26SAPC   C29 3448   1.511   4.557   7.718  0.4644 -0.1608 -0.8528
   26SAPC   H9R 3449   1.432   4.501   7.770  0.0127  1.4701  0.3152
   26SAPC  C210 3450   1.591   4.655   7.806 -0.1511 -0.6842 -0.0064
   26SAPC  H10R 3451   1.518   4.739   7.808  0.6784  0.0446  1.1339
   26SAPC  H10S 3452   1.677   4.698   7.751  0.2039  1.1711  1.8644
   26SAPC  C211 3453   1.641   4.607   7.942  0.6798  0.9210  0.4647
   26SAPC  H11R 3454   1.714   4.525   7.934 -0.2008  0.0138  1.3826
   26SAPC  C212 3455   1.587   4.638   8.060 -0.4778  0.0845 -0.0649
   26SAPC  H12R 3456   1.621   4.582   8.149 -2.6284  2.1931  2.2384
   26SAPC  C213 3457   1.468   4.732   8.093  0.2476  0.3189 -0.2208
   26SAPC  H13R 3458   1.456   4.806   8.011  2.8963  1.7153  0.5348
   26SAPC  H13S 3459   1.490   4.790   8.185 -2.7001 -0.9327  1.4127
   26SAPC  C214 3460   1.334   4.672   8.108 -0.4037  0.4752 -0.5702
   26SAPC  H14R 3461   1.270   4.677   8.019 -1.1521  4.2978  0.0121
   26SAPC  C215 3462   1.286   4.609   8.216  0.6056  0.0651  0.2573
   26SAPC  H15R 3463   1.188   4.559   8.216  1.5609 -1.8995  0.2158
   26SAPC  C216 3464   1.347   4.582   8.356 -0.4122  0.3554  0.5035
   26SAPC  H16R 3465   1.281   4.604   8.442  0.6818  0.3854  1.3646
   26SAPC  H16S 3466   1.449   4.625   8.366  0.5597 -1.8859  0.8261
   26SAPC  C217 3467   1.373   4.425   8.378  0.2359  0.3781 -0.0953
   26SAPC  H17R 3468   1.423   4.420   8.478 -1.6689 -0.4595  0.8734
   26SAPC  H17S 3469   1.443   4.387   8.301  2.6479 -0.0713  2.1622
   26SAPC  C218 3470   1.255   4.327   8.372  0.1255  0.6261 -0.1954
   26SAPC  H18R 3471   1.183   4.338   8.288 -1.6733 -2.7313  0.7214
   26SAPC  H18S 3472   1.191   4.345   8.462  0.0500 -0.4604 -0.0173
   26SAPC  C219 3473   1.302   4.181   8.353 -0.4335  0.0342  0.1614
   26SAPC  H19R 3474   1.387   4.172   8.424 -0.8397  0.1860  0.6747
   26SAPC  H19S 3475   1.336   4.169   8.248  1.0570 -0.5203  0.6794
   26SAPC  C220 3476   1.193   4.079   8.369  0.2032 -0.0766  0.0754
   26SAPC  H20R 3477   1.235   3.982   8.334  0.2669  0.1206 -0.4023
   26SAPC  H20S 3478   1.102   4.092   8.307  0.9559  0.4635 -0.9414
   26SAPC  H20T 3479   1.162   4.072   8.475 -0.1809 -0.1058 -0.0368
   26SAPC   C33 3480   2.194   4.494   6.841  0.0061  0.0318  0.0755
   26SAPC   H3X 3481   2.249   4.398   6.855  1.3859  0.8881  0.7388
   26SAPC   H3Y 3482   2.091   4.460   6.821  0.2010 -0.5372  0.0089
   26SAPC   C34 3483   2.203   4.570   6.975  0.1999  0.1810  0.0455
   26SAPC   H4X 3484   2.136   4.658   6.966  1.7362  1.4871  0.8423
   26SAPC   H4Y 3485   2.308   4.606   6.976  0.5255 -0.7322  0.1499
   26SAPC   C35 3486   2.165   4.486   7.094  0.2667  0.3531 -0.2911
   26SAPC   H5X 3487   2.244   4.408   7.086  0.9972  0.7812  2.0584
   26SAPC   H5Y 3488   2.062   4.444   7.082  0.0450 -0.0526  2.4051
   26SAPC   C36 3489   2.179   4.572   7.213 -0.2084  0.3661 -0.1731
   26SAPC   H6X 3490   2.131   4.668   7.185  1.1842  2.0995  2.8531
   26SAPC   H6Y 3491   2.284   4.591   7.246 -0.3769 -0.8602  1.2067
   26SAPC   C37 3492   2.117   4.512   7.340 -0.6923  0.7569 -0.1962
   26SAPC   H7X 3493   2.177   4.421   7.358 -0.2246  1.2689  0.9436
   26SAPC   H7Y 3494   2.014   4.472   7.330 -0.2445 -1.1905  1.9635
   26SAPC   C38 3495   2.147   4.599   7.466 -0.1301  0.3687 -0.2111
   26SAPC   H8X 3496   2.096   4.697   7.455 -0.0443  0.4681  0.2427
   26SAPC   H8Y 3497   2.254   4.620   7.487  0.7576 -3.6680  0.1704
   26SAPC   C39 3498   2.125   4.528   7.601  0.6513 -0.6376  0.4036
   26SAPC   H9X 3499   2.155   4.600   7.680  1.6523  0.5484 -1.0039
   26SAPC   H9Y 3500   2.201   4.447   7.601  0.5753 -0.7202 -0.5643
   26SAPC  C310 3501   1.977   4.479   7.629 -0.0116  0.7307 -0.1800
   26SAPC  H10X 3502   1.948   4.414   7.544  2.3493  0.5248 -0.9059
   26SAPC  H10Y 3503   1.894   4.552   7.636 -0.9457  0.1253 -3.3215
   26SAPC  C311 3504   1.981   4.392   7.755 -0.0112  0.1584 -0.2781
   26SAPC  H11X 3505   2.053   4.308   7.743 -1.0272 -0.9311  1.0403
   26SAPC  H11Y 3506   1.875   4.358   7.758  0.4186 -1.1536  1.0648
   26SAPC  C312 3507   2.019   4.458   7.882 -0.1049  0.2118 -0.3558
   26SAPC  H12X 3508   1.943   4.538   7.890  0.4718  0.9288 -1.7169
   26SAPC  H12Y 3509   2.125   4.490   7.890  0.3463 -1.6605  3.4192
   26SAPC  C313 3510   2.005   4.365   8.004 -0.7771  0.0607  0.1820
   26SAPC  H13X 3511   2.078   4.282   7.992 -2.3244 -1.3910  0.5323
   26SAPC  H13Y 3512   1.903   4.321   8.006 -0.1565 -1.6581 -1.9907
   26SAPC  C314 3513   2.040   4.440   8.134  0.0813 -0.0751  0.0622
   26SAPC  H14X 3514   2.130   4.497   8.103 -0.0475 -0.9794 -2.1046
   26SAPC  H14Y 3515   2.070   4.389   8.228  0.4641 -1.2987 -0.7051
   26SAPC  C315 3516   1.935   4.541   8.174 -0.1770  0.3728  0.1615
   26SAPC  H15X 3517   1.851   4.503   8.236 -1.8911  2.6359 -0.6184
   26SAPC  H15Y 3518   1.895   4.600   8.089 -0.1517 -2.5781 -2.0375
   26SAPC  C316 3519   1.992   4.645   8.273  0.1163  0.5073 -0.1989
   26SAPC  H16X 3520   2.071   4.687   8.208  0.4625 -1.3461 -1.0598
   26SAPC  H16Y 3521   2.034   4.585   8.357 -0.6908  0.6385  0.3127
   26SAPC  C317 3522   1.884   4.745   8.312 -0.2845 -0.1957  0.6425
   26SAPC  H17X 3523   1.931   4.784   8.404  1.0126 -0.5551  0.1461
   26SAPC  H17Y 3524   1.790   4.690   8.335  1.1391 -2.9462  0.3461
   26SAPC  C318 3525   1.861   4.863   8.211  0.2511 -0.3631  0.1222
   26SAPC  H18X 3526   1.864   4.832   8.104  2.1181 -0.1343  0.0640
   26SAPC  H18Y 3527   1.944   4.934   8.236  0.1237 -0.9033  2.2717
   26SAPC  H18Z 3528   1.761   4.901   8.239 -1.6492 -5.3587  1.0015
   27SAPC     N 3529   5.586   4.572   6.215  0.0396  0.5982  0.5860
   27SAPC   C12 3530   5.612   4.448   6.290  0.4566 -0.6196 -0.2849
   27SAPC  H12A 3531   5.714   4.422   6.262  1.7289  1.8363  1.6973
   27SAPC  H12B 3532   5.551   4.371   6.245  2.3156 -1.1593 -2.0478
   27SAPC   C13 3533   5.452   4.643   6.242 -0.0110  0.1073 -0.4234
   27SAPC  H13A 3534   5.455   4.750   6.226 -0.8785 -0.0920 -2.1245
   27SAPC  H13B 3535   5.374   4.598   6.182 -2.1724  0.8251  1.7049
   27SAPC  H13C 3536   5.433   4.619   6.345  0.2814 -0.0261 -0.3976
   27SAPC   C14 3537   5.691   4.682   6.235  0.2203  0.2021  0.0708
   27SAPC  H14A 3538   5.663   4.775   6.189 -0.4537  0.7766  1.5693
   27SAPC  H14B 3539   5.718   4.687   6.340 -0.5781  0.2237  0.2807
   27SAPC  H14C 3540   5.777   4.651   6.177 -0.5766  1.3886 -1.8369
   27SAPC   C15 3541   5.596   4.541   6.067 -0.1270  0.0728  0.8750
   27SAPC  H15A 3542   5.552   4.623   6.012 -0.1729 -1.9847 -2.4016
   27SAPC  H15B 3543   5.691   4.507   6.029 -0.4958 -1.0211  0.8795
   27SAPC  H15C 3544   5.536   4.454   6.044  0.8462 -0.6155  0.9055
   27SAPC   C11 3545   5.596   4.451   6.443 -0.3091  0.0115 -0.4460
   27SAPC  H11A 3546   5.604   4.348   6.485  2.2744  0.3608  0.0673
   27SAPC  H11B 3547   5.493   4.478   6.475 -0.1992 -0.1901  0.0779
   27SAPC     P 3548   5.705   4.571   6.649 -0.2389  0.1514  0.1484
   27SAPC   O13 3549   5.837   4.633   6.681 -0.2331  0.4707  0.3189
   27SAPC   O14 3550   5.585   4.651   6.696 -0.2045 -0.2266  0.7989
   27SAPC   O12 3551   5.693   4.547   6.487 -0.5981  0.3809 -0.4259
   27SAPC   O11 3552   5.696   4.426   6.712 -0.2287 -1.0057  0.4846
   27SAPC    C1 3553   5.576   4.380   6.783 -0.2808  0.4111  0.1861
   27SAPC    HA 3554   5.490   4.442   6.750  1.7161  1.6814 -3.0921
   27SAPC    HB 3555   5.555   4.274   6.756  1.5204 -1.9170  6.1573
   27SAPC    C2 3556   5.580   4.377   6.936  0.6155 -0.5046 -0.0428
   27SAPC    HS 3557   5.594   4.475   6.986 -0.0286  0.0641 -0.9338
   27SAPC   O21 3558   5.678   4.281   6.978  0.0378 -0.3893 -0.2667
   27SAPC   C21 3559   5.781   4.338   7.036  0.2368 -0.4853  0.0440
   27SAPC   O22 3560   5.796   4.461   7.058  0.3269  0.3721  0.3011
   27SAPC   C22 3561   5.870   4.228   7.084 -0.7875 -0.6462 -0.9566
   27SAPC   H2R 3562   5.814   4.133   7.094 -0.3432 -0.7523  0.9646
   27SAPC   H2S 3563   5.950   4.214   7.008  1.4349 -1.0102  1.2977
   27SAPC    C3 3564   5.447   4.316   6.983 -0.2754  0.3035 -0.2456
   27SAPC    HX 3565   5.418   4.228   6.922 -2.4760 -0.0968  1.2413
   27SAPC    HY 3566   5.367   4.388   6.954  0.6305  1.5165  0.1514
   27SAPC   O31 3567   5.458   4.289   7.124 -0.0213  0.4552 -0.0690
   27SAPC   C31 3568   5.447   4.381   7.215 -0.1828  0.2154 -0.4261
   27SAPC   O32 3569   5.416   4.496   7.190  0.1934 -0.1495 -0.2555
   27SAPC   C32 3570   5.480   4.328   7.358  0.6638 -0.9080 -0.4236
   27SAPC   H2X 3571   5.565   4.384   7.403 -2.5540  1.3760  3.5618
   27SAPC   H2Y 3572   5.504   4.220   7.355  1.6232 -0.7091 -0.2559
   27SAPC   C23 3573   5.943   4.248   7.220  0.4439 -0.2915 -0.0817
   27SAPC   H3R 3574   5.991   4.347   7.226 -1.0212  0.3556  2.6344
   27SAPC   H3S 3575   6.021   4.170   7.233  1.7957  1.2969  1.8491
   27SAPC   C24 3576   5.852   4.235   7.350  0.1879  0.1513  0.0041
   27SAPC   H4R 3577   5.800   4.137   7.350  1.1809 -0.4009  1.7614
   27SAPC   H4S 3578   5.779   4.315   7.324  1.0038  0.2006 -2.3949
   27SAPC   C25 3579   5.924   4.268   7.482  0.2248  1.1256  0.0858
   27SAPC   H5R 3580   5.953   4.184   7.545 -1.6169 -0.3714 -0.9571
   27SAPC   C26 3581   5.935   4.394   7.528  0.0594  0.3823  0.0075
   27SAPC   H6R 3582   5.981   4.407   7.628  1.1910  2.5848 -0.7355
   27SAPC   C27 3583   5.892   4.521   7.468 -0.6314 -0.1011 -0.4881
   27SAPC   H7R 3584   5.783   4.520   7.490 -0.1004 -1.9665  2.7383
   27SAPC   H7S 3585   5.890   4.517   7.357 -2.8236  0.6100 -0.5171
   27SAPC   C28 3586   5.956   4.649   7.524 -0.3406  0.2060 -0.2010
   27SAPC   H8R 3587   6.046   4.687   7.474 -0.2986 -0.0867 -0.3491
   27SAPC   C29 3588   5.916   4.721   7.630 -0.1722  0.1508 -0.9821
   27SAPC   H9R 3589   6.002   4.784   7.656  2.3526 -2.1011 -3.2277
   27SAPC  C210 3590   5.806   4.696   7.730 -0.6445 -0.1016 -0.2576
   27SAPC  H10R 3591   5.741   4.612   7.697 -2.2504  1.3654 -0.9846
   27SAPC  H10S 3592   5.737   4.783   7.731 -0.6455  0.0135 -3.1990
   27SAPC  C211 3593   5.867   4.671   7.873  0.1879  0.7244  0.4143
   27SAPC  H11R 3594   5.949   4.598   7.882  0.0534  0.6638  1.1971
   27SAPC  C212 3595   5.832   4.727   7.986 -0.3457  0.1130 -1.0545
   27SAPC  H12R 3596   5.891   4.696   8.073  0.1928  2.5401 -0.4616
   27SAPC  C213 3597   5.722   4.827   8.000 -0.4057 -0.2222  0.1190
   27SAPC  H13R 3598   5.637   4.787   8.060 -0.2485  1.6535  1.6928
   27SAPC  H13S 3599   5.661   4.849   7.910 -2.1790 -0.1321  1.2769
   27SAPC  C214 3600   5.771   4.946   8.079 -1.2508  0.5555  0.2491
   27SAPC  H14R 3601   5.805   5.034   8.023 -1.0186 -0.1310 -0.7192
   27SAPC  C215 3602   5.783   4.946   8.217  0.6127 -0.0606 -0.0702
   27SAPC  H15R 3603   5.841   5.033   8.253 -0.4084  0.7635 -0.3545
   27SAPC  C216 3604   5.742   4.848   8.328  0.6577 -0.0943  0.1726
   27SAPC  H16R 3605   5.821   4.834   8.405 -1.8733 -0.9703  2.7937
   27SAPC  H16S 3606   5.725   4.745   8.288  0.8045  0.6376 -1.9052
   27SAPC  C217 3607   5.613   4.866   8.416  0.3159 -0.4042 -0.0413
   27SAPC  H17R 3608   5.584   4.773   8.470  0.5477  0.0442  0.8811
   27SAPC  H17S 3609   5.532   4.897   8.347 -0.0774  0.8063  0.9145
   27SAPC  C218 3610   5.624   4.992   8.519  0.3269 -0.4066 -0.3312
   27SAPC  H18R 3611   5.543   4.974   8.592  0.9256  2.3687  1.1482
   27SAPC  H18S 3612   5.607   5.090   8.468  0.7062 -1.6738 -3.0730
   27SAPC  C219 3613   5.756   5.005   8.590 -0.0228  0.3243  0.0242
   27SAPC  H19R 3614   5.763   5.091   8.659 -2.2470 -0.3635  1.1995
   27SAPC  H19S 3615   5.838   5.003   8.514  1.0272  3.8328  0.8884
   27SAPC  C220 3616   5.771   4.886   8.686  0.2884  0.1520  0.2260
   27SAPC  H20R 3617   5.768   4.791   8.630  1.2482  1.7147 -2.6943
   27SAPC  H20S 3618   5.679   4.883   8.749  0.7508  2.2243  1.0891
   27SAPC  H20T 3619   5.864   4.877   8.746  0.6493  1.6044 -0.0615
   27SAPC   C33 3620   5.369   4.347   7.462  0.3002 -0.3338  0.6398
   27SAPC   H3X 3621   5.387   4.271   7.541 -1.9831  0.8117  2.3618
   27SAPC   H3Y 3622   5.270   4.313   7.425  0.4223 -2.4955  2.1090
   27SAPC   C34 3623   5.364   4.484   7.515 -0.1435 -1.1190  0.0290
   27SAPC   H4X 3624   5.351   4.559   7.434 -0.0147  0.0530  1.0541
   27SAPC   H4Y 3625   5.448   4.516   7.580 -2.3438  2.5422  1.3742
   27SAPC   C35 3626   5.243   4.518   7.611 -0.0815 -0.4297  0.0254
   27SAPC   H5X 3627   5.148   4.483   7.565  0.8340 -0.8041 -1.6742
   27SAPC   H5Y 3628   5.230   4.628   7.621 -2.2936 -0.7152  0.7992
   27SAPC   C36 3629   5.261   4.437   7.742 -0.0592  0.6723 -0.7075
   27SAPC   H6X 3630   5.350   4.478   7.795 -0.0451  0.9867 -0.9667
   27SAPC   H6Y 3631   5.278   4.330   7.719 -0.3448  0.2355  0.9955
   27SAPC   C37 3632   5.138   4.430   7.835 -0.3955 -0.3875 -0.5441
   27SAPC   H7X 3633   5.173   4.378   7.926 -1.5014 -2.0712 -1.0177
   27SAPC   H7Y 3634   5.061   4.367   7.784 -0.2405 -0.0986 -1.1451
   27SAPC   C38 3635   5.074   4.566   7.872  0.0938  0.5852 -0.0762
   27SAPC   H8X 3636   5.032   4.614   7.781 -2.2692 -0.0914  0.6020
   27SAPC   H8Y 3637   5.150   4.634   7.917 -0.9025  1.4829  0.2769
   27SAPC   C39 3638   4.953   4.541   7.971 -0.7156 -0.2337 -0.9625
   27SAPC   H9X 3639   4.893   4.456   7.933  0.6529 -1.6817 -0.0011
   27SAPC   H9Y 3640   4.896   4.636   7.981  0.6326  0.5191 -0.2055
   27SAPC  C310 3641   5.007   4.517   8.112 -0.6403  0.2151  0.5377
   27SAPC  H10X 3642   5.080   4.600   8.126  1.2920 -1.0298 -1.5872
   27SAPC  H10Y 3643   5.065   4.422   8.115 -2.0325 -0.6790  0.1348
   27SAPC  C311 3644   4.897   4.529   8.218 -0.2194 -0.7801  0.1894
   27SAPC  H11X 3645   4.834   4.440   8.193 -2.1573  0.1952  1.3037
   27SAPC  H11Y 3646   4.832   4.616   8.195  1.6060  0.2456 -1.3331
   27SAPC  C312 3647   4.948   4.541   8.356 -0.2820  0.5289 -0.2370
   27SAPC  H12X 3648   5.030   4.470   8.380  0.6060  1.6366  0.1583
   27SAPC  H12Y 3649   4.862   4.512   8.420  0.2520  0.6679  0.5659
   27SAPC  C313 3650   5.011   4.674   8.394 -0.0925 -0.5468  0.6560
   27SAPC  H13X 3651   4.932   4.750   8.411  1.2140  0.9986  0.1311
   27SAPC  H13Y 3652   5.071   4.708   8.307  0.0272  2.3593  1.7711
   27SAPC  C314 3653   5.094   4.665   8.524 -0.4089 -0.1891  0.4440
   27SAPC  H14X 3654   5.139   4.563   8.527  0.3835 -0.0559 -2.9530
   27SAPC  H14Y 3655   5.033   4.680   8.615 -0.0174  2.2844  0.3586
   27SAPC  C315 3656   5.214   4.767   8.520  0.3289  0.3285  0.2010
   27SAPC  H15X 3657   5.194   4.876   8.512  1.6910  0.4705 -1.9735
   27SAPC  H15Y 3658   5.276   4.749   8.430 -1.2341  1.9712 -1.2774
   27SAPC  C316 3659   5.316   4.762   8.640  0.0048  0.1531 -0.4148
   27SAPC  H16X 3660   5.264   4.795   8.733  0.6917 -0.4243  0.1899
   27SAPC  H16Y 3661   5.386   4.846   8.624  0.2673 -0.3197 -1.9374
   27SAPC  C317 3662   5.379   4.623   8.659  0.8026 -0.1242  0.0672
   27SAPC  H17X 3663   5.456   4.591   8.586  2.0093  1.8720  0.4066
   27SAPC  H17Y 3664   5.302   4.543   8.664  0.3149  0.2341 -1.3026
   27SAPC  C318 3665   5.454   4.618   8.793 -0.4136 -0.4323  0.3098
   27SAPC  H18X 3666   5.545   4.680   8.785  0.2583 -1.3932  0.3939
   27SAPC  H18Y 3667   5.472   4.515   8.831 -1.5489 -0.8992 -0.3541
   27SAPC  H18Z 3668   5.390   4.657   8.876 -2.0700 -1.7200 -0.3064
   28SAPC     N 3669   4.313   1.356   6.501  0.3807  0.1917  0.2967
   28SAPC   C12 3670   4.224   1.236   6.498  0.7707 -0.1200 -0.4589
   28SAPC  H12A 3671   4.188   1.220   6.598  0.9598  2.7117  0.1315
   28SAPC  H12B 3672   4.282   1.153   6.459 -0.1649 -0.0965 -1.9888
   28SAPC   C13 3673   4.373   1.382   6.366 -0.2671  0.0385  0.0069
   28SAPC  H13A 3674   4.391   1.488   6.360 -0.3845  0.0348 -0.3788
   28SAPC  H13B 3675   4.458   1.324   6.333  0.6456  2.7459 -2.8303
   28SAPC  H13C 3676   4.305   1.351   6.287  0.8065 -0.3123 -0.8003
   28SAPC   C14 3677   4.235   1.474   6.534 -0.2594 -0.6481  0.5619
   28SAPC  H14A 3678   4.154   1.501   6.469  0.6654  0.3219 -0.2297
   28SAPC  H14B 3679   4.201   1.462   6.636 -0.3495  1.6181  0.8430
   28SAPC  H14C 3680   4.302   1.559   6.540 -1.8822  0.6637  0.6878
   28SAPC   C15 3681   4.414   1.343   6.615  0.3019  0.2323  0.5094
   28SAPC  H15A 3682   4.476   1.432   6.610 -0.3256  0.6081 -1.5141
   28SAPC  H15B 3683   4.369   1.335   6.713  0.3676  0.5741  0.5688
   28SAPC  H15C 3684   4.474   1.257   6.589 -1.6684 -0.9831 -0.2377
   28SAPC   C11 3685   4.085   1.248   6.422 -0.2949 -0.1341 -0.3547
   28SAPC  H11A 3686   4.016   1.324   6.464  0.1107  0.5913 -0.9668
   28SAPC  H11B 3687   4.036   1.152   6.449  0.3744 -0.4428 -0.2013
   28SAPC     P 3688   4.047   1.371   6.197 -0.3229 -0.2910  1.1771
   28SAPC   O13 3689   4.168   1.425   6.128  0.3848 -1.0731  0.2225
   28SAPC   O14 3690   3.938   1.327   6.113 -0.1666  0.5639  0.0344
   28SAPC   O12 3691   4.095   1.258   6.278 -0.0638  0.7576 -0.0896
   28SAPC   O11 3692   3.991   1.484   6.295  0.1573  0.0413 -0.2551
   28SAPC    C1 3693   3.861   1.482   6.355  0.2040 -0.2772  0.1324
   28SAPC    HA 3694   3.786   1.489   6.273 -1.2849 -3.6543  1.0337
   28SAPC    HB 3695   3.848   1.384   6.405 -0.5646 -1.4063 -2.1271
   28SAPC    C2 3696   3.849   1.600   6.453 -0.9435 -0.1560 -0.3202
   28SAPC    HS 3697   3.875   1.692   6.397 -0.5002  1.1902  1.9758
   28SAPC   O21 3698   3.943   1.584   6.560 -0.3269  0.4186  0.2177
   28SAPC   C21 3699   3.960   1.695   6.635 -0.4987 -0.2881  0.5678
   28SAPC   O22 3700   3.914   1.800   6.596  0.4103 -0.1145 -0.3086
   28SAPC   C22 3701   4.033   1.669   6.765 -0.0962 -0.5017  0.2086
   28SAPC   H2R 3702   3.995   1.572   6.805  0.6084 -1.7786 -2.0242
   28SAPC   H2S 3703   4.141   1.657   6.746 -0.1031 -0.6709  0.2781
   28SAPC    C3 3704   3.700   1.613   6.493  0.7633  0.3034  0.6935
   28SAPC    HX 3705   3.641   1.619   6.399 -0.3846 -2.7601  1.1156
   28SAPC    HY 3706   3.683   1.705   6.554 -1.9305 -0.5184  1.2810
   28SAPC   O31 3707   3.644   1.506   6.567  0.1332  0.1541  0.4068
   28SAPC   C31 3708   3.638   1.512   6.701 -0.5068 -0.3956 -0.0048
   28SAPC   O32 3709   3.674   1.602   6.770 -0.0755 -0.6595  0.2183
   28SAPC   C32 3710   3.595   1.367   6.740  0.1319 -0.6920 -0.1061
   28SAPC   H2X 3711   3.684   1.301   6.730  0.7739 -0.0096  0.9502
   28SAPC   H2Y 3712   3.529   1.338   6.656  1.1309 -0.5766 -0.9471
   28SAPC   C23 3713   4.030   1.786   6.862  0.1647  0.0543 -0.2979
   28SAPC   H3R 3714   4.052   1.871   6.794 -0.4141  0.3391 -0.1392
   28SAPC   H3S 3715   4.118   1.778   6.930 -0.8288 -0.0363  1.0254
   28SAPC   C24 3716   3.891   1.797   6.928  0.7553 -0.3159 -0.4410
   28SAPC   H4R 3717   3.810   1.796   6.852  0.3662  1.5273 -0.0866
   28SAPC   H4S 3718   3.874   1.703   6.986  1.1374 -0.0296  0.1422
   28SAPC   C25 3719   3.884   1.917   7.025 -0.3606 -0.1823 -0.2101
   28SAPC   H5R 3720   3.890   2.015   6.973 -0.7518  0.2594  0.5638
   28SAPC   C26 3721   3.867   1.911   7.159 -0.3614 -0.0171  0.2763
   28SAPC   H6R 3722   3.872   2.006   7.215  1.1712  0.4070 -0.5203
   28SAPC   C27 3723   3.854   1.788   7.245  0.3266 -0.0798 -0.1498
   28SAPC   H7R 3724   3.869   1.703   7.175  0.3201 -0.6103  0.4854
   28SAPC   H7S 3725   3.751   1.787   7.286 -0.3818  0.7635 -1.8564
   28SAPC   C28 3726   3.960   1.787   7.357 -0.1953  0.8687  0.3049
   28SAPC   H8R 3727   4.061   1.807   7.319  0.1613 -2.8051 -1.0644
   28SAPC   C29 3728   3.939   1.751   7.482 -0.2000 -0.0721 -0.1151
   28SAPC   H9R 3729   4.030   1.745   7.543  1.1020  0.9957 -1.8489
   28SAPC  C210 3730   3.816   1.712   7.551 -1.1487 -0.1018  0.1556
   28SAPC  H10R 3731   3.850   1.631   7.619 -2.1951 -0.8401 -0.1625
   28SAPC  H10S 3732   3.752   1.658   7.477  0.5769  0.6948 -2.0353
   28SAPC  C211 3733   3.758   1.824   7.632  0.2157 -0.1164  0.2025
   28SAPC  H11R 3734   3.693   1.892   7.575 -0.6502  0.7410  2.1180
   28SAPC  C212 3735   3.773   1.838   7.764 -0.0741 -0.7783  0.5595
   28SAPC  H12R 3736   3.724   1.928   7.805  0.8992  1.2383 -2.3838
   28SAPC  C213 3737   3.855   1.758   7.854 -0.7192 -0.0312  0.6910
   28SAPC  H13R 3738   3.956   1.803   7.861 -0.5980  0.5389 -2.7299
   28SAPC  H13S 3739   3.861   1.653   7.819  1.7202 -0.2449  1.5905
   28SAPC  C214 3740   3.787   1.754   7.984 -0.0110  0.7572 -0.3361
   28SAPC  H14R 3741   3.686   1.713   7.966  1.0037 -1.0369 -2.3358
   28SAPC  C215 3742   3.827   1.802   8.105  1.0800  0.6782 -0.6231
   28SAPC  H15R 3743   3.767   1.797   8.197 -0.0843  1.2180 -1.3362
   28SAPC  C216 3744   3.952   1.882   8.144 -0.1635 -0.5337 -0.2777
   28SAPC  H16R 3745   3.934   1.988   8.174 -0.9970 -0.9485  0.7816
   28SAPC  H16S 3746   4.031   1.891   8.067  0.5827  1.4077  0.6467
   28SAPC  C217 3747   4.023   1.813   8.264  0.3705 -0.0202 -0.5709
   28SAPC  H17R 3748   4.066   1.717   8.229 -0.8782 -0.6740 -0.3548
   28SAPC  H17S 3749   3.938   1.802   8.335 -2.9267  2.9926 -3.6329
   28SAPC  C218 3750   4.139   1.897   8.323 -0.2974  1.0999 -0.3464
   28SAPC  H18R 3751   4.111   2.004   8.328 -0.5419  0.9791  2.1143
   28SAPC  H18S 3752   4.230   1.895   8.260  1.3616  0.4236  1.9527
   28SAPC  C219 3753   4.185   1.851   8.465 -0.0884 -0.0373 -0.1493
   28SAPC  H19R 3754   4.089   1.834   8.520 -0.6215 -0.5608 -1.2275
   28SAPC  H19S 3755   4.249   1.930   8.511  1.7193 -0.4902 -1.7950
   28SAPC  C220 3756   4.276   1.727   8.469 -0.6136 -0.1024 -0.1885
   28SAPC  H20R 3757   4.265   1.665   8.378 -0.7233  0.1643 -0.3590
   28SAPC  H20S 3758   4.249   1.656   8.550 -0.8293 -0.2885 -0.4216
   28SAPC  H20T 3759   4.379   1.769   8.473 -1.0339  1.0083 -0.5905
   28SAPC   C33 3760   3.531   1.347   6.878 -0.0055  0.5177 -0.3048
   28SAPC   H3X 3761   3.482   1.248   6.868 -1.2085  0.8690  1.5670
   28SAPC   H3Y 3762   3.457   1.427   6.900  2.6829  2.9610  0.5479
   28SAPC   C34 3763   3.637   1.337   6.986 -0.0002  0.5116  0.3774
   28SAPC   H4X 3764   3.693   1.432   6.987  1.0999 -0.1109 -0.3331
   28SAPC   H4Y 3765   3.714   1.260   6.965  2.9788  2.7088  2.4588
   28SAPC   C35 3766   3.562   1.326   7.124  0.0201  0.1045  0.3299
   28SAPC   H5X 3767   3.486   1.245   7.123  1.4877 -1.3271  0.3591
   28SAPC   H5Y 3768   3.498   1.417   7.133 -0.1601  0.0052  0.0643
   28SAPC   C36 3769   3.656   1.318   7.245 -0.4864 -0.4424  0.2057
   28SAPC   H6X 3770   3.704   1.415   7.267 -0.8129 -0.8069  2.7463
   28SAPC   H6Y 3771   3.742   1.249   7.229  0.9745  1.7648 -2.6036
   28SAPC   C37 3772   3.578   1.282   7.378  0.4355 -0.7163  0.9662
   28SAPC   H7X 3773   3.538   1.178   7.384 -3.4349  0.5527  0.2409
   28SAPC   H7Y 3774   3.492   1.351   7.391  1.5355  0.5681  1.7275
   28SAPC   C38 3775   3.662   1.308   7.498  0.2651 -0.5398  0.1442
   28SAPC   H8X 3776   3.704   1.410   7.490 -2.1705  0.5233  0.0208
   28SAPC   H8Y 3777   3.746   1.235   7.500  0.4033 -0.5002 -2.1195
   28SAPC   C39 3778   3.582   1.295   7.625 -0.2538 -0.4054 -0.3467
   28SAPC   H9X 3779   3.539   1.195   7.647 -1.4804  0.3234  0.7742
   28SAPC   H9Y 3780   3.499   1.366   7.606 -1.4648 -1.5911  0.3713
   28SAPC  C310 3781   3.662   1.335   7.751  0.4500  0.6001  0.6944
   28SAPC  H10X 3782   3.696   1.441   7.751  0.9652  0.4598 -0.8397
   28SAPC  H10Y 3783   3.749   1.267   7.747  0.7889  1.0347  0.6170
   28SAPC  C311 3784   3.584   1.320   7.884  0.3394 -0.2713  0.4527
   28SAPC  H11X 3785   3.530   1.223   7.895 -0.2661 -0.0147 -0.2026
   28SAPC  H11Y 3786   3.506   1.399   7.888 -0.0300 -0.6546  1.1908
   28SAPC  C312 3787   3.684   1.337   8.006  0.0405  0.7827  0.5155
   28SAPC  H12X 3788   3.765   1.411   7.988 -0.3548  1.0080 -0.3625
   28SAPC  H12Y 3789   3.742   1.242   8.010 -0.8333  0.2764  1.5408
   28SAPC  C313 3790   3.614   1.371   8.141 -0.5434 -0.6354 -0.0140
   28SAPC  H13X 3791   3.530   1.299   8.149 -0.6433 -0.6963 -1.3697
   28SAPC  H13Y 3792   3.573   1.474   8.134 -1.0112 -0.8362 -0.2672
   28SAPC  C314 3793   3.716   1.367   8.256 -0.4554  0.1270  0.0672
   28SAPC  H14X 3794   3.790   1.447   8.237  1.4525 -1.5125  0.3207
   28SAPC  H14Y 3795   3.758   1.264   8.253  0.4596  0.4526  1.1369
   28SAPC  C315 3796   3.652   1.377   8.391 -0.4262  0.3877 -0.0294
   28SAPC  H15X 3797   3.726   1.351   8.470  0.5905  0.6705 -0.8648
   28SAPC  H15Y 3798   3.579   1.294   8.401  2.9272 -2.8290 -0.0221
   28SAPC  C316 3799   3.578   1.508   8.421  0.1403  0.7547  0.0188
   28SAPC  H16X 3800   3.507   1.525   8.337  0.2943 -0.2742 -0.3378
   28SAPC  H16Y 3801   3.642   1.598   8.435 -0.9801  1.8603 -1.4747
   28SAPC  C317 3802   3.498   1.490   8.547  0.4288 -0.4940 -0.3124
   28SAPC  H17X 3803   3.566   1.436   8.617  3.7999  1.3856 -1.8688
   28SAPC  H17Y 3804   3.408   1.437   8.508 -0.1300  0.4284 -0.3079
   28SAPC  C318 3805   3.464   1.618   8.632 -0.3725  0.0261 -0.1436
   28SAPC  H18X 3806   3.460   1.697   8.554  0.4777  0.1091 -0.1175
   28SAPC  H18Y 3807   3.538   1.634   8.714 -1.1265 -0.7789  0.7128
   28SAPC  H18Z 3808   3.369   1.610   8.689  0.7681 -1.7411  1.6322
   29SAPC     N 3809   0.887   4.195   6.139 -0.0529  0.4463 -0.0072
   29SAPC   C12 3810   0.914   4.292   6.250 -0.4382 -0.2841 -0.3140
   29SAPC  H12A 3811   0.953   4.382   6.205  2.6904 -1.6853 -0.6824
   29SAPC  H12B 3812   0.994   4.249   6.308 -0.2828  0.1367 -0.2132
   29SAPC   C13 3813   0.768   4.237   6.058 -0.2360 -0.8158  0.6602
   29SAPC  H13A 3814   0.703   4.163   6.014 -1.1962  0.5007 -0.1935
   29SAPC  H13B 3815   0.704   4.295   6.123  1.0649  0.9250  0.4610
   29SAPC  H13C 3816   0.793   4.307   5.980 -1.6083 -0.0834  0.8422
   29SAPC   C14 3817   1.001   4.177   6.044 -0.4752  0.0455  0.4474
   29SAPC  H14A 3818   1.087   4.163   6.107  0.0407  0.6520 -0.1007
   29SAPC  H14B 3819   0.984   4.098   5.972  1.2446  0.6009 -0.6430
   29SAPC  H14C 3820   1.018   4.275   6.002  0.3814  0.5970  1.9914
   29SAPC   C15 3821   0.864   4.065   6.203 -0.2147 -0.4682 -0.0842
   29SAPC  H15A 3822   0.785   4.068   6.277  0.9399 -1.5493  1.2430
   29SAPC  H15B 3823   0.834   3.999   6.123  2.2216 -1.2389 -0.4222
   29SAPC  H15C 3824   0.952   4.021   6.247  0.1198  0.7753  0.5340
   29SAPC   C11 3825   0.805   4.331   6.355 -0.0966 -0.0817 -0.1207
   29SAPC  H11A 3826   0.848   4.378   6.446  0.2021  0.8753 -0.7402
   29SAPC  H11B 3827   0.763   4.232   6.383  0.4635 -0.9040 -2.0247
   29SAPC     P 3828   0.690   4.553   6.317 -0.3798  0.0249 -0.4436
   29SAPC   O13 3829   0.712   4.619   6.187 -0.3550  0.2582  0.3071
   29SAPC   O14 3830   0.559   4.585   6.378 -0.4823  0.2535 -1.0446
   29SAPC   O12 3831   0.695   4.398   6.294  0.1561  0.0966 -0.8718
   29SAPC   O11 3832   0.805   4.591   6.421  0.0096 -0.2936 -0.2870
   29SAPC    C1 3833   0.802   4.696   6.516 -0.0375  0.0831 -0.1391
   29SAPC    HA 3834   0.860   4.784   6.479 -0.1639  0.7539  1.2136
   29SAPC    HB 3835   0.702   4.741   6.532 -0.3084 -1.0641  1.6269
   29SAPC    C2 3836   0.855   4.658   6.648 -0.0607  0.4917  0.1301
   29SAPC    HS 3837   0.867   4.743   6.719  1.2497  0.4781 -0.0520
   29SAPC   O21 3838   0.968   4.575   6.626  0.2803 -0.2264 -0.1379
   29SAPC   C21 3839   1.083   4.642   6.634  0.4551 -0.4578 -0.2085
   29SAPC   O22 3840   1.100   4.762   6.657  0.2383  0.2088  0.3392
   29SAPC   C22 3841   1.197   4.557   6.594 -0.7582 -0.1793 -0.0401
   29SAPC   H2R 3842   1.155   4.466   6.547  0.1263 -1.9700  2.4039
   29SAPC   H2S 3843   1.247   4.610   6.510 -2.5981  0.2981 -0.8831
   29SAPC    C3 3844   0.746   4.563   6.708  0.1867 -0.0619  0.0575
   29SAPC    HX 3845   0.741   4.476   6.639 -0.7739  1.0708 -1.3764
   29SAPC    HY 3846   0.660   4.634   6.710  1.4703  1.5641 -0.4769
   29SAPC   O31 3847   0.787   4.519   6.840 -0.1048  0.9703 -0.1223
   29SAPC   C31 3848   0.694   4.516   6.926 -0.0227  0.7045 -0.0602
   29SAPC   O32 3849   0.574   4.534   6.915 -0.2165  0.6257  0.0449
   29SAPC   C32 3850   0.757   4.484   7.061  0.4529 -0.4198 -0.2938
   29SAPC   H2X 3851   0.852   4.541   7.073 -0.2771  0.5930  0.8656
   29SAPC   H2Y 3852   0.779   4.377   7.078  0.7203 -0.4724 -0.9421
   29SAPC   C23 3853   1.287   4.512   6.711  0.3203  0.4175  0.7821
   29SAPC   H3R 3854   1.299   4.601   6.776 -2.0073  0.4991  1.1828
   29SAPC   H3S 3855   1.379   4.476   6.659 -0.5214  0.4007 -0.7492
   29SAPC   C24 3856   1.223   4.394   6.786  0.1892 -0.3210  0.0172
   29SAPC   H4R 3857   1.311   4.335   6.822  2.3439  0.6109 -3.3022
   29SAPC   H4S 3858   1.172   4.332   6.710 -1.5915 -1.0009  1.6801
   29SAPC   C25 3859   1.112   4.428   6.882 -0.2121 -0.5118  0.2217
   29SAPC   H5R 3860   1.021   4.478   6.847 -0.2351  0.1534  1.1743
   29SAPC   C26 3861   1.115   4.412   7.021 -0.5548 -0.1714  1.1472
   29SAPC   H6R 3862   1.040   4.450   7.092  0.2190 -0.6618  2.2440
   29SAPC   C27 3863   1.234   4.362   7.098 -0.5103  0.7567 -0.1239
   29SAPC   H7R 3864   1.315   4.341   7.025 -1.0652 -1.9048 -0.0771
   29SAPC   H7S 3865   1.204   4.261   7.135 -0.0216  0.1673 -1.2888
   29SAPC   C28 3866   1.282   4.450   7.208 -0.1823 -0.0800 -0.6591
   29SAPC   H8R 3867   1.378   4.499   7.188  0.7583 -0.8170  1.7168
   29SAPC   C29 3868   1.224   4.463   7.326  0.2578  0.1910 -0.6903
   29SAPC   H9R 3869   1.266   4.540   7.393 -1.9237  1.5678 -0.8319
   29SAPC  C210 3870   1.102   4.387   7.366  0.3173 -0.0368  1.1643
   29SAPC  H10R 3871   1.143   4.286   7.386  1.3655  0.2383  0.4973
   29SAPC  H10S 3872   1.028   4.384   7.283  0.9523  2.7484  0.4137
   29SAPC  C211 3873   1.038   4.444   7.490  0.2146 -0.0905  0.3340
   29SAPC  H11R 3874   0.951   4.508   7.469 -0.1175 -0.7968 -0.4630
   29SAPC  C212 3875   1.076   4.417   7.619 -0.3654  0.3423 -0.0727
   29SAPC  H12R 3876   1.035   4.496   7.685 -1.0269  2.2814 -2.6374
   29SAPC  C213 3877   1.185   4.318   7.671  0.3304  0.2022 -0.1137
   29SAPC  H13R 3878   1.279   4.331   7.615  0.2163  1.8430  0.0189
   29SAPC  H13S 3879   1.164   4.212   7.647  0.5141  0.3175 -0.7820
   29SAPC  C214 3880   1.211   4.349   7.819 -0.3738 -0.7712 -0.4102
   29SAPC  H14R 3881   1.257   4.443   7.852 -1.9821 -0.4113  0.9064
   29SAPC  C215 3882   1.174   4.269   7.924  0.6000  0.5082 -0.1559
   29SAPC  H15R 3883   1.197   4.293   8.029  1.2785  1.7454 -0.5631
   29SAPC  C216 3884   1.092   4.146   7.914 -0.3381 -0.2576  0.0880
   29SAPC  H16R 3885   1.146   4.064   7.966 -0.5307  1.6081  3.5369
   29SAPC  H16S 3886   1.082   4.116   7.807 -2.2965 -1.5735  0.5856
   29SAPC  C217 3887   0.949   4.168   7.974 -0.3695  0.0098 -0.3533
   29SAPC  H17R 3888   0.897   4.251   7.922  1.3362  1.4011  0.0534
   29SAPC  H17S 3889   0.966   4.201   8.079  1.9793  0.5814 -0.8437
   29SAPC  C218 3890   0.864   4.040   7.964  0.4291  0.3496 -0.2834
   29SAPC  H18R 3891   0.863   4.019   7.855  1.1083 -0.3180 -0.1742
   29SAPC  H18S 3892   0.757   4.056   7.987  0.1312 -2.0654  0.2552
   29SAPC  C219 3893   0.924   3.928   8.052 -0.1202  0.3658 -0.9218
   29SAPC  H19R 3894   0.975   3.965   8.144 -3.0031 -0.3898  1.1513
   29SAPC  H19S 3895   1.007   3.880   7.997  1.0575  0.4966  0.6792
   29SAPC  C220 3896   0.818   3.825   8.095 -0.3746  0.3162 -0.2724
   29SAPC  H20R 3897   0.766   3.781   8.007  1.4905 -1.5973 -0.4965
   29SAPC  H20S 3898   0.747   3.868   8.168  0.2272  1.5951 -0.3999
   29SAPC  H20T 3899   0.872   3.743   8.147  1.0913  0.2716 -1.7645
   29SAPC   C33 3900   0.661   4.523   7.168  0.2444 -0.2570  0.1325
   29SAPC   H3X 3901   0.568   4.463   7.165  0.8917 -1.2751 -0.1028
   29SAPC   H3Y 3902   0.621   4.624   7.147 -0.3142 -0.3478  0.7434
   29SAPC   C34 3903   0.724   4.531   7.308 -0.2754  0.4676  0.0851
   29SAPC   H4X 3904   0.802   4.609   7.318  1.1960 -0.7901 -0.9985
   29SAPC   H4Y 3905   0.777   4.435   7.326  2.8864  2.0105 -0.2256
   29SAPC   C35 3906   0.614   4.544   7.415 -0.7408  0.2573  0.4827
   29SAPC   H5X 3907   0.566   4.445   7.433 -3.0179  1.1269 -0.4691
   29SAPC   H5Y 3908   0.541   4.621   7.382 -0.2124  1.0652  1.1544
   29SAPC   C36 3909   0.666   4.580   7.553  0.4278 -0.3473 -0.3596
   29SAPC   H6X 3910   0.690   4.689   7.550  0.8573 -0.4647 -1.7186
   29SAPC   H6Y 3911   0.760   4.528   7.583 -0.3333 -0.6568  1.6261
   29SAPC   C37 3912   0.568   4.581   7.667 -0.0730 -0.0696 -0.0312
   29SAPC   H7X 3913   0.521   4.481   7.664  0.2508 -0.2209 -0.1169
   29SAPC   H7Y 3914   0.497   4.665   7.649  0.2865  0.2777  0.1451
   29SAPC   C38 3915   0.610   4.606   7.811 -0.4102  0.0252  0.1314
   29SAPC   H8X 3916   0.515   4.609   7.867  0.2533  0.4704  1.2691
   29SAPC   H8Y 3917   0.659   4.704   7.830  1.7989 -1.3431  2.1545
   29SAPC   C39 3918   0.705   4.497   7.861 -0.2530 -0.0043  0.2358
   29SAPC   H9X 3919   0.789   4.498   7.788 -1.2267  2.1145 -0.9394
   29SAPC   H9Y 3920   0.669   4.394   7.841  0.4603 -0.2100 -0.0125
   29SAPC  C310 3921   0.751   4.531   8.005  0.2840  0.5713  0.2357
   29SAPC  H10X 3922   0.776   4.639   8.010  2.3967  0.0708  1.6056
   29SAPC  H10Y 3923   0.841   4.469   8.023 -0.1219 -0.7631 -1.9967
   29SAPC  C311 3924   0.641   4.499   8.107  0.4026  0.8692  0.3199
   29SAPC  H11X 3925   0.652   4.389   8.117  2.9087  1.0787  0.3449
   29SAPC  H11Y 3926   0.541   4.529   8.069  0.9466  1.0696 -0.9866
   29SAPC  C312 3927   0.656   4.567   8.245 -0.1367 -0.1185  0.4886
   29SAPC  H12X 3928   0.618   4.497   8.323 -0.6504  0.4685  0.7761
   29SAPC  H12Y 3929   0.586   4.652   8.259  0.8611  0.5940  1.3050
   29SAPC  C313 3930   0.794   4.615   8.270  0.4755  0.1869 -0.4454
   29SAPC  H13X 3931   0.836   4.676   8.187  2.4293  0.3953  0.6348
   29SAPC  H13Y 3932   0.861   4.527   8.271 -0.0525 -0.2126  0.4896
   29SAPC  C314 3933   0.805   4.697   8.396  1.2250  0.0414 -0.2809
   29SAPC  H14X 3934   0.793   4.635   8.487  0.7406 -0.5984 -0.7729
   29SAPC  H14Y 3935   0.722   4.771   8.405  0.6635 -0.5373 -0.5676
   29SAPC  C315 3936   0.923   4.782   8.410 -0.4732  0.1479 -0.1660
   29SAPC  H15X 3937   0.935   4.858   8.331 -1.5731  0.3598 -0.1487
   29SAPC  H15Y 3938   1.017   4.724   8.399 -1.2046 -1.0388 -0.3896
   29SAPC  C316 3939   0.920   4.853   8.550 -0.0444 -0.3341 -0.1053
   29SAPC  H16X 3940   0.866   4.787   8.621  0.7507 -1.2766 -0.3478
   29SAPC  H16Y 3941   0.877   4.956   8.550 -0.4805 -0.5072  0.7856
   29SAPC  C317 3942   1.064   4.873   8.612  0.6661  0.1963  0.0371
   29SAPC  H17X 3943   1.129   4.925   8.538  0.1934  0.8527  0.0669
   29SAPC  H17Y 3944   1.102   4.770   8.628 -2.7470 -1.1157  0.5913
   29SAPC  C318 3945   1.071   4.959   8.740 -0.2507  0.0722  0.3989
   29SAPC  H18X 3946   1.175   4.964   8.778  0.8781 -0.5223 -2.3447
   29SAPC  H18Y 3947   1.018   4.908   8.824 -0.3506 -0.6165 -0.0756
   29SAPC  H18Z 3948   1.016   5.053   8.719 -1.8483 -0.5590  1.5009
   30SAPC     N 3949   2.984   3.829   6.143  0.3119 -0.3067 -0.3232
   30SAPC   C12 3950   2.833   3.838   6.126 -0.0403 -0.6599  0.4185
   30SAPC  H12A 3951   2.794   3.755   6.070  2.7549  0.5278 -3.6841
   30SAPC  H12B 3952   2.815   3.928   6.070  0.9114 -0.7640 -0.0869
   30SAPC   C13 3953   3.014   3.692   6.196 -0.2570 -0.8712 -0.3673
   30SAPC  H13A 3954   2.995   3.690   6.302  1.9023 -2.1361  0.0553
   30SAPC  H13B 3955   2.954   3.615   6.151  1.4760 -2.3897 -0.2361
   30SAPC  H13C 3956   3.118   3.663   6.191 -0.3597 -1.3206  0.0366
   30SAPC   C14 3957   3.052   3.849   6.014  0.1665  0.6469  0.2226
   30SAPC  H14A 3958   3.026   3.772   5.944 -2.1048  1.5443  0.0061
   30SAPC  H14B 3959   3.017   3.942   5.973 -0.7353  1.0653  1.8489
   30SAPC  H14C 3960   3.155   3.859   6.045 -0.4879  2.5781  2.0533
   30SAPC   C15 3961   3.036   3.935   6.241  0.4381  0.3481  0.4726
   30SAPC  H15A 3962   2.983   3.911   6.332  0.4159  0.0121  0.3726
   30SAPC  H15B 3963   3.142   3.920   6.250  0.1387 -0.5882  3.3031
   30SAPC  H15C 3964   3.000   4.028   6.198  1.4045 -0.8973 -3.5037
   30SAPC   C11 3965   2.735   3.841   6.251  0.0823  0.6783  0.0818
   30SAPC  H11A 3966   2.628   3.854   6.223 -0.3275 -0.9868  0.7642
   30SAPC  H11B 3967   2.766   3.925   6.317 -1.9285  1.4296  0.1389
   30SAPC     P 3968   2.655   3.592   6.265 -0.5102  0.2156  0.2410
   30SAPC   O13 3969   2.701   3.563   6.125  0.5248  0.5597  0.1132
   30SAPC   O14 3970   2.664   3.469   6.349 -0.1941 -0.3425  0.0225
   30SAPC   O12 3971   2.742   3.713   6.324 -0.7047 -0.1996  0.1159
   30SAPC   O11 3972   2.503   3.633   6.269  0.8355 -0.7121 -0.8101
   30SAPC    C1 3973   2.460   3.697   6.398 -0.0743  0.4051 -0.3141
   30SAPC    HA 3974   2.455   3.624   6.482 -0.2015  1.6559  0.8029
   30SAPC    HB 3975   2.532   3.777   6.425  2.1799 -1.0625 -1.6406
   30SAPC    C2 3976   2.316   3.758   6.378 -0.1821 -0.9123  0.6320
   30SAPC    HS 3977   2.240   3.685   6.343 -1.6416  0.9415 -0.2310
   30SAPC   O21 3978   2.329   3.872   6.289 -0.1592  0.1099 -0.2246
   30SAPC   C21 3979   2.221   3.941   6.255  0.1781  0.1484 -0.3308
   30SAPC   O22 3980   2.104   3.912   6.269 -0.0960 -0.2328  0.2559
   30SAPC   C22 3981   2.273   4.067   6.179  0.9562 -0.1685 -0.2352
   30SAPC   H2R 3982   2.384   4.078   6.186  0.7847  0.6586  2.5440
   30SAPC   H2S 3983   2.245   4.054   6.073  1.3344  1.8053 -0.6121
   30SAPC    C3 3984   2.275   3.813   6.521 -0.3726  0.0912 -0.1307
   30SAPC    HX 3985   2.169   3.844   6.513  0.2390  2.2468 -0.5445
   30SAPC    HY 3986   2.338   3.905   6.532  1.9149 -1.3897 -0.2757
   30SAPC   O31 3987   2.303   3.711   6.620  0.6970 -0.1650  0.0212
   30SAPC   C31 3988   2.255   3.751   6.735 -0.0064  0.7967 -0.2776
   30SAPC   O32 3989   2.204   3.856   6.766  0.4895 -0.4333 -0.0820
   30SAPC   C32 3990   2.277   3.638   6.836  0.1581  0.1233 -0.4435
   30SAPC   H2X 3991   2.358   3.575   6.795 -0.9021 -0.3928 -1.8242
   30SAPC   H2Y 3992   2.195   3.563   6.837  0.2193  0.0595  0.2110
   30SAPC   C23 3993   2.208   4.194   6.227 -0.1398 -0.5116 -0.0536
   30SAPC   H3R 3994   2.105   4.176   6.266 -0.4554  0.8119 -0.2173
   30SAPC   H3S 3995   2.210   4.257   6.135  0.0503  0.4860  0.6101
   30SAPC   C24 3996   2.287   4.271   6.332  0.0252  0.3884  0.2586
   30SAPC   H4R 3997   2.231   4.363   6.358  0.1293  1.6169 -3.4088
   30SAPC   H4S 3998   2.386   4.289   6.284 -0.6559 -0.1561 -1.4361
   30SAPC   C25 3999   2.297   4.187   6.457  0.5108  0.2722 -0.3204
   30SAPC   H5R 4000   2.375   4.109   6.468  1.6984  1.6485  1.9296
   30SAPC   C26 4001   2.199   4.176   6.551 -0.0813 -0.3515 -0.6447
   30SAPC   H6R 4002   2.207   4.118   6.644  1.8305  2.8318  1.3733
   30SAPC   C27 4003   2.067   4.256   6.565  0.2557 -0.4741  0.2047
   30SAPC   H7R 4004   2.057   4.327   6.480  1.8702 -0.3466  0.0991
   30SAPC   H7S 4005   2.076   4.326   6.650 -0.6280  1.2063 -1.0165
   30SAPC   C28 4006   1.949   4.170   6.595  0.3930 -0.5319 -0.5226
   30SAPC   H8R 4007   1.905   4.125   6.505  1.5137 -0.0700 -1.3230
   30SAPC   C29 4008   1.880   4.149   6.706  0.5757  0.1852 -0.8553
   30SAPC   H9R 4009   1.790   4.086   6.696  1.3564 -1.0602 -0.3035
   30SAPC  C210 4010   1.916   4.198   6.848  0.1991 -0.1340 -0.0624
   30SAPC  H10R 4011   1.830   4.175   6.915 -0.5118 -1.6025 -1.4102
   30SAPC  H10S 4012   1.943   4.305   6.852  1.3822 -0.4201  0.1215
   30SAPC  C211 4013   2.031   4.120   6.902  0.7555  0.2148 -0.1843
   30SAPC  H11R 4014   2.099   4.083   6.825  0.3807 -0.1590 -0.3397
   30SAPC  C212 4015   2.063   4.083   7.027 -0.0979  0.3615  0.5196
   30SAPC  H12R 4016   2.143   4.007   7.037 -0.9345 -0.5266  0.6369
   30SAPC  C213 4017   1.987   4.112   7.151  0.6114  0.2262 -0.2123
   30SAPC  H13R 4018   1.920   4.025   7.169 -0.4512  1.0132 -0.2444
   30SAPC  H13S 4019   1.907   4.188   7.139 -0.3597 -1.1320 -3.5367
   30SAPC  C214 4020   2.082   4.137   7.263 -0.1278 -0.7254 -0.3369
   30SAPC  H14R 4021   2.156   4.218   7.253 -1.7059  1.0824  1.6728
   30SAPC  C215 4022   2.079   4.076   7.381  0.0182 -0.9217  0.2174
   30SAPC  H15R 4023   2.147   4.117   7.457  1.6246 -0.7585 -1.2563
   30SAPC  C216 4024   1.976   3.975   7.423  0.4160 -0.4851 -0.3031
   30SAPC  H16R 4025   2.036   3.882   7.436  3.4171  1.5673  1.8182
   30SAPC  H16S 4026   1.885   3.961   7.362 -0.4643 -1.1126  1.0967
   30SAPC  C217 4027   1.923   3.993   7.572  0.5040 -0.3581  0.5553
   30SAPC  H17R 4028   1.859   3.907   7.600  0.3962 -0.6335 -0.4771
   30SAPC  H17S 4029   1.861   4.085   7.564 -0.0486 -0.8241 -0.8432
   30SAPC  C218 4030   2.038   4.019   7.673 -0.1257  0.2184 -0.4279
   30SAPC  H18R 4031   2.096   4.108   7.642  0.4362 -0.7605 -2.3546
   30SAPC  H18S 4032   2.109   3.933   7.672  0.5731  0.7731  0.2649
   30SAPC  C219 4033   1.981   4.038   7.817 -0.8030 -0.0449  0.2849
   30SAPC  H19R 4034   1.907   4.121   7.818 -0.3552  0.4689  3.8005
   30SAPC  H19S 4035   2.064   4.079   7.879 -0.9641 -0.1105  0.5456
   30SAPC  C220 4036   1.924   3.917   7.894 -0.1444  0.2343 -0.2876
   30SAPC  H20R 4037   1.823   3.900   7.851 -0.4172 -2.3908  1.2133
   30SAPC  H20S 4038   1.917   3.933   8.004 -1.0609  0.0814 -0.3250
   30SAPC  H20T 4039   1.974   3.819   7.884  0.7445  0.3508  2.2484
   30SAPC   C33 4040   2.283   3.698   6.982 -0.0521  0.3401 -0.2304
   30SAPC   H3X 4041   2.262   3.614   7.053 -0.4402 -0.0727 -0.8236
   30SAPC   H3Y 4042   2.189   3.756   6.985 -0.5589 -0.4651 -0.1402
   30SAPC   C34 4043   2.399   3.775   7.022 -0.2345  0.5536 -0.1227
   30SAPC   H4X 4044   2.372   3.881   6.999  0.6186  0.6097 -0.9302
   30SAPC   H4Y 4045   2.489   3.754   6.961  0.3541 -0.7751  1.1721
   30SAPC   C35 4046   2.437   3.758   7.168  0.7050 -0.0344 -0.0804
   30SAPC   H5X 4047   2.535   3.806   7.185  0.1293 -0.0885  4.7901
   30SAPC   H5Y 4048   2.449   3.649   7.187 -0.5386 -0.0279  0.8806
   30SAPC   C36 4049   2.337   3.814   7.271 -0.0362 -0.7551  0.4910
   30SAPC   H6X 4050   2.242   3.759   7.285  0.0540 -0.6220  1.6890
   30SAPC   H6Y 4051   2.315   3.919   7.243  1.1904 -0.7048 -0.3784
   30SAPC   C37 4052   2.414   3.813   7.403  0.4417  0.3085  0.1613
   30SAPC   H7X 4053   2.501   3.883   7.401  0.3705  0.3817 -0.7751
   30SAPC   H7Y 4054   2.448   3.707   7.410  2.3578  0.6830 -1.9438
   30SAPC   C38 4055   2.339   3.850   7.526 -0.0678  0.5424 -0.1205
   30SAPC   H8X 4056   2.237   3.807   7.518  0.6257 -1.1452 -0.2292
   30SAPC   H8Y 4057   2.331   3.958   7.552 -0.7697  0.8253 -1.4409
   30SAPC   C39 4058   2.401   3.781   7.658  0.2528  0.1187 -0.5128
   30SAPC   H9X 4059   2.511   3.794   7.662  0.1043  1.4576 -0.3275
   30SAPC   H9Y 4060   2.378   3.673   7.654  3.7145 -0.7671  0.3764
   30SAPC  C310 4061   2.344   3.834   7.792  0.5054  0.1497 -0.1291
   30SAPC  H10X 4062   2.250   3.779   7.812  0.6952  0.2529  1.0835
   30SAPC  H10Y 4063   2.315   3.939   7.773 -0.4545 -0.1983 -0.6406
   30SAPC  C311 4064   2.435   3.811   7.914 -0.1389 -0.2904  0.2333
   30SAPC  H11X 4065   2.541   3.837   7.893 -0.2737  1.3408  1.3268
   30SAPC  H11Y 4066   2.417   3.708   7.952 -1.9109  0.0357  0.3837
   30SAPC  C312 4067   2.384   3.893   8.034  0.2993 -0.4993 -0.3075
   30SAPC  H12X 4068   2.395   4.000   8.007 -1.2315 -1.2610 -4.6614
   30SAPC  H12Y 4069   2.444   3.864   8.123 -0.0483 -1.2408 -0.3075
   30SAPC  C313 4070   2.230   3.873   8.073  0.4710 -0.1614  0.3083
   30SAPC  H13X 4071   2.208   3.764   8.074  2.1768 -0.5356  1.0777
   30SAPC  H13Y 4072   2.174   3.930   7.996  2.6782  2.4758  0.4788
   30SAPC  C314 4073   2.187   3.921   8.217 -0.1678 -0.3555  0.2560
   30SAPC  H14X 4074   2.243   3.861   8.292 -2.5900 -0.1281  2.3543
   30SAPC  H14Y 4075   2.081   3.890   8.224 -1.0611  2.5979  0.8707
   30SAPC  C315 4076   2.215   4.065   8.253  0.0742  0.0680  0.0437
   30SAPC  H15X 4077   2.172   4.133   8.177 -2.5360  0.4174  1.7110
   30SAPC  H15Y 4078   2.323   4.083   8.275  0.1518 -2.5595  2.5572
   30SAPC  C316 4079   2.147   4.095   8.391 -0.6361 -0.0622 -0.1966
   30SAPC  H16X 4080   2.068   4.022   8.418  0.1829 -1.7075 -1.9915
   30SAPC  H16Y 4081   2.102   4.197   8.380  1.7226  0.9750 -0.9717
   30SAPC  C317 4082   2.251   4.105   8.495 -0.2383  0.1709 -0.5105
   30SAPC  H17X 4083   2.306   4.200   8.480  0.8510  0.0093  1.9823
   30SAPC  H17Y 4084   2.325   4.022   8.495 -0.5956 -0.1847 -2.0688
   30SAPC  C318 4085   2.182   4.107   8.636  0.3044  0.2129 -0.0448
   30SAPC  H18X 4086   2.133   4.207   8.637 -1.5446 -0.6348 -0.5250
   30SAPC  H18Y 4087   2.263   4.093   8.710  1.1879 -0.5123 -1.1271
   30SAPC  H18Z 4088   2.105   4.027   8.648  0.8759 -0.7005 -2.0395
   31SAPC     N 4089   4.142   4.794   6.489 -0.4050 -0.4357  0.0116
   31SAPC   C12 4090   4.107   4.932   6.548  0.5265  0.4538  0.1870
   31SAPC  H12A 4091   4.195   4.995   6.553 -1.6897  3.7402  2.1511
   31SAPC  H12B 4092   4.071   4.914   6.648 -0.0083  0.8131  0.0607
   31SAPC   C13 4093   4.030   4.711   6.437  0.1241 -0.2808  0.4999
   31SAPC  H13A 4094   3.967   4.690   6.523 -1.1924  1.2274 -0.0522
   31SAPC  H13B 4095   3.971   4.773   6.372  1.4266  0.1248 -0.3336
   31SAPC  H13C 4096   4.057   4.617   6.392 -1.6719  0.1844 -1.6753
   31SAPC   C14 4097   4.244   4.824   6.384  0.2317 -0.4327  0.2095
   31SAPC  H14A 4098   4.340   4.832   6.432  0.3695  1.2591 -0.2971
   31SAPC  H14B 4099   4.257   4.740   6.318 -2.7024  1.2426 -2.7932
   31SAPC  H14C 4100   4.218   4.916   6.335 -0.3334  0.2928  1.7857
   31SAPC   C15 4101   4.221   4.713   6.589  0.6739  0.3699 -0.2886
   31SAPC  H15A 4102   4.257   4.626   6.537  2.2990  0.8410 -0.0042
   31SAPC  H15B 4103   4.300   4.777   6.627 -0.3558 -0.4007  3.6829
   31SAPC  H15C 4104   4.160   4.682   6.673  1.0632  0.9144  0.2095
   31SAPC   C11 4105   4.003   5.015   6.467 -0.6226  0.2083 -0.7885
   31SAPC  H11A 4106   3.962   5.095   6.532  1.7554 -1.0200  2.4981
   31SAPC  H11B 4107   3.917   4.951   6.438 -0.8613  0.0039  0.2999
   31SAPC     P 4108   4.170   5.187   6.354  0.0315 -0.6568 -0.3742
   31SAPC   O13 4109   4.305   5.128   6.352  0.1362  0.3413  0.0271
   31SAPC   O14 4110   4.137   5.289   6.253 -0.1890  0.3863  0.4438
   31SAPC   O12 4111   4.069   5.060   6.349 -0.1326 -0.7421 -0.2745
   31SAPC   O11 4112   4.139   5.263   6.493 -0.0148  0.2649 -0.3313
   31SAPC    C1 4113   4.229   5.372   6.523 -0.5343 -0.4647  0.1656
   31SAPC    HA 4114   4.333   5.334   6.525  0.9356  2.9321 -1.8514
   31SAPC    HB 4115   4.214   5.450   6.445 -0.1300 -2.8903 -2.4784
   31SAPC    C2 4116   4.198   5.424   6.668  0.5953  0.4148 -0.7394
   31SAPC    HS 4117   4.097   5.471   6.672  0.0114 -0.8915  1.3049
   31SAPC   O21 4118   4.297   5.520   6.715  0.0541  0.0375  0.3060
   31SAPC   C21 4119   4.305   5.633   6.642  0.1678  0.7045  0.6604
   31SAPC   O22 4120   4.219   5.670   6.565  0.0895  0.5270 -0.2531
   31SAPC   C22 4121   4.441   5.695   6.672 -0.1404 -0.4171 -0.5448
   31SAPC   H2R 4122   4.518   5.622   6.707  1.3170  1.5478  0.5615
   31SAPC   H2S 4123   4.489   5.732   6.579  0.6316  0.4667  0.1895
   31SAPC    C3 4124   4.192   5.302   6.765  0.1564 -0.8397  0.2794
   31SAPC    HX 4125   4.287   5.247   6.747  1.0331  0.6493  0.2032
   31SAPC    HY 4126   4.115   5.227   6.737  2.3944 -2.9533 -0.6249
   31SAPC   O31 4127   4.194   5.357   6.899  0.1878  0.7379 -0.6058
   31SAPC   C31 4128   4.080   5.371   6.964  0.0946 -0.5656 -0.1990
   31SAPC   O32 4129   3.969   5.347   6.923 -0.5238  0.1874 -0.2712
   31SAPC   C32 4130   4.109   5.427   7.110 -0.5038 -0.4228 -0.8040
   31SAPC   H2X 4131   4.139   5.532   7.088 -2.2195  0.1478 -0.6002
   31SAPC   H2Y 4132   4.195   5.375   7.157 -0.3724  0.8182  0.4108
   31SAPC   C23 4133   4.441   5.813   6.781 -0.4826  0.4214  0.9170
   31SAPC   H3R 4134   4.358   5.879   6.745 -2.4346 -1.3991  1.8295
   31SAPC   H3S 4135   4.539   5.865   6.775 -0.4758  0.2004 -2.0388
   31SAPC   C24 4136   4.405   5.765   6.925  0.3267  0.3957  0.2038
   31SAPC   H4R 4137   4.299   5.732   6.921  0.9579 -1.6589 -0.9827
   31SAPC   H4S 4138   4.424   5.859   6.982  1.7407  1.1917 -1.5035
   31SAPC   C25 4139   4.488   5.654   6.981  0.3374 -0.0277 -0.2475
   31SAPC   H5R 4140   4.487   5.565   6.916  1.1929  0.6144 -1.1741
   31SAPC   C26 4141   4.555   5.661   7.101  0.1662 -0.0087  1.0236
   31SAPC   H6R 4142   4.608   5.570   7.131  0.4176 -0.0110  0.5862
   31SAPC   C27 4143   4.564   5.779   7.197  0.2452  0.6791 -1.0116
   31SAPC   H7R 4144   4.577   5.877   7.147  1.6548  0.1938 -1.6562
   31SAPC   H7S 4145   4.665   5.758   7.238  0.7658  2.0647 -1.5093
   31SAPC   C28 4146   4.468   5.761   7.309  0.1222 -0.2670  0.5443
   31SAPC   H8R 4147   4.399   5.676   7.297  1.5477 -1.5197  1.0230
   31SAPC   C29 4148   4.462   5.842   7.417 -0.1294  0.3524  0.3352
   31SAPC   H9R 4149   4.388   5.805   7.489 -0.0297 -0.9404 -0.2131
   31SAPC  C210 4150   4.543   5.958   7.456 -0.4323 -0.3468  0.2931
   31SAPC  H10R 4151   4.606   6.008   7.379  1.3738  0.4187  2.1678
   31SAPC  H10S 4152   4.621   5.923   7.528 -1.0230 -1.9768  0.1833
   31SAPC  C211 4153   4.451   6.059   7.521 -0.1390 -0.1353  0.8211
   31SAPC  H11R 4154   4.362   6.088   7.462 -0.2078 -0.9066  0.5351
   31SAPC  C212 4155   4.439   6.094   7.646 -0.2589 -0.7791  0.7984
   31SAPC  H12R 4156   4.357   6.161   7.675  1.9788  1.8421  1.5488
   31SAPC  C213 4157   4.531   6.040   7.752 -0.4819  0.3485 -0.4530
   31SAPC  H13R 4158   4.630   6.008   7.713 -0.3267  0.1752  0.0804
   31SAPC  H13S 4159   4.483   5.949   7.794  0.0112 -0.3418 -1.3467
   31SAPC  C214 4160   4.568   6.137   7.857  0.2957 -0.6403 -0.3301
   31SAPC  H14R 4161   4.618   6.228   7.820 -1.1680 -0.8073 -3.0010
   31SAPC  C215 4162   4.530   6.121   7.984  0.1441 -0.2163  0.5141
   31SAPC  H15R 4163   4.546   6.204   8.055  0.8072 -0.3962  0.5787
   31SAPC  C216 4164   4.461   6.003   8.048  0.8249  0.5361 -0.7752
   31SAPC  H16R 4165   4.443   5.912   7.987 -1.7652  0.2322  0.3063
   31SAPC  H16S 4166   4.362   6.030   8.090  0.1045 -3.4601  0.4896
   31SAPC  C217 4167   4.540   5.957   8.169  0.8906  0.9845 -0.4820
   31SAPC  H17R 4168   4.537   6.034   8.249 -1.4639 -0.1140  0.6103
   31SAPC  H17S 4169   4.646   5.943   8.139  0.8828 -1.8571  0.4869
   31SAPC  C218 4170   4.483   5.821   8.217 -0.9347  0.3742  0.1892
   31SAPC  H18R 4171   4.482   5.757   8.126 -2.6188  1.8481 -0.9088
   31SAPC  H18S 4172   4.376   5.835   8.246 -1.5276  2.7261 -2.5438
   31SAPC  C219 4173   4.557   5.761   8.344 -1.1599 -0.1115  0.0073
   31SAPC  H19R 4174   4.556   5.846   8.416  2.2181  1.9910 -2.1469
   31SAPC  H19S 4175   4.661   5.733   8.319 -1.7761 -1.6332 -0.9999
   31SAPC  C220 4176   4.482   5.639   8.410 -0.8344 -0.5414  0.0676
   31SAPC  H20R 4177   4.508   5.640   8.519 -0.7783 -0.2126  0.0551
   31SAPC  H20S 4178   4.515   5.546   8.360 -0.1218 -1.0174  1.3711
   31SAPC  H20T 4179   4.373   5.653   8.400 -0.3658  2.9682 -1.8161
   31SAPC   C33 4180   3.990   5.416   7.207 -0.8288  0.1865  0.1792
   31SAPC   H3X 4181   3.938   5.323   7.175 -1.7980  0.3794  1.1570
   31SAPC   H3Y 4182   3.918   5.499   7.194  0.2248  1.5651  2.5989
   31SAPC   C34 4183   4.034   5.407   7.356 -0.4232  0.2248  0.4927
   31SAPC   H4X 4184   4.080   5.308   7.377  2.4493  1.3455 -0.0231
   31SAPC   H4Y 4185   3.938   5.407   7.412 -2.7228 -2.5533 -2.9669
   31SAPC   C35 4186   4.131   5.515   7.402 -0.2069  0.5777  1.0495
   31SAPC   H5X 4187   4.108   5.607   7.345  1.4494 -0.7445 -1.9918
   31SAPC   H5Y 4188   4.233   5.483   7.372 -1.2180 -1.2704 -0.6939
   31SAPC   C36 4189   4.123   5.535   7.555  0.3190  0.5821 -0.0917
   31SAPC   H6X 4190   4.149   5.441   7.608 -0.8041  0.4205  0.2030
   31SAPC   H6Y 4191   4.021   5.572   7.580  0.2485  0.7955 -0.6728
   31SAPC   C37 4192   4.235   5.633   7.604 -1.2733  0.2412  0.3777
   31SAPC   H7X 4193   4.213   5.731   7.556  1.3093 -1.0742 -4.0659
   31SAPC   H7Y 4194   4.337   5.605   7.570 -1.5275 -0.3347  0.0886
   31SAPC   C38 4195   4.227   5.674   7.752 -1.1798 -0.4416  0.5186
   31SAPC   H8X 4196   4.297   5.759   7.768 -0.5684 -0.4268 -1.9180
   31SAPC   H8Y 4197   4.244   5.579   7.808 -1.1718 -2.1277 -2.1819
   31SAPC   C39 4198   4.087   5.725   7.788 -0.4566 -0.3036 -0.0306
   31SAPC   H9X 4199   4.027   5.633   7.805 -0.7416 -0.2646 -0.7812
   31SAPC   H9Y 4200   4.032   5.783   7.711 -1.5452 -0.1267  0.8508
   31SAPC  C310 4201   4.086   5.806   7.918 -0.9569 -0.5842  0.2095
   31SAPC  H10X 4202   3.984   5.839   7.944 -0.6204 -0.8389  1.9558
   31SAPC  H10Y 4203   4.131   5.905   7.895 -2.4312 -0.3372 -1.9271
   31SAPC  C311 4204   4.153   5.752   8.047 -0.4941 -0.1553 -0.0698
   31SAPC  H11X 4205   4.120   5.821   8.128 -0.2543 -0.6640  0.4724
   31SAPC  H11Y 4206   4.263   5.750   8.065 -0.5590  0.8153  0.5212
   31SAPC  C312 4207   4.102   5.611   8.080  0.4373  0.2678  0.0214
   31SAPC  H12X 4208   4.101   5.554   7.985 -0.3450  0.1119  0.1228
   31SAPC  H12Y 4209   4.003   5.636   8.123  0.5689 -1.2960  1.2943
   31SAPC  C313 4210   4.183   5.541   8.191  0.0976  0.0507  0.0307
   31SAPC  H13X 4211   4.169   5.608   8.279  0.6154  1.0390 -0.6052
   31SAPC  H13Y 4212   4.289   5.544   8.155  0.9900 -1.5635  2.2962
   31SAPC  C314 4213   4.151   5.390   8.207 -0.4386  0.4672 -0.3158
   31SAPC  H14X 4214   4.199   5.328   8.129 -1.0871  1.0200 -1.1761
   31SAPC  H14Y 4215   4.041   5.377   8.192 -0.1698 -0.3588 -1.7352
   31SAPC  C315 4216   4.205   5.339   8.347  0.3255 -0.3907  0.2354
   31SAPC  H15X 4217   4.310   5.376   8.350  0.0818  0.3947 -0.5716
   31SAPC  H15Y 4218   4.212   5.228   8.353 -0.0850 -0.4819 -0.7179
   31SAPC  C316 4219   4.132   5.386   8.476 -0.2874 -0.0127 -0.8403
   31SAPC  H16X 4220   4.039   5.325   8.477  0.4315 -1.1826 -2.1484
   31SAPC  H16Y 4221   4.107   5.493   8.460  1.8317  0.9583  1.5261
   31SAPC  C317 4222   4.224   5.372   8.599  0.3810  0.8755 -0.3690
   31SAPC  H17X 4223   4.318   5.431   8.594  0.7895  0.1527 -1.4971
   31SAPC  H17Y 4224   4.261   5.269   8.619  2.0521  1.6186  0.6217
   31SAPC  C318 4225   4.164   5.419   8.734  0.1550  0.0397 -0.2982
   31SAPC  H18X 4226   4.061   5.383   8.756 -0.4327  1.9263  0.2433
   31SAPC  H18Y 4227   4.167   5.529   8.751 -1.1373  0.2968 -1.4696
   31SAPC  H18Z 4228   4.226   5.373   8.813  0.2938 -0.4442 -0.6864
   32SAPC     N 4229   3.726   6.674   5.947  0.7618  0.0298  0.1366
   32SAPC   C12 4230   3.780   6.800   6.002  0.1716 -0.2728 -0.1911
   32SAPC  H12A 4231   3.742   6.874   5.932  0.6790 -0.1671 -0.3633
   32SAPC  H12B 4232   3.887   6.811   5.998  0.3276  3.0431  4.5471
   32SAPC   C13 4233   3.577   6.672   5.941 -0.2012 -0.9772  0.3626
   32SAPC  H13A 4234   3.524   6.681   6.035 -0.7723  1.9897 -0.1448
   32SAPC  H13B 4235   3.543   6.760   5.889 -2.5350 -1.2220  1.3411
   32SAPC  H13C 4236   3.557   6.581   5.887  0.3478 -0.8314 -0.0993
   32SAPC   C14 4237   3.773   6.657   5.797  0.6735 -0.1488 -0.1660
   32SAPC  H14A 4238   3.743   6.742   5.738  0.7719  0.8092  1.1248
   32SAPC  H14B 4239   3.880   6.657   5.807  0.5676 -1.7006  1.5407
   32SAPC  H14C 4240   3.758   6.557   5.760 -1.8395 -0.3474  1.1822
   32SAPC   C15 4241   3.764   6.552   6.031 -0.2482 -0.1025 -0.5402
   32SAPC  H15A 4242   3.693   6.542   6.112 -1.1292 -2.2673 -1.4944
   32SAPC  H15B 4243   3.762   6.466   5.966  1.1151  0.5424 -1.4864
   32SAPC  H15C 4244   3.864   6.572   6.068 -0.5713  0.5446 -0.0066
   32SAPC   C11 4245   3.742   6.837   6.149 -0.8392  0.3774 -0.3504
   32SAPC  H11A 4246   3.805   6.922   6.182 -0.9528  1.4435 -2.6644
   32SAPC  H11B 4247   3.769   6.763   6.228 -1.1707 -1.0093 -1.4958
   32SAPC     P 4248   3.559   7.011   6.203  0.2851 -0.0211 -0.3489
   32SAPC   O13 4249   3.595   7.100   6.090 -0.0721  0.2300 -0.0988
   32SAPC   O14 4250   3.427   7.026   6.254  0.3581 -0.0326 -0.0921
   32SAPC   O12 4251   3.600   6.867   6.163 -0.0896  0.2566 -0.3575
   32SAPC   O11 4252   3.656   7.037   6.318  0.2979  0.4102 -0.1506
   32SAPC    C1 4253   3.665   6.953   6.437  0.6388  0.5706  0.5779
   32SAPC    HA 4254   3.608   6.857   6.440  0.8702  0.4500  1.8251
   32SAPC    HB 4255   3.768   6.911   6.445 -0.2848 -1.6800  1.4027
   32SAPC    C2 4256   3.633   7.021   6.574  0.3319  0.3172 -0.3021
   32SAPC    HS 4257   3.625   6.936   6.645  0.2962 -0.8940 -1.7077
   32SAPC   O21 4258   3.507   7.091   6.569 -0.0610 -0.0357  0.8318
   32SAPC   C21 4259   3.438   7.103   6.681  0.3612  0.4790  0.5390
   32SAPC   O22 4260   3.470   7.036   6.781 -0.1357  0.2098 -0.0974
   32SAPC   C22 4261   3.328   7.209   6.672  0.2412 -0.1284 -0.3912
   32SAPC   H2R 4262   3.379   7.305   6.648 -0.0514  0.1308  0.0196
   32SAPC   H2S 4263   3.259   7.171   6.594 -1.4426 -0.7995  1.3579
   32SAPC    C3 4264   3.754   7.114   6.608  0.0273 -0.5092  0.2052
   32SAPC    HX 4265   3.775   7.200   6.540  1.5677  0.3050  1.6512
   32SAPC    HY 4266   3.850   7.060   6.611  0.9568  1.1074  0.5712
   32SAPC   O31 4267   3.728   7.179   6.732  0.2617 -0.2394 -0.4662
   32SAPC   C31 4268   3.799   7.129   6.833 -0.5062 -0.5542  0.3752
   32SAPC   O32 4269   3.883   7.038   6.828  0.2092 -0.5572 -0.1316
   32SAPC   C32 4270   3.772   7.212   6.958  0.1656  0.5817  0.7256
   32SAPC   H2X 4271   3.670   7.184   6.993 -0.0388  0.1087 -0.2086
   32SAPC   H2Y 4272   3.769   7.317   6.920 -0.5426  0.1981 -0.3411
   32SAPC   C23 4273   3.242   7.205   6.808 -0.4614 -0.0235 -0.5612
   32SAPC   H3R 4274   3.245   7.105   6.857  0.9033 -0.5831 -1.7070
   32SAPC   H3S 4275   3.137   7.230   6.785 -1.2869  0.0646  2.8820
   32SAPC   C24 4276   3.292   7.313   6.908  0.2530  0.7109  0.3209
   32SAPC   H4R 4277   3.288   7.417   6.870  1.6357  0.1485 -1.5263
   32SAPC   H4S 4278   3.398   7.288   6.928  0.3057  0.8373  0.2002
   32SAPC   C25 4279   3.215   7.299   7.039 -0.3970 -0.1401 -0.3418
   32SAPC   H5R 4280   3.126   7.363   7.043  0.3806  0.9137  0.7407
   32SAPC   C26 4281   3.246   7.219   7.144  0.3293 -0.5080 -0.4976
   32SAPC   H6R 4282   3.176   7.228   7.229  0.9677 -0.0318 -0.0079
   32SAPC   C27 4283   3.353   7.110   7.150 -0.8347 -0.1557 -0.6802
   32SAPC   H7R 4284   3.378   7.080   7.046  0.9848  3.1007 -1.2965
   32SAPC   H7S 4285   3.298   7.022   7.189 -1.4293  0.0919 -0.9363
   32SAPC   C28 4286   3.477   7.135   7.236  0.4743  0.7320  0.7277
   32SAPC   H8R 4287   3.562   7.176   7.179 -0.4588  0.5093 -0.8931
   32SAPC   C29 4288   3.488   7.090   7.365 -0.2037  0.2847  0.0232
   32SAPC   H9R 4289   3.583   7.115   7.414  0.4495  3.2866 -2.5124
   32SAPC  C210 4290   3.378   7.037   7.459 -0.5941  0.1041 -0.5622
   32SAPC  H10R 4291   3.414   6.936   7.485  0.8159  0.0375 -2.5702
   32SAPC  H10S 4292   3.284   7.019   7.404 -0.4729 -0.7448 -0.4990
   32SAPC  C211 4293   3.363   7.132   7.580  0.2612 -0.2168 -0.0501
   32SAPC  H11R 4294   3.324   7.229   7.547 -0.8997 -0.6339  0.0682
   32SAPC  C212 4295   3.419   7.122   7.705  0.3107  0.0495 -0.0552
   32SAPC  H12R 4296   3.390   7.191   7.784 -1.5416 -2.2097  1.3594
   32SAPC  C213 4297   3.510   7.007   7.740 -0.8709 -0.0178  0.5817
   32SAPC  H13R 4298   3.613   7.035   7.710 -0.9050 -0.5669 -0.0534
   32SAPC  H13S 4299   3.483   6.911   7.692  0.5191 -0.3535  0.4411
   32SAPC  C214 4300   3.503   6.996   7.887 -0.6300  0.0853 -0.6010
   32SAPC  H14R 4301   3.448   6.911   7.931 -0.6204  0.9869  1.2695
   32SAPC  C215 4302   3.582   7.055   7.976  0.0340 -0.3088 -0.4055
   32SAPC  H15R 4303   3.576   7.029   8.083  0.1560  0.7700 -0.1227
   32SAPC  C216 4304   3.687   7.156   7.947  0.1502  0.0992  0.0912
   32SAPC  H16R 4305   3.670   7.215   7.854 -0.0557  1.6231  1.0756
   32SAPC  H16S 4306   3.784   7.102   7.934 -0.9670 -1.9566 -0.2489
   32SAPC  C217 4307   3.701   7.266   8.055  0.2976 -0.0100 -1.1482
   32SAPC  H17R 4308   3.602   7.317   8.055  0.2694  0.2371  3.1052
   32SAPC  H17S 4309   3.775   7.342   8.025 -0.5009  0.8601 -0.9618
   32SAPC  C218 4310   3.736   7.214   8.202  0.9951 -0.8750  0.3298
   32SAPC  H18R 4311   3.659   7.155   8.255 -0.9905  2.7450  1.8990
   32SAPC  H18S 4312   3.731   7.307   8.264  1.4192 -1.3541  1.1060
   32SAPC  C219 4313   3.874   7.154   8.222 -0.0581  0.2273 -0.5229
   32SAPC  H19R 4314   3.948   7.214   8.164 -0.7117 -0.5545 -2.2589
   32SAPC  H19S 4315   3.888   7.055   8.173  0.0712  0.9569 -2.0185
   32SAPC  C220 4316   3.909   7.141   8.363  0.2012  0.6599  0.2227
   32SAPC  H20R 4317   3.833   7.080   8.417 -1.4806  0.8169 -1.8550
   32SAPC  H20S 4318   3.909   7.242   8.410  0.5330  0.8147 -0.1048
   32SAPC  H20T 4319   4.011   7.098   8.374 -0.1495 -0.1269  0.4464
   32SAPC   C33 4320   3.875   7.187   7.063 -0.7064  0.5656 -0.6526
   32SAPC   H3X 4321   3.976   7.222   7.032  0.3001 -1.0252  0.6572
   32SAPC   H3Y 4322   3.887   7.081   7.096 -0.3805  0.8370  0.1364
   32SAPC   C34 4323   3.847   7.271   7.187  0.1363  0.4965 -0.0419
   32SAPC   H4X 4324   3.764   7.223   7.243 -1.9622  2.1353 -1.5835
   32SAPC   H4Y 4325   3.806   7.365   7.145 -0.9160 -0.0540 -0.2857
   32SAPC   C35 4326   3.963   7.299   7.281 -0.0326  0.0187 -1.0014
   32SAPC   H5X 4327   3.969   7.410   7.286  0.1510  0.0307 -1.4898
   32SAPC   H5Y 4328   4.055   7.261   7.233 -0.9086 -1.3190 -1.6900
   32SAPC   C36 4329   3.958   7.253   7.424 -0.3414  0.1096 -0.2637
   32SAPC   H6X 4330   3.991   7.148   7.440  0.8806  0.4468 -0.5372
   32SAPC   H6Y 4331   3.852   7.262   7.459  0.3646  1.6418  1.6606
   32SAPC   C37 4332   4.057   7.342   7.508  0.3523 -0.9899 -0.2426
   32SAPC   H7X 4333   4.037   7.450   7.491  0.3143 -0.5573  2.1672
   32SAPC   H7Y 4334   4.155   7.318   7.460  1.0990 -0.6195  1.0508
   32SAPC   C38 4335   4.058   7.308   7.660  0.1429 -0.0975 -0.0443
   32SAPC   H8X 4336   4.099   7.205   7.661 -1.4903 -0.8461 -2.2734
   32SAPC   H8Y 4337   3.949   7.308   7.682  0.0843  1.1883 -0.2728
   32SAPC   C39 4338   4.125   7.407   7.755  0.1066  0.1222 -0.6955
   32SAPC   H9X 4339   4.092   7.511   7.733  0.2170  0.5245  0.8955
   32SAPC   H9Y 4340   4.235   7.403   7.748  0.0606 -1.9775 -0.9813
   32SAPC  C310 4341   4.081   7.359   7.896  0.5572 -0.6352 -0.3285
   32SAPC  H10X 4342   4.132   7.267   7.932  2.0253  0.4179  0.3539
   32SAPC  H10Y 4343   3.974   7.330   7.894  0.7294 -1.2453 -1.1367
   32SAPC  C311 4344   4.106   7.471   7.994  0.0565 -0.1250 -0.0860
   32SAPC  H11X 4345   4.080   7.572   7.956 -1.4471 -0.1700  0.7316
   32SAPC  H11Y 4346   4.216   7.473   8.007 -0.0105 -0.7113  0.6223
   32SAPC  C312 4347   4.045   7.454   8.137 -0.2996  0.1806 -0.2758
   32SAPC  H12X 4348   4.083   7.358   8.176 -0.0682  0.3332 -0.1234
   32SAPC  H12Y 4349   3.935   7.449   8.147 -0.1588  1.2535  3.1360
   32SAPC  C313 4350   4.075   7.566   8.233  0.2042 -0.0192  0.2436
   32SAPC  H13X 4351   4.002   7.554   8.316 -0.5294 -0.0643 -0.4020
   32SAPC  H13Y 4352   4.043   7.666   8.197 -0.7038 -0.8747 -1.4162
   32SAPC  C314 4353   4.215   7.563   8.275  0.1150  0.2959  0.8227
   32SAPC  H14X 4354   4.265   7.628   8.200 -1.4779  1.7188  0.9095
   32SAPC  H14Y 4355   4.249   7.458   8.273  0.3363  0.3622  1.0551
   32SAPC  C315 4356   4.243   7.615   8.411 -0.2292 -0.4643  0.5977
   32SAPC  H15X 4357   4.184   7.558   8.486  1.2153  0.8382  2.8590
   32SAPC  H15Y 4358   4.211   7.719   8.431 -0.5024 -0.9454  3.0256
   32SAPC  C316 4359   4.393   7.590   8.430 -0.1511  0.4861  0.5364
   32SAPC  H16X 4360   4.454   7.656   8.365  1.5051  0.2300  1.7838
   32SAPC  H16Y 4361   4.418   7.481   8.424 -0.7088  0.3838 -0.0156
   32SAPC  C317 4362   4.445   7.633   8.567  0.4038 -0.5403  0.1430
   32SAPC  H17X 4363   4.384   7.588   8.648  0.7261 -0.0544  0.6672
   32SAPC  H17Y 4364   4.429   7.743   8.576  0.4175 -0.5682  0.5427
   32SAPC  C318 4365   4.596   7.593   8.592 -0.2254 -0.4417  0.0319
   32SAPC  H18X 4366   4.660   7.654   8.524 -0.4263 -0.6527 -0.3488
   32SAPC  H18Y 4367   4.611   7.485   8.571  2.2883 -0.6386  2.2716
   32SAPC  H18Z 4368   4.633   7.617   8.694 -0.4934  0.2863 -0.0333
   33POPC     N 4369   1.273   6.391  10.782  0.6666 -0.1574 -0.0308
   33POPC   C12 4370   1.255   6.350  10.634  0.5650  0.3923  0.6162
   33POPC  H12A 4371   1.320   6.414  10.576 -0.4459  1.4578  0.6288
   33POPC  H12B 4372   1.156   6.381  10.602  0.8073 -0.4200 -1.0522
   33POPC   C13 4373   1.262   6.546  10.787 -1.1141 -0.1952 -0.3449
   33POPC  H13A 4374   1.345   6.597  10.739 -0.5030 -1.5160 -0.7563
   33POPC  H13B 4375   1.169   6.572  10.740  0.0979  0.8947 -2.2833
   33POPC  H13C 4376   1.245   6.582  10.887 -1.8072  0.5479 -0.7290
   33POPC   C14 4377   1.161   6.344  10.869 -0.6343 -0.1522 -0.8359
   33POPC  H14A 4378   1.182   6.358  10.974 -1.7587  1.3649 -0.7646
   33POPC  H14B 4379   1.069   6.399  10.850 -0.9688 -0.7628 -1.0080
   33POPC  H14C 4380   1.141   6.242  10.839  2.5803 -1.0971 -0.1008
   33POPC   C15 4381   1.403   6.345  10.842  0.3208 -0.1375 -0.0378
   33POPC  H15A 4382   1.489   6.383  10.789  0.4908  0.0842  0.3968
   33POPC  H15B 4383   1.409   6.237  10.838  0.3383 -0.1895  1.0498
   33POPC  H15C 4384   1.415   6.378  10.944  0.1606  2.3317 -0.7508
   33POPC   C11 4385   1.282   6.209  10.593 -0.0777  0.1005 -0.3819
   33POPC  H11A 4386   1.389   6.191  10.616 -0.4710  0.5209  2.0263
   33POPC  H11B 4387   1.252   6.202  10.486 -2.6354 -0.5663  0.3084
   33POPC     P 4388   1.253   5.991  10.740 -0.1399  0.2479  0.3241
   33POPC   O13 4389   1.129   5.935  10.800 -0.3859  0.0110 -0.2821
   33POPC   O14 4390   1.357   6.035  10.832 -0.5603  0.1774  0.1591
   33POPC   O12 4391   1.199   6.115  10.660 -0.0650  0.3724  0.2504
   33POPC   O11 4392   1.316   5.906  10.623 -0.0844 -0.0986 -0.2261
   33POPC    C1 4393   1.247   5.789  10.569  0.6817 -1.0428  0.0320
   33POPC    HA 4394   1.286   5.690  10.601 -1.7298 -3.1039 -2.8361
   33POPC    HB 4395   1.141   5.793  10.602  1.2350  1.5974  1.7671
   33POPC    C2 4396   1.253   5.783  10.409 -0.0241  0.3187  0.6801
   33POPC    HS 4397   1.202   5.691  10.374 -1.1613  1.1623  0.0642
   33POPC   O21 4398   1.392   5.785  10.356 -0.5214 -0.2445  0.3468
   33POPC   C21 4399   1.466   5.681  10.379  0.1669  0.5737  0.3308
   33POPC   O22 4400   1.428   5.581  10.438  0.0842 -0.8033  0.1298
   33POPC   C22 4401   1.599   5.682  10.308 -0.2789 -0.5059 -0.5047
   33POPC   H2R 4402   1.654   5.589  10.332  0.8504 -0.2012 -1.7670
   33POPC   H2S 4403   1.660   5.763  10.352 -2.1729  1.0493 -0.5709
   33POPC    C3 4404   1.164   5.900  10.360  0.2818 -0.0170  0.0233
   33POPC    HX 4405   1.206   5.997  10.393 -1.2652  0.0415  1.9929
   33POPC    HY 4406   1.072   5.887  10.421 -0.2342 -0.2571 -0.7885
   33POPC   O31 4407   1.126   5.889  10.220 -0.7886  0.4382 -0.4576
   33POPC   C31 4408   1.207   5.941  10.122  0.8062 -0.0480 -0.5471
   33POPC   O32 4409   1.301   6.011  10.146  0.6613 -0.3319 -0.0064
   33POPC   C32 4410   1.175   5.887   9.986  0.2498  0.2243 -0.5512
   33POPC   H2X 4411   1.069   5.910   9.965 -1.0812 -2.4159  2.4482
   33POPC   H2Y 4412   1.172   5.776   9.993 -2.9933  0.2036 -0.8880
   33POPC   C23 4413   1.576   5.698  10.156 -0.6280 -0.1687 -0.3398
   33POPC   H3R 4414   1.674   5.740  10.125 -1.2216  2.4994  1.1407
   33POPC   H3S 4415   1.507   5.782  10.134 -0.4331 -0.3811 -1.8857
   33POPC   C24 4416   1.544   5.565  10.086 -0.0698 -1.1153 -0.6910
   33POPC   H4R 4417   1.455   5.521  10.136 -1.7432  0.5510 -2.0236
   33POPC   H4S 4418   1.629   5.495  10.095  0.4507 -0.1722  3.9009
   33POPC   C25 4419   1.519   5.589   9.939  0.0876  0.5607 -0.2146
   33POPC   H5R 4420   1.606   5.638   9.892  0.0745 -0.5299 -1.4389
   33POPC   H5S 4421   1.431   5.657   9.934 -1.9019 -1.7620  0.9566
   33POPC   C26 4422   1.496   5.459   9.869 -0.3886  0.0929  0.8294
   33POPC   H6R 4423   1.395   5.415   9.887 -0.2646 -1.3185 -1.5172
   33POPC   H6S 4424   1.556   5.371   9.900 -0.8912 -0.3954  0.4353
   33POPC   C27 4425   1.509   5.472   9.716 -0.2123  0.2524 -0.3340
   33POPC   H7R 4426   1.615   5.484   9.686  0.7591  1.1496  3.0091
   33POPC   H7S 4427   1.461   5.567   9.684 -1.1066 -0.9787 -2.8667
   33POPC   C28 4428   1.450   5.352   9.646 -0.2068  0.2083  0.3713
   33POPC   H8R 4429   1.341   5.341   9.662  0.0699 -3.1529  0.6512
   33POPC   H8S 4430   1.494   5.262   9.694 -1.6351 -0.3622  0.6397
   33POPC   C29 4431   1.499   5.349   9.500  0.0203  0.4715  0.3750
   33POPC   H91 4432   1.606   5.327   9.489 -0.4910 -2.6769  0.6566
   33POPC  C210 4433   1.432   5.398   9.399 -0.6906 -0.5276  0.1622
   33POPC  H101 4434   1.469   5.377   9.297 -1.9350  0.4553 -0.5195
   33POPC  C211 4435   1.293   5.459   9.414 -0.3249  0.4047 -0.9588
   33POPC  H11R 4436   1.283   5.534   9.496 -0.2630 -0.5589 -0.0468
   33POPC  H11S 4437   1.215   5.382   9.434 -0.6687  1.2515  1.1943
   33POPC  C212 4438   1.259   5.533   9.290 -0.4485 -0.6218  0.7727
   33POPC  H12R 4439   1.337   5.600   9.249 -0.6336 -0.8877 -0.0347
   33POPC  H12S 4440   1.172   5.597   9.315 -1.5954 -1.2381 -1.4745
   33POPC  C213 4441   1.193   5.450   9.179 -0.0335  0.4728 -0.6789
   33POPC  H13R 4442   1.107   5.405   9.234 -0.8407  0.7944 -1.6683
   33POPC  H13S 4443   1.265   5.370   9.154 -0.4960  0.0726 -0.7564
   33POPC  C214 4444   1.159   5.529   9.051  0.5455  0.6998  0.2935
   33POPC  H14R 4445   1.250   5.587   9.023  0.3314  1.1874  0.5706
   33POPC  H14S 4446   1.075   5.600   9.068 -1.4035 -1.3629 -0.3947
   33POPC  C215 4447   1.114   5.436   8.936 -0.4100 -0.3226 -0.6480
   33POPC  H15R 4448   1.005   5.419   8.954 -0.4001  0.1535 -0.1257
   33POPC  H15S 4449   1.181   5.348   8.946  1.0678  0.7393 -0.8832
   33POPC  C216 4450   1.129   5.497   8.799  0.1085  0.7105  0.5156
   33POPC  H16R 4451   1.075   5.431   8.727 -0.1867  2.4677 -0.9393
   33POPC  H16S 4452   1.235   5.496   8.766  0.6232  0.2133  2.1151
   33POPC  C217 4453   1.074   5.636   8.766 -0.0316  0.4331 -0.0435
   33POPC  H17R 4454   1.106   5.702   8.849  1.0657 -2.2828  1.8309
   33POPC  H17S 4455   0.965   5.612   8.771  0.1976 -0.8485 -0.9633
   33POPC  C218 4456   1.098   5.688   8.627 -0.4131 -0.1639  0.2732
   33POPC  H18R 4457   1.194   5.742   8.608 -0.3406 -0.5947 -0.6601
   33POPC  H18S 4458   1.015   5.757   8.602 -0.7688 -1.0012 -0.9819
   33POPC  H18T 4459   1.085   5.615   8.544  1.6156 -1.6585  1.1806
   33POPC   C33 4460   1.282   5.928   9.881 -0.2742  0.2729 -0.0476
   33POPC   H3X 4461   1.379   5.922   9.934 -1.4079  0.7661  2.2125
   33POPC   H3Y 4462   1.268   6.036   9.856 -0.4668  0.2591 -0.0027
   33POPC   C34 4463   1.274   5.838   9.754  0.1087  0.2242  0.0707
   33POPC   H4X 4464   1.267   5.740   9.805  1.1235  1.5544  3.0041
   33POPC   H4Y 4465   1.368   5.848   9.696  0.5060  2.7355  1.0226
   33POPC   C35 4466   1.153   5.879   9.660  0.1072 -0.1239  1.0661
   33POPC   H5X 4467   1.107   5.962   9.717  1.0758 -0.0640  1.7862
   33POPC   H5Y 4468   1.077   5.799   9.648 -1.3641  1.2680  0.8245
   33POPC   C36 4469   1.210   5.938   9.533  0.1624  0.0248  0.5275
   33POPC   H6X 4470   1.277   5.865   9.483 -0.2572  0.2153 -0.3309
   33POPC   H6Y 4471   1.271   6.029   9.556  2.2276 -1.0813 -0.2918
   33POPC   C37 4472   1.096   5.972   9.432 -0.2388  0.4389  0.0885
   33POPC   H7X 4473   1.047   6.063   9.472 -2.9041 -0.5899 -0.6033
   33POPC   H7Y 4474   1.021   5.891   9.453 -1.9332  1.6406 -1.0411
   33POPC   C38 4475   1.130   5.978   9.287  0.0200  0.5535 -0.3292
   33POPC   H8X 4476   1.168   5.881   9.248 -0.0320  0.6952 -0.7333
   33POPC   H8Y 4477   1.218   6.047   9.285  1.5238 -1.2569  0.2545
   33POPC   C39 4478   1.014   6.024   9.187  0.5708 -0.6717  0.5649
   33POPC   H9X 4479   0.968   6.121   9.216 -0.0338 -1.1331  1.1804
   33POPC   H9Y 4480   0.936   5.945   9.193 -0.5111  0.4059  1.2750
   33POPC  C310 4481   1.057   6.025   9.033  0.1419  0.1365  0.1081
   33POPC  H10X 4482   1.073   5.919   9.006 -0.1758  0.3167 -0.7965
   33POPC  H10Y 4483   1.146   6.090   9.031 -0.5457  1.5176  4.1119
   33POPC  C311 4484   0.947   6.076   8.937  0.3335  0.0095 -0.2267
   33POPC  H11X 4485   0.912   6.179   8.958 -1.3719 -0.4953 -0.4353
   33POPC  H11Y 4486   0.859   6.008   8.946  1.5400 -1.7466 -1.0611
   33POPC  C312 4487   0.985   6.077   8.791  0.0123 -0.1867 -0.4559
   33POPC  H12X 4488   1.011   5.972   8.766  1.3368 -0.1497  0.6600
   33POPC  H12Y 4489   1.081   6.133   8.785  2.1619 -2.9141  3.4892
   33POPC  C313 4490   0.883   6.134   8.692  0.6940  0.7792  0.0570
   33POPC  H13X 4491   0.859   6.238   8.722  0.6610  0.5976  0.6760
   33POPC  H13Y 4492   0.788   6.079   8.708 -1.0827  3.3636 -1.0030
   33POPC  C314 4493   0.923   6.127   8.547  0.6350  0.3279 -0.1463
   33POPC  H14X 4494   0.943   6.019   8.528  0.1045  0.4887 -1.7790
   33POPC  H14Y 4495   1.013   6.188   8.526  1.0813 -0.1298  0.4118
   33POPC  C315 4496   0.798   6.160   8.454  0.8089  0.3986 -0.2840
   33POPC  H15X 4497   0.772   6.265   8.477 -0.9831  0.1382 -0.9356
   33POPC  H15Y 4498   0.707   6.108   8.490 -0.5608  2.1127 -1.1454
   33POPC  C316 4499   0.829   6.143   8.308 -0.7897 -0.3726  0.1293
   33POPC  H16X 4500   0.744   6.177   8.246 -0.4588 -0.5060 -0.4093
   33POPC  H16Y 4501   0.852   6.036   8.291 -1.5373 -0.3610 -1.0474
   33POPC  H16Z 4502   0.912   6.213   8.283 -1.1124  0.0529  0.2463
   34POPC     N 4503   5.923   2.197  10.815  0.0098  0.4497 -0.7027
   34POPC   C12 4504   5.954   2.048  10.836 -0.0542 -0.2962 -0.3976
   34POPC  H12A 4505   5.866   1.988  10.855 -1.6169  1.4517 -1.8700
   34POPC  H12B 4506   6.000   2.044  10.934  0.8021 -1.6972 -0.8199
   34POPC   C13 4507   5.857   2.207  10.682 -0.2876 -0.6306  0.0658
   34POPC  H13A 4508   5.775   2.137  10.677 -0.5000 -0.3430 -0.7164
   34POPC  H13B 4509   5.812   2.302  10.656  2.1815  0.2343 -1.4311
   34POPC  H13C 4510   5.935   2.186  10.611  0.2915  0.4830  0.3506
   34POPC   C14 4511   5.828   2.254  10.922  0.0226 -0.2330  1.2879
   34POPC  H14A 4512   5.792   2.352  10.893 -1.7876 -0.7214  1.7839
   34POPC  H14B 4513   5.741   2.190  10.930 -0.6924  0.8202  2.2800
   34POPC  H14C 4514   5.875   2.268  11.018  1.7990 -0.0241  0.4395
   34POPC   C15 4515   6.044   2.277  10.812 -0.0704 -0.6270 -0.9033
   34POPC  H15A 4516   6.081   2.289  10.913 -0.0947 -0.3827 -0.9230
   34POPC  H15B 4517   6.035   2.377  10.773  1.3707  1.4474  3.4458
   34POPC  H15C 4518   6.118   2.236  10.745  1.4013  1.4983 -0.6840
   34POPC   C11 4519   6.048   1.976  10.734  0.1705  0.6066  0.0218
   34POPC  H11A 4520   6.001   1.984  10.634 -0.1439  1.3415  0.2186
   34POPC  H11B 4521   6.051   1.871  10.771 -2.1236 -0.0269 -1.4042
   34POPC     P 4522   6.258   2.062  10.595  0.5970 -0.5032 -0.2187
   34POPC   O13 4523   6.395   2.007  10.605  0.1714  0.5011 -0.1112
   34POPC   O14 4524   6.238   2.205  10.560  0.0682 -0.4442  0.4470
   34POPC   O12 4525   6.179   2.034  10.732  0.6027  0.1226  0.5872
   34POPC   O11 4526   6.182   1.973  10.494  0.4749 -0.0412  0.2172
   34POPC    C1 4527   6.208   1.832  10.471  0.0109 -0.2479  0.0527
   34POPC    HA 4528   6.126   1.773  10.516  0.2236  0.1270  0.9654
   34POPC    HB 4529   6.287   1.793  10.540  2.5256  2.7543 -0.8528
   34POPC    C2 4530   6.240   1.791  10.328  0.2221  0.4541 -0.7559
   34POPC    HS 4531   6.343   1.832  10.328  1.1607 -1.7448  0.3396
   34POPC   O21 4532   6.153   1.851  10.229 -0.0936  0.1578 -0.2706
   34POPC   C21 4533   6.182   1.976  10.177 -0.3201  1.2997  0.9442
   34POPC   O22 4534   6.290   2.031  10.198  0.2284 -0.5977  0.1881
   34POPC   C22 4535   6.060   2.024  10.092  0.1815 -0.7049 -0.5230
   34POPC   H2R 4536   6.000   2.071  10.173  3.4194  0.4445  1.3752
   34POPC   H2S 4537   6.008   1.932  10.058 -0.2997 -0.8793  0.6193
   34POPC    C3 4538   6.245   1.646  10.308 -0.5406 -0.4119 -0.7377
   34POPC    HX 4539   6.143   1.606  10.330 -0.5815 -0.6297 -1.3003
   34POPC    HY 4540   6.315   1.603  10.383 -2.5693  0.9986  2.1313
   34POPC   O31 4541   6.270   1.594  10.177  0.4069 -0.8432 -0.1585
   34POPC   C31 4542   6.391   1.603  10.136 -0.5022  0.1892  0.1137
   34POPC   O32 4543   6.486   1.666  10.185 -0.4627  0.6259  0.1119
   34POPC   C32 4544   6.392   1.537   9.996  0.4767  0.7338  0.0721
   34POPC   H2X 4545   6.410   1.617   9.921 -0.9004 -0.1607 -1.2742
   34POPC   H2Y 4546   6.290   1.498   9.978  0.7874 -0.3315  0.5610
   34POPC   C23 4547   6.094   2.129   9.980 -0.5138  0.6134 -0.1109
   34POPC   H3R 4548   6.023   2.109   9.896  1.3155 -0.8648 -1.4064
   34POPC   H3S 4549   6.194   2.093   9.946 -0.2165 -1.4416  2.6102
   34POPC   C24 4550   6.097   2.270  10.031 -0.1472 -0.7408 -0.1188
   34POPC   H4R 4551   6.178   2.291  10.104  0.6678 -0.1556 -1.1579
   34POPC   H4S 4552   6.000   2.294  10.081 -0.5464 -0.1474 -1.1416
   34POPC   C25 4553   6.114   2.374   9.922  0.5622  0.7588 -0.3225
   34POPC   H5R 4554   6.091   2.474   9.966  0.9777  0.1851  1.2884
   34POPC   H5S 4555   6.044   2.344   9.841  1.1322  0.0330 -0.5497
   34POPC   C26 4556   6.260   2.376   9.868 -0.4004 -0.6253 -0.0938
   34POPC   H6R 4557   6.293   2.273   9.845  2.4824  0.7909 -3.0765
   34POPC   H6S 4558   6.327   2.417   9.947  0.7812 -0.6502 -1.0515
   34POPC   C27 4559   6.283   2.463   9.749  0.1854 -0.7785  0.8963
   34POPC   H7R 4560   6.223   2.425   9.663  0.1206  0.1393  0.5150
   34POPC   H7S 4561   6.389   2.452   9.719 -0.2068  0.3302 -1.1574
   34POPC   C28 4562   6.251   2.616   9.762  0.2744 -0.3452 -0.1394
   34POPC   H8R 4563   6.307   2.665   9.845  1.3014  2.3366 -2.2488
   34POPC   H8S 4564   6.147   2.618   9.799  1.2179 -1.9138  2.9443
   34POPC   C29 4565   6.248   2.707   9.641  0.6712  0.9525  0.1004
   34POPC   H91 4566   6.161   2.774   9.641 -0.5776 -0.5905  1.2168
   34POPC  C210 4567   6.344   2.727   9.550  0.1986 -0.3364 -0.1299
   34POPC  H101 4568   6.324   2.797   9.468  2.6559  0.1745 -0.3576
   34POPC  C211 4569   6.477   2.661   9.531 -0.2053  0.3592 -0.2430
   34POPC  H11R 4570   6.518   2.593   9.609 -2.2602 -2.7341 -1.6493
   34POPC  H11S 4571   6.558   2.733   9.507  0.8857 -0.5590  0.5565
   34POPC  C212 4572   6.468   2.566   9.404  0.6578 -0.7757 -0.7179
   34POPC  H12R 4573   6.396   2.485   9.430 -0.2086  0.0683 -0.3940
   34POPC  H12S 4574   6.564   2.511   9.399  1.3679  0.1964  1.1384
   34POPC  C213 4575   6.441   2.619   9.267  0.0156 -0.4518 -0.4294
   34POPC  H13R 4576   6.368   2.702   9.259  0.6973  0.1801 -0.2629
   34POPC  H13S 4577   6.402   2.531   9.212 -0.3191 -0.1462 -0.6822
   34POPC  C214 4578   6.572   2.657   9.187  0.3317  0.4416 -0.5206
   34POPC  H14R 4579   6.656   2.588   9.209  0.5271  0.9471  0.3157
   34POPC  H14S 4580   6.602   2.757   9.224 -4.0999  2.0687 -0.6415
   34POPC  C215 4581   6.546   2.655   9.036  0.4532 -0.1220  0.1433
   34POPC  H15R 4582   6.463   2.588   9.004 -0.1090  1.1798 -1.2984
   34POPC  H15S 4583   6.639   2.615   8.990  0.5649 -0.1449  0.3883
   34POPC  C216 4584   6.511   2.793   8.984 -0.2754 -0.5164 -0.2079
   34POPC  H16R 4585   6.583   2.869   9.021 -0.3964  0.1703 -1.3321
   34POPC  H16S 4586   6.409   2.825   9.014  0.8442  2.5254  0.6413
   34POPC  C217 4587   6.490   2.802   8.831 -0.4319  0.3421  0.0455
   34POPC  H17R 4588   6.460   2.907   8.810  1.3178  1.3245  2.0647
   34POPC  H17S 4589   6.403   2.742   8.795  1.7873 -2.2657 -1.3734
   34POPC  C218 4590   6.610   2.766   8.741 -0.2057  0.2969 -0.6071
   34POPC  H18R 4591   6.576   2.769   8.636 -1.5711 -0.7363 -0.2231
   34POPC  H18S 4592   6.648   2.662   8.749  2.0636  1.1451  0.8914
   34POPC  H18T 4593   6.704   2.825   8.742  0.4042 -0.6557 -0.4073
   34POPC   C33 4594   6.501   1.426   9.982 -0.1393 -0.0268 -0.1411
   34POPC   H3X 4595   6.515   1.369  10.076 -3.2774 -1.0287 -0.1762
   34POPC   H3Y 4596   6.594   1.483   9.959 -1.0151  1.0192 -1.2623
   34POPC   C34 4597   6.471   1.312   9.880  0.4558 -0.0612 -0.4419
   34POPC   H4X 4598   6.383   1.255   9.914  0.0793  1.5117  1.4178
   34POPC   H4Y 4599   6.557   1.241   9.884  1.0020  0.5672 -0.7646
   34POPC   C35 4600   6.440   1.370   9.743  0.1665  0.6924 -0.1394
   34POPC   H5X 4601   6.532   1.424   9.712  1.3632 -0.8937  0.4720
   34POPC   H5Y 4602   6.342   1.423   9.744  2.0774  4.6232  1.0383
   34POPC   C36 4603   6.430   1.251   9.643 -0.6438  0.4108 -0.2820
   34POPC   H6X 4604   6.337   1.192   9.659 -0.7575  0.5967 -0.2576
   34POPC   H6Y 4605   6.518   1.185   9.658 -0.7734  0.7424  2.6719
   34POPC   C37 4606   6.429   1.296   9.495 -0.5701  0.7348  0.0657
   34POPC   H7X 4607   6.528   1.343   9.478 -1.3063  2.3868  0.1824
   34POPC   H7Y 4608   6.345   1.368   9.484  0.5684  2.0824 -0.0931
   34POPC   C38 4609   6.417   1.176   9.397  0.9976 -0.3781  0.5884
   34POPC   H8X 4610   6.318   1.126   9.406  0.8235 -0.2880 -0.6567
   34POPC   H8Y 4611   6.492   1.106   9.439  0.9289  0.6563  2.5692
   34POPC   C39 4612   6.452   1.208   9.251  0.1310  0.2024  0.0756
   34POPC   H9X 4613   6.549   1.261   9.238 -1.0083  2.2286 -0.6617
   34POPC   H9Y 4614   6.376   1.281   9.217  0.2229  0.1840 -0.1760
   34POPC  C310 4615   6.443   1.082   9.168  0.1307 -0.2050  0.4705
   34POPC  H10X 4616   6.354   1.016   9.178 -0.9059  0.7414 -1.7008
   34POPC  H10Y 4617   6.522   1.016   9.209 -0.3880 -2.0963 -1.3875
   34POPC  C311 4618   6.488   1.111   9.016  0.1141  0.2211 -0.5574
   34POPC  H11X 4619   6.580   1.171   9.031 -0.7557  1.0069  2.2692
   34POPC  H11Y 4620   6.408   1.173   8.970 -0.1561 -0.6952 -1.3623
   34POPC  C312 4621   6.517   0.982   8.940 -0.3801  0.6624 -0.6885
   34POPC  H12X 4622   6.453   0.896   8.969  1.1114  0.3436  2.0354
   34POPC  H12Y 4623   6.619   0.950   8.971 -1.6048 -2.2591  0.7360
   34POPC  C313 4624   6.518   1.007   8.793 -0.1400  0.2660 -0.4201
   34POPC  H13X 4625   6.583   1.095   8.773 -1.4473  1.2593 -0.4210
   34POPC  H13Y 4626   6.412   1.020   8.761  0.6409  0.1602 -3.3440
   34POPC  C314 4627   6.582   0.896   8.714 -0.2970 -0.1966  0.4250
   34POPC  H14X 4628   6.535   0.796   8.729  0.0144 -0.7327 -1.7821
   34POPC  H14Y 4629   6.689   0.904   8.742  0.2911  1.0265 -1.8776
   34POPC  C315 4630   6.583   0.925   8.567  0.1406  0.5387 -0.3149
   34POPC  H15X 4631   6.661   1.003   8.554 -0.4261  1.4711  1.5382
   34POPC  H15Y 4632   6.484   0.963   8.534 -0.5069 -1.9016 -1.4375
   34POPC  C316 4633   6.610   0.790   8.488 -0.1228 -0.4992  0.0267
   34POPC  H16X 4634   6.535   0.714   8.519  0.4452 -1.2586 -0.4059
   34POPC  H16Y 4635   6.715   0.752   8.491 -0.3948 -1.2131  0.5634
   34POPC  H16Z 4636   6.589   0.811   8.380 -0.7622  2.1201  0.5928
   35POPC     N 4637   6.234   5.021  11.293  0.3875 -0.0945  0.6812
   35POPC   C12 4638   6.195   5.162  11.292  0.2405  0.5663  0.2428
   35POPC  H12A 4639   6.183   5.200  11.393  0.6535  1.0952  0.1006
   35POPC  H12B 4640   6.102   5.178  11.239  0.1234  0.9999  0.5656
   35POPC   C13 4641   6.341   4.989  11.387  0.1984  0.4526  0.4087
   35POPC  H13A 4642   6.427   5.040  11.345  0.3992 -0.3705 -0.2272
   35POPC  H13B 4643   6.324   5.016  11.490 -1.5562  1.6065 -0.1439
   35POPC  H13C 4644   6.376   4.886  11.385  3.3086  1.4120  0.4351
   35POPC   C14 4645   6.104   4.947  11.323 -0.0086  0.2266  0.0969
   35POPC  H14A 4646   6.022   4.976  11.259 -0.1521  1.2399  0.7256
   35POPC  H14B 4647   6.129   4.842  11.319 -1.7857 -0.2534  0.5575
   35POPC  H14C 4648   6.069   4.960  11.424 -0.5252 -1.4838  0.1691
   35POPC   C15 4649   6.279   4.968  11.163  0.1870 -0.0186 -0.3883
   35POPC  H15A 4650   6.206   4.990  11.088  1.2915  2.1245 -0.9184
   35POPC  H15B 4651   6.300   4.863  11.154  0.4430 -0.0246  0.2147
   35POPC  H15C 4652   6.368   5.017  11.126  0.5967 -1.9885 -2.1508
   35POPC   C11 4653   6.294   5.256  11.221  0.2135  0.1531 -0.7109
   35POPC  H11A 4654   6.242   5.354  11.215 -0.1942 -0.0466 -0.4650
   35POPC  H11B 4655   6.301   5.222  11.115  3.0132  0.1582 -0.6064
   35POPC     P 4656   6.563   5.247  11.212 -0.0595  0.3009 -0.1708
   35POPC   O13 4657   6.590   5.098  11.210 -0.1561  0.4914 -0.4336
   35POPC   O14 4658   6.661   5.336  11.279  0.4011  0.1562  0.0096
   35POPC   O12 4659   6.424   5.269  11.283 -0.0161  0.0935  0.3389
   35POPC   O11 4660   6.541   5.296  11.067 -0.3842 -0.5636  0.4463
   35POPC    C1 4661   6.541   5.437  11.030  0.0768  0.2071 -0.5729
   35POPC    HA 4662   6.604   5.497  11.099  1.1322 -4.0263  2.5304
   35POPC    HB 4663   6.443   5.483  11.003  0.6836  2.2595  0.4800
   35POPC    C2 4664   6.624   5.459  10.896  0.2305  0.1562  0.3710
   35POPC    HS 4665   6.612   5.567  10.872 -1.8344 -0.4386 -1.5615
   35POPC   O21 4666   6.560   5.379  10.796  0.3318  0.2215 -0.7117
   35POPC   C21 4667   6.477   5.450  10.716 -0.7520 -0.1364 -0.4055
   35POPC   O22 4668   6.428   5.558  10.745 -0.0184  0.3007  0.3281
   35POPC   C22 4669   6.454   5.376  10.583  0.5274  0.2435 -0.3804
   35POPC   H2R 4670   6.404   5.281  10.609  0.4223  0.5521  0.6014
   35POPC   H2S 4671   6.549   5.354  10.529  1.4289  1.0407  0.7990
   35POPC    C3 4672   6.766   5.403  10.916 -0.1030  0.5202  0.4873
   35POPC    HX 4673   6.775   5.311  10.978  0.3963  1.9113  2.5751
   35POPC    HY 4674   6.819   5.472  10.985 -0.6108  0.9659  0.4409
   35POPC   O31 4675   6.843   5.402  10.792 -0.0584 -0.5902 -0.1930
   35POPC   C31 4676   6.878   5.287  10.726 -0.1568 -0.0968  0.2516
   35POPC   O32 4677   6.853   5.176  10.771  0.4722 -0.1051 -0.5004
   35POPC   C32 4678   6.948   5.313  10.589 -0.5207  0.6650 -0.4172
   35POPC   H2X 4679   6.933   5.225  10.523  0.0357 -1.5035  2.1889
   35POPC   H2Y 4680   7.055   5.330  10.612 -0.5519  0.8609 -0.4102
   35POPC   C23 4681   6.364   5.460  10.487 -0.4974 -0.1052  0.2189
   35POPC   H3R 4682   6.401   5.564  10.476  1.3703 -0.7794 -0.2065
   35POPC   H3S 4683   6.264   5.477  10.533  0.4334  4.4127  1.0106
   35POPC   C24 4684   6.364   5.393  10.343 -0.2571  0.3005 -0.8984
   35POPC   H4R 4685   6.337   5.285  10.346 -1.2595  0.5280 -1.1563
   35POPC   H4S 4686   6.459   5.406  10.288 -0.1075 -1.4260 -1.0853
   35POPC   C25 4687   6.249   5.454  10.263  0.1194  0.2561  0.1210
   35POPC   H5R 4688   6.259   5.565  10.267  0.6367  0.2632 -0.9955
   35POPC   H5S 4689   6.153   5.425  10.312  1.1960 -2.3773  0.8627
   35POPC   C26 4690   6.249   5.390  10.120 -0.5456 -0.0446 -0.7366
   35POPC   H6R 4691   6.240   5.281  10.140  1.9412 -0.2464 -0.4266
   35POPC   H6S 4692   6.340   5.402  10.057  0.3255 -3.3001 -0.2830
   35POPC   C27 4693   6.146   5.441  10.023  0.5520 -0.4933 -0.0633
   35POPC   H7R 4694   6.190   5.535   9.985 -1.0279 -0.5934 -2.3437
   35POPC   H7S 4695   6.049   5.463  10.073 -0.3840 -1.3084 -1.4279
   35POPC   C28 4696   6.103   5.349   9.906  0.2841 -0.1449 -0.3512
   35POPC   H8R 4697   6.045   5.413   9.836  1.5014 -1.0943 -2.3342
   35POPC   H8S 4698   6.026   5.285   9.952 -0.7312  1.1889 -0.1403
   35POPC   C29 4699   6.214   5.269   9.831 -0.1947  0.1167 -0.3076
   35POPC   H91 4700   6.256   5.185   9.887  1.2854 -0.5422 -2.3006
   35POPC  C210 4701   6.269   5.293   9.711  0.0685  0.3235  0.3551
   35POPC  H101 4702   6.328   5.214   9.663 -1.8974 -0.6545 -0.5435
   35POPC  C211 4703   6.225   5.412   9.619 -0.1049  0.4433  0.1864
   35POPC  H11R 4704   6.322   5.446   9.578 -0.5535 -0.1477 -1.4548
   35POPC  H11S 4705   6.170   5.496   9.668  0.9890  1.3979 -0.2022
   35POPC  C212 4706   6.136   5.362   9.500  0.3392  0.4882 -0.1202
   35POPC  H12R 4707   6.038   5.331   9.542  1.6921 -1.9777  1.4998
   35POPC  H12S 4708   6.186   5.278   9.447 -0.1854 -0.4896  0.8711
   35POPC  C213 4709   6.102   5.473   9.399  0.0940 -0.5018  0.4011
   35POPC  H13R 4710   6.197   5.489   9.345  0.1549  0.1352  0.6873
   35POPC  H13S 4711   6.076   5.571   9.445 -0.9995 -0.4532 -0.2871
   35POPC  C214 4712   5.983   5.440   9.312 -0.0526  0.7782 -0.0468
   35POPC  H14R 4713   5.946   5.541   9.283  1.2528  1.8745  1.9316
   35POPC  H14S 4714   5.915   5.401   9.391  1.5651  1.5078  1.7816
   35POPC  C215 4715   6.018   5.356   9.191 -0.6164  0.1746  0.2774
   35POPC  H15R 4716   6.003   5.248   9.215  0.1321 -0.1917 -0.8061
   35POPC  H15S 4717   6.122   5.377   9.158 -1.0969  0.9316 -0.8028
   35POPC  C216 4718   5.914   5.375   9.075  0.0851  0.6251 -0.3150
   35POPC  H16R 4719   5.909   5.485   9.061 -0.9560  0.7522  0.9008
   35POPC  H16S 4720   5.811   5.344   9.101  0.5274 -0.0285  0.7148
   35POPC  C217 4721   5.963   5.302   8.951 -0.1060 -0.0163 -0.0187
   35POPC  H17R 4722   5.970   5.192   8.968 -0.6559  0.1052  1.1161
   35POPC  H17S 4723   6.059   5.340   8.909 -1.0012 -1.2579 -3.4921
   35POPC  C218 4724   5.871   5.315   8.827  0.1423  0.2758  0.2769
   35POPC  H18R 4725   5.917   5.258   8.743  1.7158  2.1125 -0.1777
   35POPC  H18S 4726   5.871   5.422   8.795 -1.2536  0.0555 -0.5516
   35POPC  H18T 4727   5.767   5.281   8.848  0.0567 -0.9617 -1.8225
   35POPC   C33 4728   6.899   5.442  10.524 -0.5296  0.3759 -1.1184
   35POPC   H3X 4729   6.961   5.522  10.570 -0.1399 -0.1543 -0.7025
   35POPC   H3Y 4730   6.791   5.447  10.550 -0.5075 -2.5258 -0.0487
   35POPC   C34 4731   6.932   5.450  10.380 -0.1892 -0.3864  0.9019
   35POPC   H4X 4732   7.039   5.426  10.361 -0.0668 -1.3913  2.6653
   35POPC   H4Y 4733   6.927   5.557  10.353  0.4921 -0.5886 -0.0982
   35POPC   C35 4734   6.828   5.373  10.297 -0.1578  0.4668 -0.4669
   35POPC   H5X 4735   6.730   5.362  10.346  0.9772  2.0682  2.4370
   35POPC   H5Y 4736   6.862   5.268  10.288  1.2400  0.3929  3.4522
   35POPC   C36 4737   6.819   5.440  10.162 -0.5931  0.4254  0.1317
   35POPC   H6X 4738   6.919   5.445  10.114  0.1080 -2.8589  0.9938
   35POPC   H6Y 4739   6.779   5.542  10.183 -1.5140  0.6774 -2.5210
   35POPC   C37 4740   6.724   5.378  10.057  0.5702  0.8712 -0.4113
   35POPC   H7X 4741   6.620   5.395  10.092  1.3316  1.1469  1.9429
   35POPC   H7Y 4742   6.756   5.271  10.057  0.9868  0.7897  4.0496
   35POPC   C38 4743   6.747   5.438   9.919 -0.9069 -0.2759 -0.2471
   35POPC   H8X 4744   6.853   5.472   9.911 -0.5912 -0.8786  1.1533
   35POPC   H8Y 4745   6.673   5.514   9.884 -0.9798 -1.1252 -2.0467
   35POPC   C39 4746   6.718   5.343   9.799 -0.3036 -0.5005 -0.4740
   35POPC   H9X 4747   6.616   5.299   9.809 -1.8688  3.1350  1.3343
   35POPC   H9Y 4748   6.796   5.264   9.810 -0.5831 -0.6491  0.6012
   35POPC  C310 4749   6.723   5.417   9.666 -0.9205  0.1142 -0.3677
   35POPC  H10X 4750   6.821   5.470   9.663 -0.0874 -1.2237  1.3778
   35POPC  H10Y 4751   6.648   5.498   9.681  0.3553  1.5026 -1.2715
   35POPC  C311 4752   6.686   5.318   9.560  0.6123  0.1269  0.6649
   35POPC  H11X 4753   6.599   5.256   9.587 -0.5125  0.6668 -1.5137
   35POPC  H11Y 4754   6.773   5.252   9.539  1.0567  0.8382  0.1920
   35POPC  C312 4755   6.645   5.400   9.434 -0.5271  0.1112 -0.2179
   35POPC  H12X 4756   6.722   5.480   9.428  0.4553 -0.7540  0.4037
   35POPC  H12Y 4757   6.555   5.453   9.470 -0.7188  1.1641 -2.1152
   35POPC  C313 4758   6.646   5.315   9.316  0.1457  0.2159  0.5367
   35POPC  H13X 4759   6.594   5.219   9.336 -0.9799  1.2792  3.0749
   35POPC  H13Y 4760   6.749   5.286   9.284 -1.1621 -1.3871 -2.5867
   35POPC  C314 4761   6.579   5.377   9.190  0.0963 -0.0181  0.2699
   35POPC  H14X 4762   6.469   5.388   9.204  0.0406 -0.4565  0.1921
   35POPC  H14Y 4763   6.584   5.294   9.116 -0.7286 -0.7760  1.0334
   35POPC  C315 4764   6.648   5.503   9.133 -0.1422  0.5177 -0.5652
   35POPC  H15X 4765   6.758   5.487   9.131 -0.3183 -0.7961 -2.3096
   35POPC  H15Y 4766   6.622   5.582   9.206 -1.5019  0.0598 -0.5231
   35POPC  C316 4767   6.600   5.541   8.991 -0.0341 -0.1305 -0.2095
   35POPC  H16X 4768   6.489   5.535   8.983 -0.2924  3.3058 -1.1466
   35POPC  H16Y 4769   6.645   5.482   8.908 -0.8334 -1.2244  0.1218
   35POPC  H16Z 4770   6.629   5.640   8.950 -1.5044 -0.1822 -1.4926
   36POPC     N 4771   5.459   3.867  11.164 -0.2530 -0.0026 -0.2798
   36POPC   C12 4772   5.438   3.815  11.017  0.4712 -0.6474 -0.3127
   36POPC  H12A 4773   5.363   3.879  10.972 -2.0592 -3.2994 -0.1843
   36POPC  H12B 4774   5.388   3.721  11.029 -0.6777  0.1266  1.3889
   36POPC   C13 4775   5.526   3.756  11.243 -0.7142  0.0605  0.2161
   36POPC  H13A 4776   5.614   3.721  11.190  1.4954  2.9234  1.7558
   36POPC  H13B 4777   5.520   3.777  11.348 -1.8878 -1.1197  0.4111
   36POPC  H13C 4778   5.465   3.667  11.246 -0.1280 -0.5649 -2.7275
   36POPC   C14 4779   5.538   3.990  11.177 -0.6865 -0.6125  0.1898
   36POPC  H14A 4780   5.621   3.985  11.108 -0.5193  2.2827  0.0314
   36POPC  H14B 4781   5.476   4.069  11.136  1.2540 -0.9515 -3.9476
   36POPC  H14C 4782   5.574   4.009  11.277  1.8802  0.3334 -0.8157
   36POPC   C15 4783   5.324   3.887  11.229 -0.0495 -0.4406 -0.2362
   36POPC  H15A 4784   5.331   3.931  11.327 -0.5617 -0.8894  0.0132
   36POPC  H15B 4785   5.277   3.791  11.243 -2.5592  0.7938  0.4337
   36POPC  H15C 4786   5.260   3.949  11.167  1.6055 -1.1048 -2.7442
   36POPC   C11 4787   5.561   3.792  10.924 -0.4386  0.5819  0.1088
   36POPC  H11A 4788   5.535   3.748  10.825  0.4331 -0.8067  0.4681
   36POPC  H11B 4789   5.615   3.716  10.985  2.1536  1.0122 -1.4757
   36POPC     P 4790   5.791   3.878  10.861  0.3042  0.0381  0.1098
   36POPC   O13 4791   5.844   3.785  10.967  0.4349  0.0817 -0.1019
   36POPC   O14 4792   5.855   4.011  10.843 -0.0865  0.0050 -0.5137
   36POPC   O12 4793   5.636   3.904  10.893 -0.2471 -0.2306  0.3521
   36POPC   O11 4794   5.792   3.815  10.715  0.5473 -0.1134 -0.2585
   36POPC    C1 4795   5.690   3.860  10.619 -0.3573  0.2574 -0.1319
   36POPC    HA 4796   5.635   3.951  10.651 -1.9221 -0.7881  0.3035
   36POPC    HB 4797   5.615   3.779  10.607  0.8826 -0.9029 -0.3830
   36POPC    C2 4798   5.749   3.895  10.475 -0.0442  0.8572  0.5565
   36POPC    HS 4799   5.690   3.983  10.442 -0.4802  1.4502  2.7810
   36POPC   O21 4800   5.726   3.784  10.371  0.0187  0.3926 -0.6654
   36POPC   C21 4801   5.612   3.774  10.322 -0.3044 -0.6459  1.4471
   36POPC   O22 4802   5.513   3.843  10.357  0.1659  0.1737  0.0204
   36POPC   C22 4803   5.605   3.662  10.214  0.5644 -0.2254  0.5023
   36POPC   H2R 4804   5.645   3.569  10.260 -0.9608 -0.8615  0.6063
   36POPC   H2S 4805   5.671   3.691  10.130  0.0568 -0.9438 -0.1552
   36POPC    C3 4806   5.901   3.934  10.475 -0.1223  0.6174  0.2516
   36POPC    HX 4807   5.954   3.844  10.515  0.3055  1.5764  1.9229
   36POPC    HY 4808   5.927   4.023  10.536  0.2834  0.5600  0.1691
   36POPC   O31 4809   5.951   3.946  10.339 -0.2985 -0.4247  0.0138
   36POPC   C31 4810   5.911   4.062  10.291 -0.1023 -0.4190  0.3587
   36POPC   O32 4811   5.849   4.151  10.352 -0.1863  0.0688  0.3330
   36POPC   C32 4812   5.967   4.081  10.144  0.5853  0.5931 -0.7713
   36POPC   H2X 4813   6.022   3.989  10.115 -1.8535 -1.6612  1.2641
   36POPC   H2Y 4814   6.044   4.160  10.137  0.9326  0.2180 -1.2690
   36POPC   C23 4815   5.462   3.641  10.172  0.1185  0.0696  0.4032
   36POPC   H3R 4816   5.403   3.617  10.264  0.5192 -0.7852  0.4422
   36POPC   H3S 4817   5.466   3.544  10.118 -1.9080  0.4906 -0.6212
   36POPC   C24 4818   5.403   3.759  10.088 -0.1987  0.0622  0.1298
   36POPC   H4R 4819   5.399   3.850  10.151  1.6329 -0.0950  0.5168
   36POPC   H4S 4820   5.302   3.731  10.049 -0.3535 -0.0971  0.6350
   36POPC   C25 4821   5.491   3.797   9.964 -0.5424  0.4015 -0.2793
   36POPC   H5R 4822   5.582   3.843  10.007 -1.6260 -0.1821  2.9471
   36POPC   H5S 4823   5.458   3.872   9.889  2.3512  0.8105 -1.2442
   36POPC   C26 4824   5.534   3.675   9.881  0.3625 -0.0156 -0.2180
   36POPC   H6R 4825   5.585   3.591   9.934 -2.7224 -2.2617 -0.5473
   36POPC   H6S 4826   5.608   3.716   9.808 -0.2521  1.7252  0.0862
   36POPC   C27 4827   5.416   3.624   9.798  0.6559  0.0931 -0.4282
   36POPC   H7R 4828   5.325   3.685   9.814  1.3177  0.8865  0.4618
   36POPC   H7S 4829   5.396   3.522   9.834  0.3080 -0.1053 -1.1626
   36POPC   C28 4830   5.426   3.616   9.641 -0.1436  0.1921  0.3443
   36POPC   H8R 4831   5.438   3.721   9.607  1.0288  0.0869  0.4109
   36POPC   H8S 4832   5.333   3.572   9.598  0.4292  0.3353 -1.0587
   36POPC   C29 4833   5.542   3.540   9.580  0.9130 -1.3285 -0.7446
   36POPC   H91 4834   5.639   3.590   9.590 -0.0930  0.4558  0.6343
   36POPC  C210 4835   5.532   3.413   9.545 -0.7260 -0.5364  1.4638
   36POPC  H101 4836   5.614   3.369   9.486 -0.1694  2.3369 -0.0974
   36POPC  C211 4837   5.412   3.324   9.549  0.2036  0.6421 -0.2002
   36POPC  H11R 4838   5.334   3.362   9.620  0.9910  1.5438  0.2090
   36POPC  H11S 4839   5.448   3.226   9.586  1.0396  1.0936  0.2237
   36POPC  C212 4840   5.340   3.309   9.414  0.5304 -0.0750  0.1354
   36POPC  H12R 4841   5.301   3.408   9.386 -1.5803 -0.4366  1.5791
   36POPC  H12S 4842   5.247   3.253   9.437 -0.4526  1.1239 -0.8204
   36POPC  C213 4843   5.410   3.237   9.297 -0.1111 -0.5263  0.8233
   36POPC  H13R 4844   5.452   3.144   9.340  2.5906  0.8338  1.3520
   36POPC  H13S 4845   5.492   3.301   9.257 -1.0131  0.6093  0.7257
   36POPC  C214 4846   5.315   3.200   9.180 -0.3394 -0.4879  0.2330
   36POPC  H14R 4847   5.237   3.277   9.163 -0.6366 -0.8135  0.1067
   36POPC  H14S 4848   5.276   3.100   9.208 -1.9699 -0.3720 -1.4405
   36POPC  C215 4849   5.391   3.176   9.047  0.2622  0.0250 -0.4004
   36POPC  H15R 4850   5.331   3.115   8.976 -0.8148  0.8621 -0.2402
   36POPC  H15S 4851   5.480   3.111   9.062 -0.2602 -0.6230 -0.0550
   36POPC  C216 4852   5.438   3.307   8.980  0.2298 -0.3257  0.1455
   36POPC  H16R 4853   5.504   3.370   9.043 -1.7205  4.6870 -2.2480
   36POPC  H16S 4854   5.350   3.373   8.962  1.5126  0.9105 -2.2251
   36POPC  C217 4855   5.512   3.283   8.846  0.2707  0.0444 -0.7123
   36POPC  H17R 4856   5.446   3.222   8.780 -0.3268 -0.2465  0.1456
   36POPC  H17S 4857   5.610   3.231   8.855  1.5555  2.1544 -1.7589
   36POPC  C218 4858   5.552   3.419   8.783  0.1584  0.4709  0.3178
   36POPC  H18R 4859   5.644   3.413   8.722 -0.1274  1.4263 -0.2465
   36POPC  H18S 4860   5.573   3.502   8.854  1.6337 -1.1260  1.8414
   36POPC  H18T 4861   5.479   3.451   8.705  0.8132 -1.1261 -1.0031
   36POPC   C33 4862   5.842   4.097  10.049 -0.2188  0.3720 -0.5173
   36POPC   H3X 4863   5.782   4.187  10.073 -0.6885 -0.6282  2.4578
   36POPC   H3Y 4864   5.777   4.011  10.073  0.6824  0.4348  2.4699
   36POPC   C34 4865   5.895   4.101   9.903 -0.1967  0.2741  0.8043
   36POPC   H4X 4866   5.983   4.035   9.892 -1.2542 -1.1220  0.4905
   36POPC   H4Y 4867   5.931   4.202   9.873  1.8567 -0.8443 -0.7235
   36POPC   C35 4868   5.784   4.046   9.807 -0.7862 -0.5247  0.7681
   36POPC   H5X 4869   5.697   4.112   9.829  1.2619  2.3562  0.8815
   36POPC   H5Y 4870   5.746   3.943   9.825 -1.6156 -1.1578 -3.5516
   36POPC   C36 4871   5.823   4.045   9.659 -0.5447  0.1889  0.5661
   36POPC   H6X 4872   5.919   3.989   9.648  0.5284  2.3350 -2.7440
   36POPC   H6Y 4873   5.830   4.148   9.618 -0.0154  0.5229  1.4771
   36POPC   C37 4874   5.729   3.973   9.559  0.3297  0.5688  0.1144
   36POPC   H7X 4875   5.720   3.866   9.591 -1.4472  0.6840  0.0870
   36POPC   H7Y 4876   5.789   3.963   9.467 -1.7396 -2.8769 -1.0692
   36POPC   C38 4877   5.592   4.034   9.527  0.0988 -0.5348 -0.6150
   36POPC   H8X 4878   5.603   4.140   9.496 -1.8052 -0.3528 -0.8273
   36POPC   H8Y 4879   5.535   4.029   9.622  0.0887  3.7124 -0.2110
   36POPC   C39 4880   5.517   3.959   9.416 -0.4230  0.1497 -0.6206
   36POPC   H9X 4881   5.415   4.002   9.414 -0.1396  0.9438  0.5116
   36POPC   H9Y 4882   5.533   3.855   9.452  1.2639  0.2709 -0.9271
   36POPC  C310 4883   5.592   3.982   9.285 -0.1212 -0.2107  0.0923
   36POPC  H10X 4884   5.698   3.951   9.285 -0.3760 -1.1238 -0.7338
   36POPC  H10Y 4885   5.602   4.085   9.244 -0.6395  0.4567  1.5913
   36POPC  C311 4886   5.509   3.905   9.177 -0.1308 -0.2651  0.4599
   36POPC  H11X 4887   5.423   3.974   9.179  1.8690  2.3758  0.3221
   36POPC  H11Y 4888   5.475   3.803   9.206  1.4980 -0.7642  0.7201
   36POPC  C312 4889   5.573   3.906   9.036  0.5604  0.0890 -0.3119
   36POPC  H12X 4890   5.632   4.001   9.030 -0.3097  0.6628 -0.0125
   36POPC  H12Y 4891   5.488   3.918   8.965  2.3337  0.6131 -2.4477
   36POPC  C313 4892   5.645   3.779   9.026 -0.5766 -0.1286  0.9943
   36POPC  H13X 4893   5.581   3.689   9.044 -0.2021 -0.7641 -0.6798
   36POPC  H13Y 4894   5.729   3.763   9.097  1.3797  2.5732 -0.5453
   36POPC  C314 4895   5.702   3.761   8.889 -0.1395  0.4307 -0.1970
   36POPC  H14X 4896   5.755   3.665   8.869  2.1304  1.7761 -1.0695
   36POPC  H14Y 4897   5.780   3.838   8.873  0.4877 -0.0843  0.3648
   36POPC  C315 4898   5.592   3.777   8.780 -1.0900  0.2293 -0.5451
   36POPC  H15X 4899   5.547   3.878   8.782 -1.4913  0.0859 -1.6162
   36POPC  H15Y 4900   5.508   3.707   8.799 -1.7844  1.1457 -0.1701
   36POPC  C316 4901   5.654   3.740   8.643 -0.3593  0.1936 -0.1304
   36POPC  H16X 4902   5.567   3.715   8.578 -1.7197 -2.5456  2.5298
   36POPC  H16Y 4903   5.718   3.650   8.628 -0.3078  0.5379 -2.4635
   36POPC  H16Z 4904   5.697   3.838   8.615  0.0296  1.2280  3.5851
   37POPC     N 4905   4.990   6.040   6.305  0.2831 -0.3658 -0.4603
   37POPC   C12 4906   5.068   5.974   6.422  0.2082 -0.1928  0.4014
   37POPC  H12A 4907   5.166   5.961   6.379 -0.1680 -1.9847  0.0215
   37POPC  H12B 4908   5.030   5.873   6.435 -2.2588  0.3397 -1.7135
   37POPC   C13 4909   5.008   5.964   6.176  0.0049 -0.2773 -0.8494
   37POPC  H13A 4910   4.981   6.024   6.091  1.1112  0.8054 -0.4777
   37POPC  H13B 4911   5.109   5.931   6.158  1.0460  1.7199  0.8730
   37POPC  H13C 4912   4.946   5.876   6.180 -0.0359 -0.2766 -1.4643
   37POPC   C14 4913   4.837   6.035   6.333  0.0864 -0.6072  0.0435
   37POPC  H14A 4914   4.783   6.083   6.253 -1.7906 -2.1799  0.3112
   37POPC  H14B 4915   4.806   5.932   6.337 -3.0534  0.1140 -2.0191
   37POPC  H14C 4916   4.818   6.096   6.420 -0.2597  2.2578 -1.9119
   37POPC   C15 4917   5.024   6.186   6.291 -0.2634 -0.2679 -0.6318
   37POPC  H15A 4918   4.951   6.239   6.233 -0.7911 -1.1725 -0.8044
   37POPC  H15B 4919   5.126   6.184   6.255  0.1285  1.2415  0.2910
   37POPC  H15C 4920   5.025   6.240   6.385  0.0979 -0.4476 -0.5281
   37POPC   C11 4921   5.066   6.052   6.558  0.1723 -0.1362  0.2806
   37POPC  H11A 4922   5.115   5.984   6.632 -0.7749 -1.9079 -0.6414
   37POPC  H11B 4923   4.960   6.070   6.584 -0.1817  1.7586 -2.1116
   37POPC     P 4924   5.255   6.237   6.618  0.0530 -0.2905 -0.0674
   37POPC   O13 4925   5.268   6.383   6.580 -0.5485 -0.7072 -0.7746
   37POPC   O14 4926   5.371   6.153   6.590 -0.0778 -0.5302  0.1454
   37POPC   O12 4927   5.134   6.179   6.545  0.4049  0.2487 -0.2568
   37POPC   O11 4928   5.220   6.225   6.769  0.0245  0.2750  0.3503
   37POPC    C1 4929   5.112   6.306   6.819 -0.4411 -0.7653 -0.0422
   37POPC    HA 4930   5.038   6.252   6.882 -0.5533 -1.2658 -0.5962
   37POPC    HB 4931   5.051   6.352   6.738  0.0125  0.1952  0.1391
   37POPC    C2 4932   5.182   6.422   6.903 -0.4353 -0.3124 -0.2297
   37POPC    HS 4933   5.245   6.476   6.829  3.7612  0.1212  3.2505
   37POPC   O21 4934   5.273   6.358   6.995 -0.1972 -0.0913 -0.4341
   37POPC   C21 4935   5.372   6.431   7.046  0.1463  0.2468 -0.4607
   37POPC   O22 4936   5.395   6.548   7.015  0.0990  0.6186  0.6785
   37POPC   C22 4937   5.449   6.364   7.157  0.4669  0.1332  0.6694
   37POPC   H2R 4938   5.376   6.348   7.240 -1.2784  1.5786 -0.5084
   37POPC   H2S 4939   5.518   6.439   7.199  1.1863  0.3130 -0.7840
   37POPC    C3 4940   5.088   6.519   6.970  0.4858 -0.0083  0.2397
   37POPC    HX 4941   5.019   6.547   6.888  1.5354  0.0797 -0.6340
   37POPC    HY 4942   5.147   6.613   6.987 -0.7487  0.9938 -0.8585
   37POPC   O31 4943   5.024   6.479   7.091  0.1860 -0.1805  0.0414
   37POPC   C31 4944   4.910   6.404   7.083 -0.3359 -0.6539 -0.2905
   37POPC   O32 4945   4.846   6.377   6.981 -0.7238 -0.2570 -0.9362
   37POPC   C32 4946   4.858   6.369   7.214 -1.2389  0.1954 -0.6146
   37POPC   H2X 4947   4.815   6.267   7.213 -1.2527  0.1903 -0.0325
   37POPC   H2Y 4948   4.759   6.419   7.226 -1.3731 -0.1889 -0.0591
   37POPC   C23 4949   5.537   6.255   7.106 -0.1646 -0.0360 -0.1966
   37POPC   H3R 4950   5.601   6.283   7.020  0.3090  1.0804  0.5045
   37POPC   H3S 4951   5.469   6.181   7.060  0.1135 -0.6485  0.3469
   37POPC   C24 4952   5.606   6.179   7.219  0.0639  0.3621  0.0861
   37POPC   H4R 4953   5.643   6.081   7.184 -0.2846  0.2079  0.1505
   37POPC   H4S 4954   5.531   6.156   7.298 -0.5471 -1.2971 -0.9279
   37POPC   C25 4955   5.735   6.251   7.267  0.3912  0.3554 -0.4394
   37POPC   H5R 4956   5.698   6.342   7.318 -1.5189 -0.2181 -0.7067
   37POPC   H5S 4957   5.806   6.277   7.186  0.5487  0.8482 -0.1437
   37POPC   C26 4958   5.815   6.157   7.357 -0.6053  0.6184 -0.2630
   37POPC   H6R 4959   5.869   6.082   7.296 -1.4927 -0.1805 -0.0878
   37POPC   H6S 4960   5.745   6.105   7.426 -0.2756  1.0498  0.4146
   37POPC   C27 4961   5.930   6.222   7.429 -0.3312 -0.7138 -0.1133
   37POPC   H7R 4962   5.984   6.276   7.349 -2.0498  1.2804 -0.0341
   37POPC   H7S 4963   5.992   6.149   7.486 -1.7886  0.2737  3.0056
   37POPC   C28 4964   5.882   6.337   7.524  0.3518  0.2716  0.4249
   37POPC   H8R 4965   5.826   6.414   7.467  1.2641  0.4309 -0.2833
   37POPC   H8S 4966   5.963   6.395   7.572 -0.6949  2.2594 -0.1023
   37POPC   C29 4967   5.788   6.274   7.633 -0.1122  0.0947 -0.4390
   37POPC   H91 4968   5.690   6.245   7.593 -0.3785  0.7992 -0.3241
   37POPC  C210 4969   5.813   6.274   7.762 -0.1217  0.1493  0.4118
   37POPC  H101 4970   5.741   6.226   7.829  0.8053 -0.9050  0.6911
   37POPC  C211 4971   5.931   6.342   7.836 -0.2480 -0.0932 -0.2514
   37POPC  H11R 4972   5.990   6.415   7.776  0.7870  0.0576  0.9304
   37POPC  H11S 4973   6.003   6.268   7.876  1.7866  0.9995 -1.7274
   37POPC  C212 4974   5.871   6.419   7.957  0.3571 -0.4352 -0.1904
   37POPC  H12R 4975   5.820   6.347   8.024 -1.5422 -0.2795 -1.3887
   37POPC  H12S 4976   5.796   6.493   7.923  1.3707  0.7592  0.1325
   37POPC  C213 4977   5.984   6.496   8.028  0.2579 -0.0293 -0.1352
   37POPC  H13R 4978   6.023   6.580   7.967  1.7144 -0.4097  0.2434
   37POPC  H13S 4979   6.069   6.430   8.056 -1.1375 -0.9405  2.2621
   37POPC  C214 4980   5.925   6.538   8.168 -0.3961 -0.7171 -0.0906
   37POPC  H14R 4981   5.816   6.555   8.157 -0.5498 -0.1011  1.9202
   37POPC  H14S 4982   5.988   6.627   8.186  0.5944 -1.7967  2.2553
   37POPC  C215 4983   5.960   6.426   8.269 -0.5686  0.6264  0.2196
   37POPC  H15R 4984   6.066   6.395   8.260 -1.2940 -1.4351 -2.7601
   37POPC  H15S 4985   5.906   6.331   8.247  1.0266 -0.2541  0.0046
   37POPC  C216 4986   5.921   6.459   8.408  0.6511  0.1619 -0.8338
   37POPC  H16R 4987   5.841   6.536   8.409  0.2085 -0.2731 -1.6722
   37POPC  H16S 4988   6.010   6.504   8.456  0.2762 -1.3015  1.3874
   37POPC  C217 4989   5.884   6.337   8.490  0.2747  0.9766 -0.4773
   37POPC  H17R 4990   5.967   6.264   8.489  0.0286  0.6628 -2.1956
   37POPC  H17S 4991   5.801   6.279   8.443  1.0073 -1.3106  0.9620
   37POPC  C218 4992   5.842   6.355   8.639  0.0116 -0.3040 -0.4476
   37POPC  H18R 4993   5.921   6.414   8.690  0.3113 -0.8416 -0.2816
   37POPC  H18S 4994   5.842   6.257   8.691 -3.3955  0.4717  1.3043
   37POPC  H18T 4995   5.742   6.403   8.643 -0.2066 -0.8189  0.3754
   37POPC   C33 4996   4.947   6.390   7.339 -0.2042 -1.1808  0.2440
   37POPC   H3X 4997   4.989   6.492   7.334  0.4242 -1.5230 -2.4469
   37POPC   H3Y 4998   5.036   6.323   7.336  0.7245  0.0846 -1.1034
   37POPC   C34 4999   4.867   6.360   7.465  0.0207  0.4202 -0.1307
   37POPC   H4X 5000   4.833   6.254   7.457  0.4943  0.3873 -2.7490
   37POPC   H4Y 5001   4.770   6.415   7.467 -0.1020  0.1770  0.9195
   37POPC   C35 5002   4.950   6.393   7.585 -0.2168  0.0221  0.3065
   37POPC   H5X 5003   4.975   6.502   7.587  2.8529 -0.5972  0.3498
   37POPC   H5Y 5004   5.044   6.334   7.580  0.3308  0.0643  5.3044
   37POPC   C36 5005   4.879   6.373   7.721  0.3442 -0.0191 -0.0909
   37POPC   H6X 5006   4.839   6.269   7.731 -1.4900  0.7393  1.0533
   37POPC   H6Y 5007   4.792   6.442   7.721  1.6787  1.7438 -1.3490
   37POPC   C37 5008   4.955   6.427   7.840 -0.1273 -0.1427 -0.5207
   37POPC   H7X 5009   4.988   6.531   7.822  1.7897  0.0692  3.1672
   37POPC   H7Y 5010   5.042   6.359   7.853  1.1150  0.9733 -2.4969
   37POPC   C38 5011   4.879   6.438   7.977  0.5110  0.8833 -0.3447
   37POPC   H8X 5012   4.841   6.334   7.990  1.2027  0.5106 -1.1829
   37POPC   H8Y 5013   4.797   6.512   7.965 -0.8556 -0.9945 -3.9928
   37POPC   C39 5014   4.960   6.483   8.096  0.0992 -0.6809 -0.2498
   37POPC   H9X 5015   5.053   6.422   8.103 -0.8329 -2.1122  0.1100
   37POPC   H9Y 5016   4.897   6.467   8.186 -0.2824  0.4532 -0.3002
   37POPC  C310 5017   4.994   6.634   8.100 -0.4914  0.1907 -0.5087
   37POPC  H10X 5018   4.907   6.703   8.096 -0.9099 -0.3269 -0.4452
   37POPC  H10Y 5019   5.073   6.659   8.026  0.1020  0.5370  0.2274
   37POPC  C311 5020   5.073   6.661   8.237  0.7903 -0.0152  0.4431
   37POPC  H11X 5021   5.162   6.595   8.230  1.3128  0.8723 -2.5924
   37POPC  H11Y 5022   4.998   6.624   8.310  0.1420 -0.5099 -0.4564
   37POPC  C312 5023   5.116   6.804   8.281 -0.1873  0.0796 -0.7177
   37POPC  H12X 5024   5.023   6.865   8.282  0.0112  0.3786  0.2045
   37POPC  H12Y 5025   5.169   6.852   8.196 -1.3022  1.5625 -0.6191
   37POPC  C313 5026   5.204   6.805   8.409 -0.1178 -0.8155 -0.2520
   37POPC  H13X 5027   5.309   6.780   8.383  0.6085  2.2693 -0.6416
   37POPC  H13Y 5028   5.162   6.733   8.482  1.6102  0.0015  1.6529
   37POPC  C314 5029   5.220   6.938   8.483 -0.2013 -0.5107  0.2995
   37POPC  H14X 5030   5.270   6.918   8.580 -1.6069  0.1263  1.1819
   37POPC  H14Y 5031   5.119   6.979   8.506  0.0272  0.3918 -0.2839
   37POPC  C315 5032   5.299   7.036   8.393  0.6778  0.4441  0.7306
   37POPC  H15X 5033   5.238   7.053   8.302  0.4485  4.3924  1.4556
   37POPC  H15Y 5034   5.390   6.986   8.351 -1.3635 -1.5759 -1.6417
   37POPC  C316 5035   5.323   7.173   8.442 -0.1681  0.3763  0.2406
   37POPC  H16X 5036   5.376   7.232   8.364  3.6270 -1.4223  1.1925
   37POPC  H16Y 5037   5.386   7.162   8.533  0.5602 -0.0900 -0.3062
   37POPC  H16Z 5038   5.228   7.225   8.467  0.5478  1.0339  1.7228
   38POPC     N 5039   6.378   3.443   6.446  0.1773 -0.1328  0.2161
   38POPC   C12 5040   6.497   3.397   6.528  0.2692 -0.3088  0.1991
   38POPC  H12A 5041   6.498   3.294   6.558  3.9453 -1.4044 -2.9374
   38POPC  H12B 5042   6.499   3.469   6.609  3.4207  0.1645 -0.1946
   38POPC   C13 5043   6.258   3.416   6.533 -0.7813 -0.6765  0.4635
   38POPC  H13A 5044   6.269   3.453   6.634  3.5704 -0.1898 -0.0091
   38POPC  H13B 5045   6.164   3.448   6.491 -0.2181 -0.4264 -0.6474
   38POPC  H13C 5046   6.248   3.309   6.548 -2.3929 -0.4779  1.0422
   38POPC   C14 5047   6.388   3.589   6.419  0.4474  0.2658  0.7596
   38POPC  H14A 5048   6.400   3.633   6.516 -1.4223 -1.0786  1.6637
   38POPC  H14B 5049   6.466   3.616   6.350  0.8420 -0.4648  0.9128
   38POPC  H14C 5050   6.290   3.625   6.390  1.4160  1.5435 -1.1673
   38POPC   C15 5051   6.350   3.361   6.321  0.4485  0.0791  0.1366
   38POPC  H15A 5052   6.438   3.371   6.259  0.3806 -1.2851 -0.2095
   38POPC  H15B 5053   6.275   3.417   6.266  1.2997  0.1237 -1.0109
   38POPC  H15C 5054   6.316   3.259   6.332 -2.1853  0.6000 -1.8704
   38POPC   C11 5055   6.639   3.413   6.464 -0.4577  0.0388  0.0591
   38POPC  H11A 5056   6.712   3.391   6.544 -2.2145 -0.3204  1.6321
   38POPC  H11B 5057   6.660   3.519   6.437  0.5212  0.6044  2.8029
   38POPC     P 5058   6.810   3.286   6.327  0.0261  0.0092 -0.2406
   38POPC   O13 5059   6.911   3.391   6.320 -0.1243 -0.2344  0.8519
   38POPC   O14 5060   6.804   3.191   6.217 -0.1437  0.0837 -0.7638
   38POPC   O12 5061   6.664   3.342   6.345  0.1933 -0.8005  0.5029
   38POPC   O11 5062   6.842   3.191   6.455 -0.7854  0.1082  0.0852
   38POPC    C1 5063   6.763   3.076   6.488 -0.0072 -0.8247 -0.0357
   38POPC    HA 5064   6.753   3.013   6.397  1.4966  1.3016 -1.8009
   38POPC    HB 5065   6.659   3.107   6.511  0.1968 -0.0337 -0.1261
   38POPC    C2 5066   6.819   3.011   6.612  0.5791  0.0330 -0.3829
   38POPC    HS 5067   6.731   2.981   6.674  0.0344  0.1462 -1.0905
   38POPC   O21 5068   6.901   3.106   6.689 -0.5513 -0.4137 -0.4311
   38POPC   C21 5069   6.832   3.202   6.754  0.1962 -0.2041  0.1875
   38POPC   O22 5070   6.708   3.204   6.755  0.4617 -0.0111  0.6748
   38POPC   C22 5071   6.932   3.287   6.834  0.4539 -0.0798 -0.6727
   38POPC   H2R 5072   6.883   3.373   6.885  0.8999  0.0385 -0.4381
   38POPC   H2S 5073   7.003   3.327   6.759  0.0748  2.4635  0.2278
   38POPC    C3 5074   6.893   2.879   6.589 -0.0730 -0.1587 -0.3272
   38POPC    HX 5075   6.973   2.902   6.516  0.8281  3.7742  1.6353
   38POPC    HY 5076   6.804   2.818   6.561 -0.9315  0.9298 -0.0395
   38POPC   O31 5077   6.929   2.814   6.714  0.6877  0.2337  0.7274
   38POPC   C31 5078   7.060   2.836   6.756 -0.2259 -0.8794  0.5938
   38POPC   O32 5079   7.147   2.891   6.687 -0.0401 -0.5170  0.6446
   38POPC   C32 5080   7.082   2.759   6.881 -0.0214 -0.4839  0.3153
   38POPC   H2X 5081   7.076   2.649   6.867 -3.4732 -0.4782  0.7852
   38POPC   H2Y 5082   6.998   2.785   6.949 -0.4429  0.5845 -0.5833
   38POPC   C23 5083   7.006   3.201   6.948 -0.1239 -0.3394  0.3056
   38POPC   H3R 5084   7.080   3.269   6.994 -3.1464  1.8540  2.2861
   38POPC   H3S 5085   7.056   3.118   6.893  0.7678  1.2000 -1.3000
   38POPC   C24 5086   6.916   3.159   7.066 -0.1971 -0.6918  0.0592
   38POPC   H4R 5087   6.818   3.122   7.031  0.1636 -1.9221  0.3164
   38POPC   H4S 5088   6.906   3.246   7.134  4.5011 -0.1002  0.3340
   38POPC   C25 5089   6.990   3.043   7.151 -0.4248 -0.9449  0.1444
   38POPC   H5R 5090   7.096   3.072   7.169 -0.2318 -0.5738 -1.4508
   38POPC   H5S 5091   6.995   2.958   7.080 -1.4392  0.5776 -1.8835
   38POPC   C26 5092   6.923   3.013   7.285  0.0243  0.1926  0.7217
   38POPC   H6R 5093   6.845   2.935   7.267 -0.4314  0.6540  0.6791
   38POPC   H6S 5094   6.879   3.102   7.334  1.4276  1.4916 -0.2870
   38POPC   C27 5095   7.016   2.932   7.379 -0.4638 -0.2496 -0.9555
   38POPC   H7R 5096   7.122   2.965   7.366 -0.3388 -0.9099 -1.7112
   38POPC   H7S 5097   7.032   2.831   7.335  0.8851  0.2457 -1.6719
   38POPC   C28 5098   6.987   2.923   7.533 -0.1335 -0.8977 -0.0832
   38POPC   H8R 5099   6.895   2.860   7.532 -0.7459 -0.0241 -1.1442
   38POPC   H8S 5100   6.965   3.027   7.563 -1.0009 -0.7819 -1.0630
   38POPC   C29 5101   7.104   2.842   7.591 -0.4081  0.2032  0.6560
   38POPC   H91 5102   7.202   2.857   7.542 -1.2997  1.5601 -0.7792
   38POPC  C210 5103   7.099   2.782   7.708 -0.5674  0.5102  0.0761
   38POPC  H101 5104   7.190   2.728   7.739  0.2010  1.4750 -0.4223
   38POPC  C211 5105   6.988   2.792   7.812  0.6547  0.1853  0.2660
   38POPC  H11R 5106   6.928   2.700   7.830 -2.3121  1.7491 -0.9976
   38POPC  H11S 5107   6.917   2.867   7.772  0.6729  0.5043  0.8247
   38POPC  C212 5108   7.038   2.853   7.941 -0.1566  0.4094 -0.4492
   38POPC  H12R 5109   6.952   2.868   8.010  0.0669 -0.4143  0.0169
   38POPC  H12S 5110   7.085   2.949   7.911  1.9387 -0.2019  0.6781
   38POPC  C213 5111   7.146   2.775   8.020 -0.6183  0.8761  0.1403
   38POPC  H13R 5112   7.172   2.823   8.116  1.2206 -1.0218  0.6802
   38POPC  H13S 5113   7.238   2.764   7.958  0.4889 -1.5641  2.0418
   38POPC  C214 5114   7.112   2.630   8.063 -0.1723 -0.3258 -0.1244
   38POPC  H14R 5115   7.197   2.602   8.129 -0.5667  0.7697  0.8825
   38POPC  H14S 5116   7.110   2.563   7.975  0.3782 -0.4073 -0.0813
   38POPC  C215 5117   6.974   2.623   8.140  0.3737 -0.2256 -0.0881
   38POPC  H15R 5118   6.902   2.627   8.056  2.6572 -1.7258 -2.2902
   38POPC  H15S 5119   6.965   2.714   8.203 -1.6528 -1.3156  1.3122
   38POPC  C216 5120   6.956   2.498   8.230 -0.5700 -0.0616 -0.4637
   38POPC  H16R 5121   7.041   2.482   8.300 -1.8142 -0.0776  1.1135
   38POPC  H16S 5122   6.964   2.410   8.164  0.8066  1.2650 -2.1530
   38POPC  C217 5123   6.832   2.513   8.308 -0.0462 -0.0005 -0.8249
   38POPC  H17R 5124   6.751   2.536   8.236 -0.8708  1.2960  0.4686
   38POPC  H17S 5125   6.844   2.601   8.374  2.3153 -0.3682 -0.6582
   38POPC  C218 5126   6.797   2.381   8.382  0.4936  0.6837  0.1077
   38POPC  H18R 5127   6.702   2.377   8.439  0.2431  0.1749 -0.3378
   38POPC  H18S 5128   6.876   2.356   8.456  2.3339 -0.7389 -2.2346
   38POPC  H18T 5129   6.780   2.305   8.303  0.7574  0.9817 -0.2400
   38POPC   C33 5130   7.223   2.799   6.938 -0.1852  0.3125 -0.3771
   38POPC   H3X 5131   7.235   2.910   6.935  1.4999  0.1962  0.8521
   38POPC   H3Y 5132   7.307   2.762   6.875  1.7014  2.9278  0.4271
   38POPC   C34 5133   7.252   2.761   7.086 -0.1536  0.0072  0.9606
   38POPC   H4X 5134   7.248   2.650   7.084  0.5556 -0.0211 -0.4454
   38POPC   H4Y 5135   7.169   2.803   7.147 -1.3666 -0.3238 -0.4098
   38POPC   C35 5136   7.384   2.821   7.124 -0.6605 -0.6567 -0.0490
   38POPC   H5X 5137   7.372   2.931   7.116  0.0751 -0.5992 -0.4783
   38POPC   H5Y 5138   7.465   2.813   7.048 -0.4012  2.0932 -0.1460
   38POPC   C36 5139   7.424   2.758   7.256  0.5881 -0.2384 -0.4361
   38POPC   H6X 5140   7.417   2.648   7.242 -1.0008 -0.0593 -1.2917
   38POPC   H6Y 5141   7.349   2.780   7.335  1.7210 -1.3537  1.0196
   38POPC   C37 5142   7.566   2.807   7.299 -0.4185  0.0233  0.1341
   38POPC   H7X 5143   7.558   2.907   7.346 -0.2137  0.4798 -0.7733
   38POPC   H7Y 5144   7.623   2.815   7.204 -0.8650  3.1174  0.0205
   38POPC   C38 5145   7.627   2.713   7.408  0.4122  0.1941  0.3328
   38POPC   H8X 5146   7.719   2.766   7.439  0.3343 -0.0771  1.0438
   38POPC   H8Y 5147   7.667   2.625   7.352 -1.1937 -0.0216 -0.5376
   38POPC   C39 5148   7.534   2.671   7.527 -0.1145 -0.1469  0.0859
   38POPC   H9X 5149   7.468   2.594   7.483  0.5499 -1.4599  1.3185
   38POPC   H9Y 5150   7.482   2.759   7.568 -1.3696 -0.1346 -1.4499
   38POPC  C310 5151   7.608   2.611   7.651  0.2760 -0.2191 -0.0601
   38POPC  H10X 5152   7.687   2.539   7.621 -1.0271 -1.8710  0.3572
   38POPC  H10Y 5153   7.535   2.576   7.727  1.7302  0.5047  1.7467
   38POPC  C311 5154   7.692   2.719   7.726  0.6324  0.0346  0.9007
   38POPC  H11X 5155   7.619   2.788   7.773  0.3573 -0.1289  0.7198
   38POPC  H11Y 5156   7.747   2.777   7.649 -0.9905  1.4580  0.7526
   38POPC  C312 5157   7.780   2.666   7.842 -0.7892  0.0871  0.5248
   38POPC  H12X 5158   7.801   2.753   7.907 -1.7950 -0.6693  1.9099
   38POPC  H12Y 5159   7.883   2.650   7.801 -1.6116 -1.0835 -1.2150
   38POPC  C313 5160   7.718   2.557   7.931 -0.2665  0.2155 -0.2799
   38POPC  H13X 5161   7.693   2.469   7.868 -0.4033 -0.1038  0.2155
   38POPC  H13Y 5162   7.627   2.603   7.974  1.5165  0.4744  3.6439
   38POPC  C314 5163   7.798   2.517   8.060  0.4137 -0.3078  1.0485
   38POPC  H14X 5164   7.902   2.485   8.039  0.7715  1.0645  0.6463
   38POPC  H14Y 5165   7.749   2.424   8.096 -2.4432  1.6461  2.5866
   38POPC  C315 5166   7.776   2.619   8.168  0.1457 -0.9537 -0.2304
   38POPC  H15X 5167   7.669   2.628   8.194  0.5260 -0.1931  1.1808
   38POPC  H15Y 5168   7.800   2.718   8.124  0.3902 -1.1434 -0.5398
   38POPC  C316 5169   7.862   2.588   8.293  0.1496  0.2679 -0.4410
   38POPC  H16X 5170   7.860   2.668   8.370 -2.8217  0.8640 -1.0019
   38POPC  H16Y 5171   7.966   2.563   8.264 -0.2248 -0.8284 -0.9018
   38POPC  H16Z 5172   7.823   2.497   8.344  1.0166  0.4153  0.5057
   39POPC     N 5173   4.039   0.404   6.234 -0.0212  0.0828  0.3395
   39POPC   C12 5174   4.135   0.328   6.328 -0.6641 -0.1375  0.6459
   39POPC  H12A 5175   4.143   0.381   6.422 -1.4915 -0.4374  0.8888
   39POPC  H12B 5176   4.233   0.330   6.282 -0.8709  0.9755  0.2046
   39POPC   C13 5177   3.899   0.398   6.270  0.4649  0.2355  0.1007
   39POPC  H13A 5178   3.851   0.462   6.198 -0.0778  0.4316  0.6255
   39POPC  H13B 5179   3.856   0.300   6.258  1.6840 -0.4224  0.9103
   39POPC  H13C 5180   3.881   0.436   6.370 -0.8869 -0.7497  0.2565
   39POPC   C14 5181   4.072   0.540   6.224  0.2904 -0.8093 -0.2360
   39POPC  H14A 5182   4.177   0.563   6.217  1.0132 -3.8539 -0.7648
   39POPC  H14B 5183   4.024   0.583   6.137  0.0280 -0.2175  0.1906
   39POPC  H14C 5184   4.041   0.593   6.314  0.6225 -0.8667 -0.0865
   39POPC   C15 5185   4.046   0.353   6.092  0.2189  0.6808 -0.0442
   39POPC  H15A 5186   4.126   0.384   6.026 -0.4994 -0.7886 -1.6783
   39POPC  H15B 5187   3.951   0.380   6.049  0.4406  2.3408  0.4171
   39POPC  H15C 5188   4.052   0.245   6.094 -1.5948  0.5589  0.4205
   39POPC   C11 5189   4.108   0.179   6.354 -0.3397  0.2825  0.1138
   39POPC  H11A 5190   4.011   0.177   6.408  0.7156 -0.0041  2.0921
   39POPC  H11B 5191   4.194   0.149   6.418 -2.0516 -1.1414  1.8915
   39POPC     P 5192   4.212   0.006   6.176 -0.6251  0.2104 -0.2645
   39POPC   O13 5193   4.345   0.065   6.183 -0.0925  0.1735  0.1333
   39POPC   O14 5194   4.160  -0.044   6.048  0.1787  0.3113  0.2854
   39POPC   O12 5195   4.103   0.100   6.232  0.3339 -0.2513  0.3115
   39POPC   O11 5196   4.207  -0.115   6.287  0.1128 -0.2002  0.9011
   39POPC    C1 5197   4.089  -0.191   6.295  0.3192 -0.0222 -0.5714
   39POPC    HA 5198   4.117  -0.295   6.266  0.0484 -0.5725  1.0111
   39POPC    HB 5199   3.992  -0.160   6.249 -0.5541 -2.0367 -0.2047
   39POPC    C2 5200   4.051  -0.189   6.455 -0.1753  0.3086  0.9384
   39POPC    HS 5201   4.016  -0.085   6.476  0.5882  0.8225 -0.2433
   39POPC   O21 5202   4.158  -0.234   6.536 -0.1710 -0.6001  0.0199
   39POPC   C21 5203   4.184  -0.162   6.637  0.1717  0.1043 -0.8453
   39POPC   O22 5204   4.135  -0.052   6.666  0.4439  0.5007  0.4059
   39POPC   C22 5205   4.290  -0.245   6.714 -0.2110  0.6652 -0.0778
   39POPC   H2R 5206   4.385  -0.256   6.657 -0.8596  0.0575 -1.0800
   39POPC   H2S 5207   4.253  -0.349   6.726 -2.8067  1.6440  1.1907
   39POPC    C3 5208   3.929  -0.282   6.487 -0.0800 -0.2213  0.8832
   39POPC    HX 5209   3.966  -0.385   6.469  0.5612  0.3472 -1.4617
   39POPC    HY 5210   3.842  -0.270   6.419  1.0651  1.0453 -0.4438
   39POPC   O31 5211   3.901  -0.265   6.626  0.2641  0.0812  0.3397
   39POPC   C31 5212   3.795  -0.191   6.651  0.5701 -0.4695 -0.2820
   39POPC   O32 5213   3.719  -0.134   6.576  1.1026  0.8459 -0.1361
   39POPC   C32 5214   3.780  -0.184   6.803 -0.2973 -0.5504 -0.4116
   39POPC   H2X 5215   3.757  -0.287   6.837 -0.8648 -0.2161  0.2215
   39POPC   H2Y 5216   3.876  -0.143   6.841 -0.7046 -0.1056  0.1564
   39POPC   C23 5217   4.316  -0.202   6.856 -0.0899  0.1294 -0.4072
   39POPC   H3R 5218   4.352  -0.098   6.846  1.2178 -0.4762 -2.8149
   39POPC   H3S 5219   4.400  -0.253   6.909  0.3866  3.2681  2.1284
   39POPC   C24 5220   4.197  -0.197   6.945  1.0173 -0.9252 -0.2612
   39POPC   H4R 5221   4.141  -0.291   6.925 -0.0997 -0.2963 -0.1292
   39POPC   H4S 5222   4.125  -0.117   6.919  2.6236  0.4856 -0.5286
   39POPC   C25 5223   4.222  -0.188   7.096 -0.0585 -0.4300  0.5123
   39POPC   H5R 5224   4.307  -0.245   7.138 -0.3394 -0.0367  1.6541
   39POPC   H5S 5225   4.134  -0.231   7.149  1.1829 -5.4399 -0.8640
   39POPC   C26 5226   4.249  -0.037   7.140  0.5339  0.2176  0.0739
   39POPC   H6R 5227   4.157   0.017   7.110 -0.9883 -1.5706  1.2782
   39POPC   H6S 5228   4.326   0.006   7.073 -2.2765  1.7914 -2.3838
   39POPC   C27 5229   4.284  -0.015   7.287 -0.3871  0.5777  0.0262
   39POPC   H7R 5230   4.385  -0.055   7.308 -0.5532 -0.1310 -0.4712
   39POPC   H7S 5231   4.209  -0.088   7.325 -0.9097 -0.1864 -2.3119
   39POPC   C28 5232   4.258   0.131   7.329 -0.2774  0.6059  0.0549
   39POPC   H8R 5233   4.249   0.133   7.439 -0.3822  0.5698  0.0467
   39POPC   H8S 5234   4.164   0.172   7.288 -0.6512 -0.2749  0.0010
   39POPC   C29 5235   4.371   0.216   7.297 -0.3064  0.0983  0.4444
   39POPC   H91 5236   4.416   0.200   7.198  0.1755  2.1340  0.2843
   39POPC  C210 5237   4.427   0.302   7.380  0.0381 -0.4052  0.1395
   39POPC  H101 5238   4.500   0.374   7.339  0.3207 -0.0912  1.1748
   39POPC  C211 5239   4.394   0.334   7.521 -0.4331 -0.3917  0.1875
   39POPC  H11R 5240   4.320   0.267   7.572 -0.5409 -0.6816 -0.3461
   39POPC  H11S 5241   4.340   0.431   7.523  0.2022 -0.0159 -0.8210
   39POPC  C212 5242   4.524   0.345   7.603 -0.0379 -0.2523  0.2151
   39POPC  H12R 5243   4.590   0.422   7.558  0.9712  0.9038  3.3443
   39POPC  H12S 5244   4.578   0.249   7.589  1.2693  0.4004  0.5458
   39POPC  C213 5245   4.513   0.371   7.753 -0.2750  0.5480 -0.4499
   39POPC  H13R 5246   4.428   0.439   7.777 -1.0163 -0.6177  0.3679
   39POPC  H13S 5247   4.606   0.415   7.794 -0.0910  0.3150 -0.6113
   39POPC  C214 5248   4.466   0.247   7.834  0.2751  0.1290  0.1700
   39POPC  H14R 5249   4.527   0.154   7.829  1.1155  0.7321 -1.7463
   39POPC  H14S 5250   4.366   0.222   7.794  0.7138 -1.4964 -0.0128
   39POPC  C215 5251   4.433   0.267   7.984 -0.7530 -0.1798  0.1929
   39POPC  H15R 5252   4.382   0.364   7.997 -0.6240  0.0843 -1.0843
   39POPC  H15S 5253   4.533   0.281   8.031  0.5594  1.4556 -2.7963
   39POPC  C216 5254   4.368   0.145   8.059 -0.5862 -0.1108  0.2912
   39POPC  H16R 5255   4.430   0.056   8.035 -0.7695  0.5436 -3.0764
   39POPC  H16S 5256   4.277   0.138   7.995  0.3138 -1.0782 -0.9264
   39POPC  C217 5257   4.346   0.158   8.208  0.3014 -0.7315 -0.8537
   39POPC  H17R 5258   4.442   0.164   8.264  0.1480 -2.0357 -0.4227
   39POPC  H17S 5259   4.285   0.072   8.242  1.1656 -1.3602 -0.8736
   39POPC  C218 5260   4.282   0.295   8.249  0.2024 -0.7005  1.0850
   39POPC  H18R 5261   4.224   0.298   8.344 -0.4054 -1.3736  0.7477
   39POPC  H18S 5262   4.212   0.329   8.170 -0.2316 -0.9219  1.3669
   39POPC  H18T 5263   4.354   0.379   8.260 -2.3650  1.7732  0.1499
   39POPC   C33 5264   3.673  -0.078   6.844  0.2365 -0.2032  0.0836
   39POPC   H3X 5265   3.583  -0.082   6.780  0.4793  0.9762 -0.3653
   39POPC   H3Y 5266   3.722   0.020   6.827 -1.0780  0.9403  2.4354
   39POPC   C34 5267   3.656  -0.071   6.995  0.9678  0.4101 -0.2359
   39POPC   H4X 5268   3.595  -0.157   7.032 -0.0590  0.8952 -0.7571
   39POPC   H4Y 5269   3.600   0.021   7.021  0.4285  0.9122 -2.8615
   39POPC   C35 5270   3.784  -0.074   7.081  0.1590 -0.6998  0.4990
   39POPC   H5X 5271   3.860  -0.004   7.042  0.3458 -0.8839  0.5301
   39POPC   H5Y 5272   3.836  -0.172   7.079  1.3028 -0.1124 -1.1441
   39POPC   C36 5273   3.755  -0.032   7.229  0.3225 -0.5251  0.3920
   39POPC   H6X 5274   3.690  -0.114   7.267 -2.5975  0.1798 -2.6152
   39POPC   H6Y 5275   3.695   0.061   7.231 -0.4780 -1.0358  0.7194
   39POPC   C37 5276   3.880  -0.012   7.312  0.2474  0.3149  0.0314
   39POPC   H7X 5277   3.961   0.048   7.265  1.5962 -1.5308 -0.1050
   39POPC   H7Y 5278   3.921  -0.113   7.334  0.1978  0.2417 -0.2113
   39POPC   C38 5279   3.838   0.053   7.447  0.2718 -0.2977  0.1886
   39POPC   H8X 5280   3.744   0.015   7.492  0.2751  1.4585  1.7910
   39POPC   H8Y 5281   3.812   0.159   7.427  1.0514 -0.4406 -1.8442
   39POPC   C39 5282   3.958   0.044   7.548 -0.3405 -0.4166 -0.5940
   39POPC   H9X 5283   4.050   0.093   7.509  0.1734 -0.2709  0.7242
   39POPC   H9Y 5284   3.991  -0.059   7.571 -1.2371 -0.5866 -0.0303
   39POPC  C310 5285   3.922   0.118   7.684 -0.0837 -0.2206 -0.8695
   39POPC  H10X 5286   3.850   0.056   7.740 -1.3262  2.5085  0.7560
   39POPC  H10Y 5287   3.891   0.222   7.661 -0.5653  0.1247  1.1288
   39POPC  C311 5288   4.033   0.122   7.781 -0.1453 -0.3423 -0.6717
   39POPC  H11X 5289   4.025   0.208   7.850 -1.7390 -1.8604  1.1256
   39POPC  H11Y 5290   4.129   0.128   7.724 -1.2476  0.4111 -2.5730
   39POPC  C312 5291   4.041  -0.001   7.873  1.1856  0.2704 -0.3861
   39POPC  H12X 5292   4.142  -0.046   7.873  1.0331 -0.4072  3.7484
   39POPC  H12Y 5293   3.977  -0.082   7.835  0.6661  1.4550 -2.1798
   39POPC  C313 5294   3.993   0.025   8.019  0.5077  0.0305 -0.8843
   39POPC  H13X 5295   3.882   0.025   8.024  0.5153 -0.3233 -0.6902
   39POPC  H13Y 5296   4.028   0.123   8.058 -2.1636  0.4363  0.7827
   39POPC  C314 5297   4.046  -0.085   8.109  0.0385 -0.0539 -0.1627
   39POPC  H14X 5298   4.155  -0.083   8.089 -0.3092 -0.5846 -2.3287
   39POPC  H14Y 5299   4.001  -0.185   8.088 -0.7913 -1.0118  4.7322
   39POPC  C315 5300   4.028  -0.059   8.254 -0.1553 -0.6757 -0.3843
   39POPC  H15X 5301   4.053   0.047   8.275 -0.9169 -0.8591  1.7697
   39POPC  H15Y 5302   4.097  -0.121   8.315 -1.0090  0.6525  2.1044
   39POPC  C316 5303   3.887  -0.074   8.299  0.8508 -0.5974  0.1604
   39POPC  H16X 5304   3.812  -0.045   8.223 -0.5822 -0.4096  1.5912
   39POPC  H16Y 5305   3.867  -0.015   8.391 -1.9628 -3.4399  1.5371
   39POPC  H16Z 5306   3.873  -0.177   8.337 -2.1448 -1.2449 -2.3182
   40POPC     N 5307   2.292   4.801   6.169  0.1615  0.0438  0.2003
   40POPC   C12 5308   2.373   4.763   6.292 -0.0453  0.5914 -0.3279
   40POPC  H12A 5309   2.302   4.769   6.374  0.5489 -2.3627  0.5204
   40POPC  H12B 5310   2.445   4.839   6.316 -0.1603  0.9766 -1.1759
   40POPC   C13 5311   2.200   4.913   6.196  0.6999  0.1497  0.1316
   40POPC  H13A 5312   2.137   4.879   6.277  1.1964 -0.4882  0.2634
   40POPC  H13B 5313   2.255   5.004   6.216  0.3967  0.1400  1.0697
   40POPC  H13C 5314   2.123   4.917   6.121  1.1100  1.0163 -0.2565
   40POPC   C14 5315   2.381   4.833   6.058  0.2346 -0.1059  0.4287
   40POPC  H14A 5316   2.415   4.746   6.005  0.0368 -0.6338  1.1589
   40POPC  H14B 5317   2.320   4.893   5.992  1.9473  2.1157  0.6931
   40POPC  H14C 5318   2.464   4.895   6.090  0.5152  0.6671 -1.6160
   40POPC   C15 5319   2.203   4.686   6.129 -0.1700 -0.3917  0.2400
   40POPC  H15A 5320   2.125   4.654   6.197 -1.1569  0.9420 -0.2284
   40POPC  H15B 5321   2.260   4.596   6.109 -0.2436 -0.5673  0.7989
   40POPC  H15C 5322   2.142   4.720   6.047  0.6696 -0.1046 -0.2776
   40POPC   C11 5323   2.448   4.626   6.298  0.0159 -0.2616  0.0500
   40POPC  H11A 5324   2.377   4.554   6.251 -1.8549  0.5892  1.4600
   40POPC  H11B 5325   2.462   4.595   6.404 -0.5654 -3.0579 -0.6086
   40POPC     P 5326   2.703   4.673   6.243 -0.0329  0.0879  0.6780
   40POPC   O13 5327   2.697   4.817   6.261  0.1402 -0.0887  0.5116
   40POPC   O14 5328   2.810   4.628   6.143  0.2853 -0.2092 -0.1860
   40POPC   O12 5329   2.562   4.615   6.210  0.1752  0.5341 -0.0414
   40POPC   O11 5330   2.739   4.617   6.386  0.0256  0.7775 -0.8606
   40POPC    C1 5331   2.779   4.472   6.388  0.0574 -0.3458 -0.2152
   40POPC    HA 5332   2.888   4.466   6.412 -0.0079  1.0366  0.5390
   40POPC    HB 5333   2.774   4.418   6.291 -1.7281 -0.0258 -0.3244
   40POPC    C2 5334   2.695   4.400   6.492 -0.0406 -0.1558 -0.5499
   40POPC    HS 5335   2.591   4.432   6.473 -0.3666  0.1342  1.4980
   40POPC   O21 5336   2.749   4.432   6.622 -0.2583 -0.0403 -0.1650
   40POPC   C21 5337   2.688   4.522   6.692 -0.2356  0.4889  0.6056
   40POPC   O22 5338   2.589   4.582   6.655 -0.0393  0.8317 -0.0990
   40POPC   C22 5339   2.768   4.538   6.817 -0.2012 -0.5323  0.1959
   40POPC   H2R 5340   2.865   4.583   6.785 -1.5299  0.2430 -3.0875
   40POPC   H2S 5341   2.781   4.432   6.847  0.5643 -1.0482 -1.7876
   40POPC    C3 5342   2.700   4.251   6.478  0.6984  0.0212 -0.0375
   40POPC    HX 5343   2.806   4.219   6.486  0.7627 -0.3962 -1.9656
   40POPC    HY 5344   2.668   4.219   6.376 -1.2042 -0.0972  0.5542
   40POPC   O31 5345   2.609   4.183   6.564  0.2700  0.1279  0.0106
   40POPC   C31 5346   2.670   4.129   6.672 -0.3994  0.3313  0.3020
   40POPC   O32 5347   2.786   4.146   6.709 -0.1218 -0.5341  0.2627
   40POPC   C32 5348   2.555   4.081   6.766 -0.3248 -0.8714  0.0989
   40POPC   H2X 5349   2.610   4.041   6.854  1.2546 -1.2321 -1.0207
   40POPC   H2Y 5350   2.513   3.992   6.714 -0.7745 -0.7027  0.1690
   40POPC   C23 5351   2.697   4.620   6.928  0.4419  0.2814 -0.3401
   40POPC   H3R 5352   2.591   4.592   6.949  1.0812 -0.4436  2.3787
   40POPC   H3S 5353   2.713   4.727   6.905  0.9511  0.1312 -0.6983
   40POPC   C24 5354   2.758   4.600   7.065 -0.3352  0.6271 -0.5394
   40POPC   H4R 5355   2.868   4.602   7.049 -0.1499  0.8774  0.6946
   40POPC   H4S 5356   2.722   4.504   7.108  0.5444  0.2119 -0.6973
   40POPC   C25 5357   2.721   4.711   7.164  0.0087  0.5541 -0.3795
   40POPC   H5R 5358   2.610   4.709   7.165  0.0172 -0.0429  0.0855
   40POPC   H5S 5359   2.768   4.803   7.122 -0.7218  1.1406  0.0490
   40POPC   C26 5360   2.779   4.688   7.307 -0.0160  0.4986  0.3991
   40POPC   H6R 5361   2.889   4.676   7.298 -0.0439  1.8070 -3.8601
   40POPC   H6S 5362   2.739   4.594   7.350  0.9650  0.1943  0.6541
   40POPC   C27 5363   2.748   4.806   7.387 -0.0286 -0.2543 -0.3607
   40POPC   H7R 5364   2.792   4.898   7.344  0.4641  1.2762  3.1130
   40POPC   H7S 5365   2.808   4.794   7.479 -0.4413 -1.7533 -0.2599
   40POPC   C28 5366   2.604   4.836   7.422  0.7986  0.1695  0.4186
   40POPC   H8R 5367   2.552   4.874   7.331 -2.1577 -0.2948  1.7955
   40POPC   H8S 5368   2.590   4.916   7.498  2.0589  2.0230 -1.2150
   40POPC   C29 5369   2.537   4.711   7.473  0.5473  0.0969 -0.2246
   40POPC   H91 5370   2.480   4.658   7.396 -0.1591  1.9304 -1.0091
   40POPC  C210 5371   2.531   4.670   7.603 -0.5176  0.6843  0.6089
   40POPC  H101 5372   2.463   4.588   7.631 -0.0306  0.2179  0.4433
   40POPC  C211 5373   2.590   4.748   7.722  0.4487  0.3233 -0.1739
   40POPC  H11R 5374   2.516   4.756   7.805  0.0413 -1.4285 -0.3295
   40POPC  H11S 5375   2.627   4.852   7.703  2.7050 -0.4171 -0.0777
   40POPC  C212 5376   2.715   4.677   7.781  0.0814 -0.3839 -0.0134
   40POPC  H12R 5377   2.785   4.665   7.695  0.2028 -0.7084  0.1294
   40POPC  H12S 5378   2.687   4.577   7.819 -0.6020 -0.0270  0.4391
   40POPC  C213 5379   2.782   4.767   7.884 -0.3847  0.0111  0.1905
   40POPC  H13R 5380   2.704   4.790   7.959 -0.1556 -0.7450  0.6833
   40POPC  H13S 5381   2.819   4.870   7.865 -1.0642  0.2873  0.3310
   40POPC  C214 5382   2.894   4.685   7.955  0.6163 -0.3331 -0.3426
   40POPC  H14R 5383   2.969   4.674   7.873  1.3742 -1.2651  0.4555
   40POPC  H14S 5384   2.848   4.587   7.982 -2.5727  0.2956 -2.8370
   40POPC  C215 5385   2.954   4.756   8.072 -0.1572  0.0830 -0.1399
   40POPC  H15R 5386   2.868   4.782   8.137 -2.4861 -0.1090 -2.9033
   40POPC  H15S 5387   2.986   4.850   8.023 -0.0266  0.6759  1.0668
   40POPC  C216 5388   3.069   4.683   8.149  0.1249 -0.0963 -0.2989
   40POPC  H16R 5389   3.029   4.602   8.214  2.3126 -0.0665  1.2028
   40POPC  H16S 5390   3.126   4.752   8.215 -0.1816  1.4017 -1.5499
   40POPC  C217 5391   3.175   4.616   8.073 -0.9082  0.0180  0.0083
   40POPC  H17R 5392   3.239   4.695   8.027  2.4511 -1.2293  2.1487
   40POPC  H17S 5393   3.142   4.554   7.987  1.1712  0.1615 -0.9706
   40POPC  C218 5394   3.284   4.531   8.154 -0.2328  0.0155 -0.4018
   40POPC  H18R 5395   3.332   4.457   8.086 -1.5289  2.1737 -3.9510
   40POPC  H18S 5396   3.230   4.471   8.230 -0.7767 -1.8212 -2.1351
   40POPC  H18T 5397   3.359   4.598   8.200 -0.8279  0.8197 -0.5932
   40POPC   C33 5398   2.458   4.199   6.807 -0.3716  0.2376 -0.8222
   40POPC   H3X 5399   2.362   4.152   6.834  1.0559 -1.8572  0.9918
   40POPC   H3Y 5400   2.451   4.276   6.726  1.9518 -1.2523 -2.5738
   40POPC   C34 5401   2.510   4.247   6.939  0.7494  0.1975  0.5332
   40POPC   H4X 5402   2.487   4.355   6.952  2.6527  0.9424 -1.6446
   40POPC   H4Y 5403   2.621   4.241   6.937  0.7327 -0.2528  0.7650
   40POPC   C35 5404   2.447   4.187   7.068 -0.7495  0.1072 -0.1019
   40POPC   H5X 5405   2.470   4.079   7.085  2.5939  0.5864 -0.8677
   40POPC   H5Y 5406   2.337   4.203   7.059 -0.2550  3.1324 -2.8690
   40POPC   C36 5407   2.487   4.263   7.197 -0.9150 -0.6168 -0.1839
   40POPC   H6X 5408   2.422   4.353   7.200 -1.4887 -0.9905 -0.9282
   40POPC   H6Y 5409   2.591   4.298   7.178 -1.0899 -0.1943 -0.3870
   40POPC   C37 5410   2.479   4.180   7.319 -0.1134  0.2041 -0.6456
   40POPC   H7X 5411   2.542   4.089   7.323 -1.2187 -0.5480  0.6780
   40POPC   H7Y 5412   2.371   4.151   7.326  0.5486 -2.7028 -1.0198
   40POPC   C38 5413   2.484   4.270   7.445  0.4958 -0.2082  0.4347
   40POPC   H8X 5414   2.417   4.358   7.432 -0.9908 -1.2583  0.8649
   40POPC   H8Y 5415   2.592   4.296   7.457  0.5054 -0.6347  1.3346
   40POPC   C39 5416   2.450   4.205   7.583  0.0574  0.2413 -0.6609
   40POPC   H9X 5417   2.510   4.120   7.623 -2.2542  0.4897  4.0012
   40POPC   H9Y 5418   2.344   4.174   7.581  0.1515 -0.2973  0.9173
   40POPC  C310 5419   2.466   4.307   7.696  0.3078  0.6378 -0.7786
   40POPC  H10X 5420   2.391   4.387   7.688 -1.0692 -0.3858  1.1979
   40POPC  H10Y 5421   2.564   4.352   7.667 -0.0649  2.2755  0.4223
   40POPC  C311 5422   2.474   4.250   7.831  0.2357  0.9227 -0.6974
   40POPC  H11X 5423   2.546   4.167   7.840  0.0890  1.0611  3.1145
   40POPC  H11Y 5424   2.373   4.214   7.861  0.1518  1.2942 -0.5381
   40POPC  C312 5425   2.517   4.341   7.948  0.6047 -0.8211 -0.5630
   40POPC  H12X 5426   2.604   4.397   7.907  0.5805 -0.6891 -0.4314
   40POPC  H12Y 5427   2.532   4.286   8.043 -0.9616  0.5385  0.5221
   40POPC  C313 5428   2.408   4.445   7.985 -0.5125  0.0067 -0.3278
   40POPC  H13X 5429   2.335   4.386   8.044 -1.1081  2.9059  2.0869
   40POPC  H13Y 5430   2.348   4.488   7.901 -2.3688 -1.5262  0.1404
   40POPC  C314 5431   2.472   4.566   8.061  0.4554  0.5818  0.3458
   40POPC  H14X 5432   2.380   4.624   8.083 -1.3639 -2.0516  0.1699
   40POPC  H14Y 5433   2.520   4.632   7.986  2.3195 -2.0609 -0.9557
   40POPC  C315 5434   2.552   4.547   8.189  0.1512  0.1378  0.9001
   40POPC  H15X 5435   2.639   4.482   8.164  0.5861  1.2236 -0.5998
   40POPC  H15Y 5436   2.492   4.494   8.265 -1.0837  1.3423  0.8096
   40POPC  C316 5437   2.592   4.682   8.244  0.4523  0.7934  0.0074
   40POPC  H16X 5438   2.500   4.742   8.230 -0.1340 -0.5396 -2.6060
   40POPC  H16Y 5439   2.680   4.726   8.191  1.1719  0.5690  0.9972
   40POPC  H16Z 5440   2.618   4.678   8.352  2.2213 -0.9283 -0.4241
   41CHL1    C3 5441   2.482   1.110  10.076 -0.0660 -0.7765  0.2500
   41CHL1    H3 5442   2.489   1.005  10.041  0.0316 -0.7236  0.1141
   41CHL1    O3 5443   2.409   1.122  10.195  0.5799 -0.6420 -0.3302
   41CHL1   H3' 5444   2.333   1.177  10.175  0.5402 -1.2013 -1.8499
   41CHL1    C4 5445   2.629   1.166  10.104 -0.2172 -0.4083  0.4694
   41CHL1   H4A 5446   2.610   1.274  10.120 -0.1303  0.0564 -2.1182
   41CHL1   H4B 5447   2.683   1.117  10.188 -1.1605 -1.3407  0.5421
   41CHL1    C5 5448   2.712   1.144   9.979 -0.1003  0.2921 -0.1401
   41CHL1    C6 5449   2.822   1.071   9.982 -0.5435 -0.4898 -0.2387
   41CHL1    H6 5450   2.845   1.017  10.075 -2.1281 -1.4882 -0.3739
   41CHL1    C7 5451   2.913   1.060   9.863 -1.0642  0.4079  0.3238
   41CHL1   H7A 5452   3.018   1.085   9.888 -1.0517 -0.6383  1.3957
   41CHL1   H7B 5453   2.911   0.958   9.820  0.5838  0.3119  0.3968
   41CHL1    C8 5454   2.877   1.147   9.734 -0.0515  0.1988 -0.1794
   41CHL1    H8 5455   2.915   1.248   9.763 -0.3659 -0.1824  1.6761
   41CHL1   C14 5456   2.946   1.097   9.611  0.5855  0.3557 -0.2669
   41CHL1   H14 5457   2.900   0.997   9.596  0.7331  0.1965  0.2979
   41CHL1   C15 5458   3.094   1.068   9.600  0.7169 -0.5821 -0.4747
   41CHL1  H15A 5459   3.150   1.157   9.637  2.5258 -0.7218 -2.6725
   41CHL1  H15B 5460   3.119   0.979   9.661  2.4755  1.1160  1.4747
   41CHL1   C16 5461   3.133   1.058   9.452  0.0693  0.0452  0.2562
   41CHL1  H16A 5462   3.217   1.125   9.424 -0.6568  1.0670  0.4470
   41CHL1  H16B 5463   3.148   0.957   9.410  0.0556  1.0143 -2.2469
   41CHL1   C17 5464   2.995   1.099   9.379  0.8206  0.4784 -0.4118
   41CHL1   H17 5465   2.940   1.004   9.365 -1.2288  1.5734 -0.2497
   41CHL1   C13 5466   2.909   1.173   9.481 -0.0936 -0.0790 -1.0198
   41CHL1   C18 5467   2.938   1.325   9.496  0.2992 -0.4196  0.6342
   41CHL1  H18A 5468   3.045   1.345   9.520 -0.0806 -0.4035  2.4956
   41CHL1  H18B 5469   2.905   1.384   9.408  0.2014  0.4455  1.2373
   41CHL1  H18C 5470   2.873   1.365   9.576  1.4975 -0.0743  1.4722
   41CHL1   C12 5471   2.753   1.153   9.456 -0.4840 -0.1458 -0.2656
   41CHL1  H12A 5472   2.708   1.204   9.368 -2.8215 -0.9487  0.3833
   41CHL1  H12B 5473   2.733   1.045   9.440 -0.6873 -0.1389 -0.0707
   41CHL1   C11 5474   2.673   1.198   9.584 -0.2315 -0.0591 -0.1032
   41CHL1  H11A 5475   2.685   1.309   9.588  0.2716 -0.1078 -0.1325
   41CHL1  H11B 5476   2.566   1.177   9.564 -0.7809  0.8958  1.6121
   41CHL1    C9 5477   2.725   1.150   9.716 -0.0368 -0.6942 -0.3585
   41CHL1    H9 5478   2.697   1.043   9.712 -1.6455 -0.3172 -0.0832
   41CHL1   C10 5479   2.658   1.209   9.845  0.5017  0.4365  0.0476
   41CHL1   C19 5480   2.680   1.362   9.850 -0.2791  0.3698  0.4887
   41CHL1  H19A 5481   2.640   1.418   9.762 -2.1503  1.5542  2.0129
   41CHL1  H19B 5482   2.628   1.402   9.940 -1.3960 -0.3787  0.1947
   41CHL1  H19C 5483   2.787   1.387   9.863 -0.4946  0.7538  1.6358
   41CHL1    C1 5484   2.501   1.179   9.833 -0.3194 -0.4018 -0.7839
   41CHL1   H1A 5485   2.460   1.246   9.755 -0.5007 -1.6384 -1.7777
   41CHL1   H1B 5486   2.486   1.080   9.786  0.2944 -1.1092  0.4474
   41CHL1    C2 5487   2.417   1.194   9.969  0.7779  0.5085 -0.1119
   41CHL1   H2A 5488   2.314   1.154   9.951 -0.1072  2.3548  0.5686
   41CHL1   H2B 5489   2.405   1.301   9.999 -0.1665  0.3540  0.1048
   41CHL1   C20 5490   3.012   1.171   9.242  0.0547  0.3277 -0.3646
   41CHL1   H20 5491   3.041   1.275   9.267  1.9330 -0.1003 -0.6631
   41CHL1   C21 5492   2.880   1.211   9.170 -0.1365  0.2937 -0.2495
   41CHL1  H21A 5493   2.827   1.121   9.132 -1.7062  1.0579  0.0120
   41CHL1  H21B 5494   2.912   1.279   9.088  0.3207  0.3511 -0.0224
   41CHL1  H21C 5495   2.812   1.278   9.228 -0.0134  0.5682 -0.4202
   41CHL1   C22 5496   3.107   1.106   9.147  0.0729  0.1707 -0.3390
   41CHL1  H22A 5497   3.212   1.113   9.183  0.2369 -0.4117 -0.6823
   41CHL1  H22B 5498   3.087   0.996   9.149 -2.6269  0.5982  0.3150
   41CHL1   C23 5499   3.101   1.142   8.998 -0.0161 -0.2096  0.4968
   41CHL1  H23A 5500   3.005   1.098   8.967  0.9745 -1.5198 -0.8349
   41CHL1  H23B 5501   3.104   1.253   8.993  0.6935 -0.2536 -0.4356
   41CHL1   C24 5502   3.223   1.080   8.922  0.5195  0.1917  0.1063
   41CHL1  H24A 5503   3.315   1.111   8.977  1.0524  2.1995 -1.7755
   41CHL1  H24B 5504   3.215   0.969   8.928 -1.8851  0.4104  3.1758
   41CHL1   C25 5505   3.239   1.104   8.769 -0.2539 -0.0388  0.2324
   41CHL1   H25 5506   3.159   1.046   8.719  0.9254 -0.1908 -1.6004
   41CHL1   C26 5507   3.213   1.250   8.726  0.1707  0.4062 -0.4996
   41CHL1  H26A 5508   3.225   1.267   8.617 -2.1049  3.1316 -0.4094
   41CHL1  H26B 5509   3.113   1.286   8.756 -0.1409 -1.1023  0.3547
   41CHL1  H26C 5510   3.287   1.312   8.781 -1.4408 -0.7666  3.3042
   41CHL1   C27 5511   3.380   1.058   8.722 -0.8918 -0.7337 -0.5131
   41CHL1  H27A 5512   3.456   1.124   8.770  0.6375 -3.5975  1.2373
   41CHL1  H27B 5513   3.406   0.954   8.750  0.0030 -0.3167  0.2446
   41CHL1  H27C 5514   3.391   1.060   8.611  1.1849 -1.1862 -0.3497
   42CHL1    C3 5515   0.773   0.209   9.798 -0.5667  0.7823 -0.4389
   42CHL1    H3 5516   0.882   0.187   9.799 -0.9706 -1.4210  0.5327
   42CHL1    O3 5517   0.712   0.203   9.925  0.2353  0.2774 -0.3112
   42CHL1   H3' 5518   0.783   0.235   9.981  0.1450  2.8508 -1.5361
   42CHL1    C4 5519   0.750   0.345   9.738  0.1516 -0.0877 -0.3817
   42CHL1   H4A 5520   0.643   0.371   9.752 -0.1455 -2.2673  2.2578
   42CHL1   H4B 5521   0.796   0.420   9.805  1.1488 -0.2952 -0.8135
   42CHL1    C5 5522   0.797   0.353   9.596 -0.2445  0.5399  1.0362
   42CHL1    C6 5523   0.880   0.442   9.548 -0.4619 -0.1812 -0.2580
   42CHL1    H6 5524   0.929   0.506   9.622  2.1822 -1.2617 -0.9734
   42CHL1    C7 5525   0.909   0.478   9.404  0.7013 -0.3654  0.1379
   42CHL1   H7A 5526   0.898   0.584   9.374  2.4850 -0.3402 -0.5806
   42CHL1   H7B 5527   1.019   0.463   9.395  1.1335  0.4315  2.9737
   42CHL1    C8 5528   0.811   0.398   9.311  0.0673 -0.0499  0.7542
   42CHL1    H8 5529   0.716   0.455   9.318 -0.0444 -0.4773  3.4109
   42CHL1   C14 5530   0.868   0.399   9.164 -0.2790 -0.1685 -0.2826
   42CHL1   H14 5531   0.968   0.353   9.174 -1.4971 -2.6434  1.9691
   42CHL1   C15 5532   0.889   0.537   9.093  0.6323 -0.2027  0.4416
   42CHL1  H15A 5533   0.803   0.598   9.128 -0.6183  0.0258 -2.7343
   42CHL1  H15B 5534   0.988   0.575   9.124  1.0888  0.4431 -1.6593
   42CHL1   C16 5535   0.884   0.505   8.940  0.4028  0.0556 -0.6832
   42CHL1  H16A 5536   0.813   0.573   8.888 -2.0962 -2.0004 -0.1368
   42CHL1  H16B 5537   0.989   0.518   8.907  0.6925 -0.8935 -0.1561
   42CHL1   C17 5538   0.847   0.346   8.941 -0.6554  0.4071  0.1021
   42CHL1   H17 5539   0.947   0.298   8.949  0.6394  2.5294 -2.0153
   42CHL1   C13 5540   0.782   0.318   9.068  0.5603 -0.6202 -0.7040
   42CHL1   C18 5541   0.636   0.357   9.064 -0.2007  0.3990  0.5473
   42CHL1  H18A 5542   0.592   0.290   8.988 -0.7629  0.5232  0.7637
   42CHL1  H18B 5543   0.594   0.353   9.167 -0.5647 -2.8392  0.3484
   42CHL1  H18C 5544   0.635   0.458   9.018  1.4335 -0.0889 -0.6625
   42CHL1   C12 5545   0.771   0.171   9.113 -0.6346  0.1276 -0.3112
   42CHL1  H12A 5546   0.708   0.118   9.039  0.1160 -1.4625  0.1454
   42CHL1  H12B 5547   0.871   0.123   9.114 -1.5521 -1.9139  0.8457
   42CHL1   C11 5548   0.725   0.158   9.258  0.2880 -0.1481 -0.2164
   42CHL1  H11A 5549   0.615   0.168   9.250  0.2260 -1.5165 -1.5057
   42CHL1  H11B 5550   0.748   0.054   9.291  1.8484 -0.6110 -2.4994
   42CHL1    C9 5551   0.797   0.251   9.353 -0.3176 -0.6937  0.0650
   42CHL1    H9 5552   0.902   0.218   9.366 -0.0620  0.7273  2.1814
   42CHL1   C10 5553   0.732   0.246   9.499 -0.5051  0.4134 -0.8768
   42CHL1   C19 5554   0.585   0.269   9.489  0.5932  0.3643  0.3203
   42CHL1  H19A 5555   0.554   0.364   9.440  0.9146  1.2659  1.7961
   42CHL1  H19B 5556   0.544   0.190   9.422 -0.9664  1.8369 -0.5342
   42CHL1  H19C 5557   0.524   0.255   9.581  1.1558 -2.2611  0.3752
   42CHL1    C1 5558   0.763   0.108   9.570  0.1394  0.3704  0.2677
   42CHL1   H1A 5559   0.716   0.033   9.503 -1.1220  0.9474  0.4838
   42CHL1   H1B 5560   0.874   0.104   9.571  0.1258 -1.1813 -0.5741
   42CHL1    C2 5561   0.710   0.095   9.714  0.2213  0.3715  0.5176
   42CHL1   H2A 5562   0.749  -0.002   9.750 -0.1087 -0.7801 -1.9919
   42CHL1   H2B 5563   0.600   0.099   9.726  0.0322 -1.1046 -0.4225
   42CHL1   C20 5564   0.792   0.281   8.813  0.4523  0.5051  0.2382
   42CHL1   H20 5565   0.751   0.180   8.832  1.6131  0.1860  1.1645
   42CHL1   C21 5566   0.921   0.261   8.734  0.3583  0.1555  0.1750
   42CHL1  H21A 5567   0.985   0.351   8.719  2.4609 -1.1316  1.0606
   42CHL1  H21B 5568   0.900   0.215   8.635 -0.0737  0.6205  0.0431
   42CHL1  H21C 5569   0.979   0.182   8.785 -0.6627 -1.9739 -1.7924
   42CHL1   C22 5570   0.693   0.364   8.728  0.1216 -0.2887 -0.1388
   42CHL1  H22A 5571   0.617   0.404   8.799 -0.2169  0.6080 -0.9878
   42CHL1  H22B 5572   0.731   0.452   8.672 -0.7262 -0.9465 -1.8162
   42CHL1   C23 5573   0.623   0.279   8.623  0.1982  0.6201 -0.5493
   42CHL1  H23A 5574   0.698   0.216   8.570 -0.9170  0.5559 -2.0997
   42CHL1  H23B 5575   0.567   0.206   8.684  0.6366  2.0270  1.6701
   42CHL1   C24 5576   0.523   0.343   8.522  0.5024  0.3739 -0.1066
   42CHL1  H24A 5577   0.583   0.421   8.470  2.3379 -1.1907 -0.4555
   42CHL1  H24B 5578   0.513   0.264   8.444  0.3530 -0.7302  1.0063
   42CHL1   C25 5579   0.377   0.374   8.568  0.4894 -0.3707  0.4855
   42CHL1   H25 5580   0.337   0.280   8.611 -0.5666  1.2794  3.3606
   42CHL1   C26 5581   0.360   0.482   8.671  0.0476 -0.1814 -0.3710
   42CHL1  H26A 5582   0.250   0.491   8.683  0.1812  0.3454  0.5559
   42CHL1  H26B 5583   0.406   0.446   8.766 -0.4413  0.4078  0.0946
   42CHL1  H26C 5584   0.409   0.575   8.637  1.9408 -1.6627 -2.0017
   42CHL1   C27 5585   0.295   0.404   8.448  0.9322 -0.6881  0.6543
   42CHL1  H27A 5586   0.187   0.418   8.468  0.8353 -0.9306  0.3153
   42CHL1  H27B 5587   0.332   0.500   8.407 -1.2026 -0.7641 -1.7122
   42CHL1  H27C 5588   0.315   0.329   8.368 -2.7948 -2.1116  0.8568
   43CHL1    C3 5589   1.472   1.335   9.924  0.0874  0.5274  0.0380
   43CHL1    H3 5590   1.569   1.388   9.913  0.1458  0.2479 -0.8195
   43CHL1    O3 5591   1.462   1.296  10.062 -0.1552  0.1754  0.8538
   43CHL1   H3' 5592   1.372   1.267  10.079 -0.4036  0.4647  0.0465
   43CHL1    C4 5593   1.354   1.420   9.885 -0.5360 -0.6068 -0.1046
   43CHL1   H4A 5594   1.256   1.371   9.904  0.6420 -2.5229  1.4006
   43CHL1   H4B 5595   1.344   1.512   9.947 -1.6595  0.3476 -1.6237
   43CHL1    C5 5596   1.346   1.451   9.738  0.8612  1.0782  0.0494
   43CHL1    C6 5597   1.351   1.579   9.698 -0.1555  0.3850  0.0174
   43CHL1    H6 5598   1.365   1.662   9.769  0.0757  0.9281 -0.6540
   43CHL1    C7 5599   1.342   1.617   9.558  0.0268  0.0050  0.4402
   43CHL1   H7A 5600   1.268   1.696   9.533 -0.4026 -0.6278 -0.3045
   43CHL1   H7B 5601   1.437   1.668   9.528  0.6129 -2.3451 -2.0709
   43CHL1    C8 5602   1.310   1.505   9.456 -0.2575 -0.0567  0.3393
   43CHL1    H8 5603   1.202   1.481   9.445 -0.0087 -0.3785 -2.1987
   43CHL1   C14 5604   1.357   1.549   9.320  0.2741  0.0626  0.3742
   43CHL1   H14 5605   1.465   1.564   9.339  1.1778 -0.4857 -3.4579
   43CHL1   C15 5606   1.311   1.681   9.263 -0.7399 -0.5768 -0.2046
   43CHL1  H15A 5607   1.201   1.684   9.270 -0.7572  0.4495 -0.7118
   43CHL1  H15B 5608   1.358   1.772   9.306 -0.6473 -1.1674  0.9814
   43CHL1   C16 5609   1.355   1.676   9.114 -0.2304  0.6362  0.7043
   43CHL1  H16A 5610   1.270   1.694   9.045  0.6581  1.8182 -0.1213
   43CHL1  H16B 5611   1.439   1.745   9.089  2.3067 -2.8337 -1.2089
   43CHL1   C17 5612   1.411   1.531   9.088  0.5445  0.0111  0.3934
   43CHL1   H17 5613   1.520   1.525   9.110  0.5052 -2.4360  0.2139
   43CHL1   C13 5614   1.353   1.451   9.208 -0.0563  0.0390 -0.8381
   43CHL1   C18 5615   1.210   1.428   9.182  0.2902  0.6264  0.1770
   43CHL1  H18A 5616   1.188   1.345   9.112  1.0665  0.5413  0.0221
   43CHL1  H18B 5617   1.168   1.385   9.276  1.8220 -0.5639  0.3749
   43CHL1  H18C 5618   1.160   1.517   9.140  0.5638  0.0297 -1.5089
   43CHL1   C12 5619   1.434   1.323   9.247 -0.3873 -0.5239 -0.5122
   43CHL1  H12A 5620   1.445   1.240   9.174  0.1319 -1.2848  0.4114
   43CHL1  H12B 5621   1.536   1.366   9.261 -1.1299  2.0886 -2.2867
   43CHL1   C11 5622   1.383   1.275   9.390 -0.8419  0.8701  0.4152
   43CHL1  H11A 5623   1.278   1.241   9.386 -0.6391 -0.0116  2.0973
   43CHL1  H11B 5624   1.452   1.192   9.413 -1.6841  0.1229  0.2863
   43CHL1    C9 5625   1.389   1.384   9.500 -0.1884  0.8647  0.9896
   43CHL1    H9 5626   1.495   1.417   9.497  0.3579 -0.7031 -2.5453
   43CHL1   C10 5627   1.343   1.334   9.637 -1.2242  0.2615 -0.3086
   43CHL1   C19 5628   1.208   1.273   9.628  0.5520 -0.2818  0.5627
   43CHL1  H19A 5629   1.187   1.192   9.554 -0.0185  0.2962  0.0748
   43CHL1  H19B 5630   1.173   1.223   9.721 -0.7825 -0.3491  0.0466
   43CHL1  H19C 5631   1.124   1.343   9.607  0.9446 -0.0878 -0.4478
   43CHL1    C1 5632   1.451   1.239   9.689  0.0866  0.3241 -0.2960
   43CHL1   H1A 5633   1.445   1.145   9.632 -0.6198  1.7156 -2.6457
   43CHL1   H1B 5634   1.555   1.273   9.671 -0.5143  1.6683 -1.4408
   43CHL1    C2 5635   1.447   1.203   9.843  0.2936 -0.0173 -0.2979
   43CHL1   H2A 5636   1.521   1.120   9.852  2.4395  1.9491  1.3492
   43CHL1   H2B 5637   1.344   1.165   9.861  0.8915 -1.5166  0.1429
   43CHL1   C20 5638   1.402   1.479   8.944 -0.4943 -0.0590  0.3131
   43CHL1   H20 5639   1.301   1.434   8.938 -1.3590  1.6058  1.6036
   43CHL1   C21 5640   1.514   1.376   8.911 -0.2913  0.6627  0.1854
   43CHL1  H21A 5641   1.517   1.298   8.990  0.5402 -1.0242 -1.4400
   43CHL1  H21B 5642   1.617   1.416   8.923 -0.2901  0.4432  1.0508
   43CHL1  H21C 5643   1.507   1.329   8.811  3.0168  2.4945 -1.0468
   43CHL1   C22 5644   1.389   1.585   8.827  0.4232 -0.9132 -0.8537
   43CHL1  H22A 5645   1.289   1.632   8.838  1.8960  2.0029  1.3744
   43CHL1  H22B 5646   1.468   1.662   8.840 -0.5262 -0.0841  0.0392
   43CHL1   C23 5647   1.382   1.523   8.685 -0.1698 -0.0606 -0.0833
   43CHL1  H23A 5648   1.485   1.485   8.667  0.2292  1.3930 -1.1366
   43CHL1  H23B 5649   1.310   1.439   8.690 -0.3073  0.0727  0.1894
   43CHL1   C24 5650   1.349   1.625   8.577 -0.2181  0.2460 -0.9976
   43CHL1  H24A 5651   1.243   1.655   8.594  0.1304  3.1577 -3.0674
   43CHL1  H24B 5652   1.414   1.713   8.596 -1.9439  1.7741 -1.7506
   43CHL1   C25 5653   1.366   1.585   8.432  0.0637  0.1849 -0.2915
   43CHL1   H25 5654   1.471   1.552   8.419 -0.1043  0.1029 -1.6518
   43CHL1   C26 5655   1.270   1.478   8.385 -0.2377  0.0421 -0.5425
   43CHL1  H26A 5656   1.293   1.452   8.279 -2.3602  0.5437 -1.1787
   43CHL1  H26B 5657   1.260   1.384   8.444  1.5726 -0.4046 -0.8794
   43CHL1  H26C 5658   1.167   1.517   8.398 -0.1442  0.4175 -0.9077
   43CHL1   C27 5659   1.348   1.713   8.348 -0.3064  0.3699 -0.1939
   43CHL1  H27A 5660   1.249   1.764   8.347  1.2654  3.8159 -3.4708
   43CHL1  H27B 5661   1.426   1.785   8.380 -1.8539  1.4692  1.2863
   43CHL1  H27C 5662   1.368   1.688   8.242 -1.4321  1.1675 -0.6148
   44CHL1    C3 5663   1.826   0.087  10.188  0.5956 -0.2628  0.0354
   44CHL1    H3 5664   1.775   0.185  10.173  1.9217  0.3364 -0.8075
   44CHL1    O3 5665   1.839   0.067  10.332  0.1308 -0.2203  1.0904
   44CHL1   H3' 5666   1.809  -0.023  10.348 -0.7504  0.1916  1.8509
   44CHL1    C4 5667   1.743  -0.017  10.128  0.9617  0.0137 -0.0180
   44CHL1   H4A 5668   1.789  -0.118  10.138  1.8435  0.5066  1.0183
   44CHL1   H4B 5669   1.645  -0.016  10.180  2.1387 -1.6087  2.4224
   44CHL1    C5 5670   1.730   0.003   9.984  0.4296  0.8021 -0.1849
   44CHL1    C6 5671   1.612   0.013   9.925  0.7518  0.5168  0.5141
   44CHL1    H6 5672   1.526   0.001   9.992 -1.2930  1.7987 -1.7310
   44CHL1    C7 5673   1.583   0.036   9.779  0.3212 -0.0208 -0.6048
   44CHL1   H7A 5674   1.504  -0.029   9.736  0.8247 -0.4254 -0.9253
   44CHL1   H7B 5675   1.552   0.141   9.757 -1.3468 -0.7668 -2.1248
   44CHL1    C8 5676   1.713  -0.008   9.697  0.1498  0.3630  0.8174
   44CHL1    H8 5677   1.718  -0.119   9.698  1.5523  0.4053  1.0114
   44CHL1   C14 5678   1.689   0.046   9.558  0.2704 -0.1754  0.2429
   44CHL1   H14 5679   1.672   0.155   9.573 -0.9068 -0.4678  1.1464
   44CHL1   C15 5680   1.568   0.012   9.473  0.1677  0.6331 -0.0490
   44CHL1  H15A 5681   1.545  -0.096   9.487  0.8756  0.4158 -0.5105
   44CHL1  H15B 5682   1.479   0.067   9.510  1.6671  1.9292  1.8042
   44CHL1   C16 5683   1.606   0.043   9.335 -0.0644 -0.0887 -0.6738
   44CHL1  H16A 5684   1.598  -0.050   9.274 -0.5659 -1.1848  1.0051
   44CHL1  H16B 5685   1.545   0.122   9.285  1.5473 -0.2415 -3.0554
   44CHL1   C17 5686   1.750   0.099   9.338 -0.0329  0.3095 -0.0850
   44CHL1   H17 5687   1.753   0.206   9.368  0.1828 -0.0916  1.4439
   44CHL1   C13 5688   1.811   0.032   9.459  0.0057 -0.6315 -0.1412
   44CHL1   C18 5689   1.848  -0.115   9.439 -0.3826 -0.1013  0.6899
   44CHL1  H18A 5690   1.951  -0.123   9.398 -0.8389  0.6764 -0.6519
   44CHL1  H18B 5691   1.850  -0.168   9.536 -1.1002  0.1488  0.8447
   44CHL1  H18C 5692   1.773  -0.165   9.374 -0.8041 -0.3607  1.3687
   44CHL1   C12 5693   1.925   0.110   9.532 -0.0061 -0.4261 -0.5182
   44CHL1  H12A 5694   2.016   0.130   9.472 -0.3761  0.8187 -0.7055
   44CHL1  H12B 5695   1.883   0.212   9.543  2.0348  0.4324 -0.3046
   44CHL1   C11 5696   1.962   0.054   9.669 -0.0259 -0.4477 -0.7315
   44CHL1  H11A 5697   2.001  -0.048   9.649  0.9532 -0.1561 -0.3725
   44CHL1  H11B 5698   2.040   0.126   9.702 -1.4983  0.2992  1.2826
   44CHL1    C9 5699   1.840   0.049   9.759 -0.2443  0.2915 -0.8331
   44CHL1    H9 5700   1.816   0.157   9.769  0.0068  0.3067 -0.3456
   44CHL1   C10 5701   1.860   0.006   9.909 -0.7467  0.3865 -0.1965
   44CHL1   C19 5702   1.934  -0.132   9.902  0.0795 -0.6177 -0.1706
   44CHL1  H19A 5703   1.971  -0.167  10.001 -0.7174  0.3742  0.5074
   44CHL1  H19B 5704   1.868  -0.198   9.842  0.1604 -0.0297 -0.9175
   44CHL1  H19C 5705   2.022  -0.127   9.835 -0.3823 -0.0189 -0.7478
   44CHL1    C1 5706   1.946   0.113   9.976  0.8046 -0.5171 -0.3509
   44CHL1   H1A 5707   2.044   0.114   9.923  0.9582 -2.4920 -0.1797
   44CHL1   H1B 5708   1.895   0.210   9.960 -0.7839 -0.8085  2.3750
   44CHL1    C2 5709   1.968   0.096  10.125 -0.0916  0.3292 -0.1864
   44CHL1   H2A 5710   2.025   0.179  10.171  1.2769 -1.4338  1.4875
   44CHL1   H2B 5711   2.033   0.007  10.142  1.5577  1.7475  1.2207
   44CHL1   C20 5712   1.808   0.065   9.200 -0.2428 -0.0222  0.3642
   44CHL1   H20 5713   1.792  -0.043   9.182 -0.2400  0.0042  0.1960
   44CHL1   C21 5714   1.960   0.095   9.193 -0.3320 -0.5009 -0.7467
   44CHL1  H21A 5715   2.008   0.026   9.266 -1.1548 -0.4594 -0.1530
   44CHL1  H21B 5716   1.979   0.202   9.214 -1.9415 -0.2741 -0.2603
   44CHL1  H21C 5717   2.012   0.068   9.098  3.3400  2.1350  0.2888
   44CHL1   C22 5718   1.734   0.118   9.077  0.2888 -0.1725  0.1892
   44CHL1  H22A 5719   1.628   0.130   9.106  0.2165  0.4258 -0.2995
   44CHL1  H22B 5720   1.755   0.225   9.053 -0.9611  0.0430  0.0044
   44CHL1   C23 5721   1.751   0.029   8.948 -0.1927 -0.2681 -0.2977
   44CHL1  H23A 5722   1.736  -0.079   8.968 -1.4569  0.2470  1.9473
   44CHL1  H23B 5723   1.669   0.051   8.876 -0.0346  1.0744 -0.0924
   44CHL1   C24 5724   1.878   0.059   8.858 -0.0399 -0.1618  0.3962
   44CHL1  H24A 5725   1.885   0.169   8.856 -1.0951 -0.0889  0.1962
   44CHL1  H24B 5726   1.969   0.011   8.901  0.0596 -2.2604 -1.9446
   44CHL1   C25 5727   1.863   0.018   8.706 -0.3215 -0.0200 -1.2441
   44CHL1   H25 5728   1.771   0.059   8.660 -0.8590 -0.3781 -0.5166
   44CHL1   C26 5729   1.987   0.067   8.632  0.0075 -0.2704  0.7612
   44CHL1  H26A 5730   1.962   0.158   8.573  1.9209 -1.1116 -1.5062
   44CHL1  H26B 5731   2.073   0.079   8.701 -0.5867 -1.1030  1.6651
   44CHL1  H26C 5732   2.027  -0.005   8.558  0.0260  0.4588  0.0378
   44CHL1   C27 5733   1.863  -0.136   8.682  0.0834 -0.2888 -0.6081
   44CHL1  H27A 5734   1.757  -0.169   8.682 -0.1081  0.1613 -3.0994
   44CHL1  H27B 5735   1.891  -0.161   8.578  1.4277  2.0717 -0.8952
   44CHL1  H27C 5736   1.924  -0.193   8.755 -1.4057 -1.0824  0.0701
   45CHL1    C3 5737   5.603   1.080  10.175  0.0074  0.0175 -0.9882
   45CHL1    H3 5738   5.712   1.083  10.155 -0.0428 -0.7847 -1.3900
   45CHL1    O3 5739   5.583   1.125  10.310  0.1217 -0.3153  0.2340
   45CHL1   H3' 5740   5.489   1.136  10.322  0.4865  1.6032  1.8069
   45CHL1    C4 5741   5.552   1.182  10.076 -0.0563  0.1232  0.7897
   45CHL1   H4A 5742   5.446   1.197  10.107 -0.3560 -2.7651  1.4886
   45CHL1   H4B 5743   5.612   1.275  10.078  1.8361 -0.9957 -0.7056
   45CHL1    C5 5744   5.560   1.141   9.928 -0.5228 -0.2359 -0.0400
   45CHL1    C6 5745   5.607   1.227   9.836  0.4106  0.6435 -0.4731
   45CHL1    H6 5746   5.636   1.331   9.859 -0.1457  1.3894 -2.9176
   45CHL1    C7 5747   5.631   1.195   9.692  0.3626  0.2067 -0.1180
   45CHL1   H7A 5748   5.576   1.275   9.639  0.1492 -1.0100 -1.8120
   45CHL1   H7B 5749   5.741   1.206   9.679  0.5784 -1.3434  0.2274
   45CHL1    C8 5750   5.577   1.056   9.647 -0.1196 -0.1431  0.2218
   45CHL1    H8 5751   5.651   1.009   9.580  0.3731 -0.9007  1.2733
   45CHL1   C14 5752   5.449   1.064   9.561 -0.6100 -0.2716  0.0237
   45CHL1   H14 5753   5.374   1.123   9.618 -1.1070 -0.5816 -0.3012
   45CHL1   C15 5754   5.475   1.147   9.437  0.4056 -0.1834  0.1534
   45CHL1  H15A 5755   5.398   1.224   9.413  0.7032 -0.3385 -1.4399
   45CHL1  H15B 5756   5.568   1.207   9.445  0.9901 -1.2513  1.7491
   45CHL1   C16 5757   5.513   1.053   9.323 -0.3478  0.9305  0.8552
   45CHL1  H16A 5758   5.460   1.074   9.227 -3.5945  0.6033  2.4213
   45CHL1  H16B 5759   5.621   1.073   9.307 -0.1898 -1.1518 -1.2235
   45CHL1   C17 5760   5.481   0.907   9.375  0.0918 -0.2748 -0.7136
   45CHL1   H17 5761   5.572   0.855   9.412 -0.8732 -0.4871  1.5347
   45CHL1   C13 5762   5.397   0.927   9.508  0.6775 -0.7157 -0.4580
   45CHL1   C18 5763   5.248   0.950   9.483  1.0860  0.0960  0.0490
   45CHL1  H18A 5764   5.203   0.849   9.475  1.8496 -0.1507 -1.4879
   45CHL1  H18B 5765   5.206   1.009   9.568  2.8723  1.5085  0.0024
   45CHL1  H18C 5766   5.215   1.004   9.392  0.6958 -1.3388 -0.6986
   45CHL1   C12 5767   5.401   0.825   9.620  0.2827 -0.3644  0.0842
   45CHL1  H12A 5768   5.308   0.834   9.681  0.4813  1.4960  0.1525
   45CHL1  H12B 5769   5.393   0.729   9.565  0.6008 -0.8070  0.7919
   45CHL1   C11 5770   5.526   0.823   9.709 -0.2758 -0.3742 -0.1103
   45CHL1  H11A 5771   5.506   0.759   9.798 -0.5853 -1.6559 -1.0729
   45CHL1  H11B 5772   5.607   0.775   9.651 -2.5084 -0.4178 -3.4992
   45CHL1    C9 5773   5.577   0.954   9.769  0.0741  0.1580  0.7899
   45CHL1    H9 5774   5.684   0.939   9.797  0.4032  0.0156 -0.4744
   45CHL1   C10 5775   5.517   0.999   9.904 -0.5215  0.3966 -0.1029
   45CHL1   C19 5776   5.369   0.997   9.889  0.3160  0.2099  0.1877
   45CHL1  H19A 5777   5.318   1.022   9.985  0.8587  0.9234  0.2991
   45CHL1  H19B 5778   5.334   1.065   9.808 -2.9464 -3.3391 -1.6886
   45CHL1  H19C 5779   5.325   0.897   9.873  0.2366  0.4293 -1.0353
   45CHL1    C1 5780   5.564   0.897  10.014  0.1513 -0.4796  0.9854
   45CHL1   H1A 5781   5.502   0.809   9.988 -1.7003  1.0355  0.0380
   45CHL1   H1B 5782   5.674   0.880  10.008 -0.2250 -3.1059  0.4078
   45CHL1    C2 5783   5.538   0.945  10.154  0.0073 -0.0736 -0.7347
   45CHL1   H2A 5784   5.576   0.883  10.238  2.8866  2.2933 -0.1019
   45CHL1   H2B 5785   5.429   0.963  10.156  0.0022  0.0088  1.6366
   45CHL1   C20 5786   5.426   0.815   9.260 -0.3323  0.2360  0.7098
   45CHL1   H20 5787   5.330   0.860   9.228 -0.9755  0.4690  2.8041
   45CHL1   C21 5788   5.390   0.671   9.299 -0.2582  0.3948  0.1817
   45CHL1  H21A 5789   5.469   0.645   9.372 -0.7182  0.3477  0.6737
   45CHL1  H21B 5790   5.389   0.602   9.212 -0.5487  1.4866 -0.6937
   45CHL1  H21C 5791   5.294   0.674   9.356 -0.6961  2.7739 -0.5872
   45CHL1   C22 5792   5.528   0.813   9.145  0.7349  0.3572  0.1926
   45CHL1  H22A 5793   5.550   0.919   9.118 -0.8070  1.5232  3.0664
   45CHL1  H22B 5794   5.618   0.773   9.196 -0.4980 -0.3862  1.8659
   45CHL1   C23 5795   5.490   0.732   9.015  0.1557  0.4206 -0.1279
   45CHL1  H23A 5796   5.499   0.628   9.052  0.0146  0.8057  1.0154
   45CHL1  H23B 5797   5.385   0.757   8.985  0.4429  2.4183  0.3677
   45CHL1   C24 5798   5.574   0.764   8.888 -0.0799 -0.4658 -1.0543
   45CHL1  H24A 5799   5.544   0.866   8.855 -1.2509  0.0841  1.4305
   45CHL1  H24B 5800   5.680   0.775   8.919 -0.4680 -1.0369  0.5675
   45CHL1   C25 5801   5.573   0.668   8.782  0.1917  0.3933 -0.2164
   45CHL1   H25 5802   5.606   0.570   8.823 -0.2410  0.2964 -0.0946
   45CHL1   C26 5803   5.429   0.640   8.730  0.1199 -0.2311  0.5481
   45CHL1  H26A 5804   5.346   0.646   8.803 -1.1079 -2.7572 -0.5307
   45CHL1  H26B 5805   5.407   0.714   8.650 -0.5106  1.0581  1.8631
   45CHL1  H26C 5806   5.430   0.543   8.677 -1.3608  1.0146 -1.9528
   45CHL1   C27 5807   5.663   0.709   8.664 -0.6162 -0.4211  0.6198
   45CHL1  H27A 5808   5.667   0.626   8.590  0.2131 -1.4569  1.7857
   45CHL1  H27B 5809   5.641   0.811   8.626  2.2127 -1.3759 -4.5070
   45CHL1  H27C 5810   5.765   0.719   8.706 -0.1975  1.1175 -0.6700
   46CHL1    C3 5811   1.073   4.459  10.175 -0.1225 -0.5311 -0.3472
   46CHL1    H3 5812   0.985   4.391  10.173  1.2312 -2.3766 -0.4619
   46CHL1    O3 5813   1.138   4.464  10.302 -0.4168 -0.2071  0.7217
   46CHL1   H3' 5814   1.126   4.551  10.340  2.1162  0.2648  0.6645
   46CHL1    C4 5815   1.163   4.379  10.072  0.0682 -0.0512  0.3634
   46CHL1   H4A 5816   1.262   4.429  10.078  0.4095 -0.7357  0.4766
   46CHL1   H4B 5817   1.186   4.277  10.109 -1.0199  0.0070  1.2363
   46CHL1    C5 5818   1.108   4.384   9.932  0.0917 -0.0119  0.6712
   46CHL1    C6 5819   1.072   4.279   9.860  0.0075  0.4254 -0.3206
   46CHL1    H6 5820   1.096   4.180   9.900 -1.0773 -0.3742 -1.5566
   46CHL1    C7 5821   1.027   4.284   9.716  0.6190  0.4602 -0.7024
   46CHL1   H7A 5822   1.079   4.199   9.666  1.0821 -0.1037  0.6984
   46CHL1   H7B 5823   0.919   4.261   9.710  0.8756 -1.6238  1.3499
   46CHL1    C8 5824   1.066   4.416   9.651 -0.4064 -0.5539  0.4471
   46CHL1    H8 5825   1.176   4.419   9.638 -0.6204 -1.0322 -1.8410
   46CHL1   C14 5826   0.995   4.429   9.516  0.1828  0.4411  0.4898
   46CHL1   H14 5827   0.886   4.443   9.534 -0.3271  0.2842 -2.0714
   46CHL1   C15 5828   0.997   4.309   9.433  0.0673  1.1157 -0.3129
   46CHL1  H15A 5829   1.096   4.259   9.421 -0.5730 -0.0686 -0.8459
   46CHL1  H15B 5830   0.920   4.234   9.461  2.5437 -1.5454 -0.2179
   46CHL1   C16 5831   0.953   4.363   9.293  0.3094  0.6183  0.0374
   46CHL1  H16A 5832   1.041   4.341   9.228  1.6207 -2.2435  2.5515
   46CHL1  H16B 5833   0.854   4.325   9.261  0.2431 -0.7606  1.7167
   46CHL1   C17 5834   0.952   4.521   9.300 -0.7624  0.0430 -0.3286
   46CHL1   H17 5835   0.849   4.553   9.327 -0.4325 -0.2422  1.4194
   46CHL1   C13 5836   1.035   4.553   9.434 -0.1334 -0.1889 -0.2233
   46CHL1   C18 5837   1.186   4.552   9.399 -0.1127 -0.1731 -0.0740
   46CHL1  H18A 5838   1.223   4.461   9.348  1.7082  1.2547 -1.4568
   46CHL1  H18B 5839   1.220   4.637   9.335 -0.1659 -0.0117  0.1114
   46CHL1  H18C 5840   1.248   4.563   9.491 -0.2801 -1.1750  0.1647
   46CHL1   C12 5841   0.987   4.672   9.515 -0.0931  0.0189  0.7933
   46CHL1  H12A 5842   1.015   4.760   9.453  0.7965 -1.3261 -0.7923
   46CHL1  H12B 5843   0.876   4.675   9.524 -0.2710 -0.6102 -0.8177
   46CHL1   C11 5844   1.047   4.666   9.654 -0.3442  0.1532 -0.2755
   46CHL1  H11A 5845   1.154   4.695   9.644 -0.4501  0.3360 -0.8787
   46CHL1  H11B 5846   1.013   4.754   9.713 -2.2881 -0.2386 -0.7674
   46CHL1    C9 5847   1.024   4.532   9.733  0.0124 -0.7969  0.5975
   46CHL1    H9 5848   0.915   4.531   9.753 -0.3874  3.1834 -0.4545
   46CHL1   C10 5849   1.089   4.532   9.885 -0.6035 -0.1081 -0.0645
   46CHL1   C19 5850   1.214   4.620   9.870 -0.3702 -0.0356 -0.1626
   46CHL1  H19A 5851   1.284   4.620   9.957  0.3006  0.9614 -0.6803
   46CHL1  H19B 5852   1.278   4.591   9.784  0.7365 -0.3785  0.7477
   46CHL1  H19C 5853   1.193   4.727   9.849 -0.6536  0.1799  1.1015
   46CHL1    C1 5854   0.987   4.608   9.973  0.2135  0.8765 -0.3553
   46CHL1   H1A 5855   0.973   4.714   9.942 -0.4929  0.9301  0.1219
   46CHL1   H1B 5856   0.890   4.553   9.970  0.5200  0.2406  0.6514
   46CHL1    C2 5857   1.038   4.601  10.117  0.0882 -0.5715 -0.1838
   46CHL1   H2A 5858   0.961   4.649  10.181 -1.1498 -3.1428  0.3935
   46CHL1   H2B 5859   1.126   4.668  10.120 -1.1746  1.2032 -1.0732
   46CHL1   C20 5860   0.984   4.594   9.166 -0.3236  0.0048 -0.2801
   46CHL1   H20 5861   1.091   4.586   9.138 -0.5941 -1.3050 -1.0489
   46CHL1   C21 5862   0.932   4.748   9.179 -0.3897  0.2629  0.1759
   46CHL1  H21A 5863   0.913   4.806   9.086 -0.6385  0.8353  0.5779
   46CHL1  H21B 5864   0.998   4.800   9.251  1.2473 -0.7896 -0.5134
   46CHL1  H21C 5865   0.826   4.743   9.213 -0.0952 -1.0125  0.9746
   46CHL1   C22 5866   0.920   4.525   9.043 -0.0399  0.3635  0.3739
   46CHL1  H22A 5867   0.960   4.423   9.027 -2.7591 -0.5649 -1.4511
   46CHL1  H22B 5868   0.813   4.502   9.066 -0.3295  1.5270  0.2556
   46CHL1   C23 5869   0.938   4.597   8.903 -0.4460  0.1065 -0.2653
   46CHL1  H23A 5870   0.879   4.691   8.903  0.4602  0.6935  0.8444
   46CHL1  H23B 5871   1.047   4.618   8.895 -0.1083 -1.9290 -1.9071
   46CHL1   C24 5872   0.898   4.514   8.782 -0.1699 -0.1771  0.0467
   46CHL1  H24A 5873   0.789   4.495   8.785  0.0808 -2.1937 -1.3605
   46CHL1  H24B 5874   0.908   4.575   8.689 -1.3363 -0.8256 -0.5212
   46CHL1   C25 5875   0.972   4.379   8.760  0.2417 -0.0127  0.1804
   46CHL1   H25 5876   0.945   4.312   8.844  0.0379 -0.2097 -0.0396
   46CHL1   C26 5877   0.917   4.307   8.625 -0.7939 -0.5703 -0.5892
   46CHL1  H26A 5878   0.930   4.386   8.548 -0.3656  1.7870  1.7700
   46CHL1  H26B 5879   0.983   4.220   8.602 -0.6244 -0.4492 -0.5579
   46CHL1  H26C 5880   0.813   4.269   8.638 -1.0640  0.2404 -0.3688
   46CHL1   C27 5881   1.130   4.383   8.757  0.0021  0.0274  0.1845
   46CHL1  H27A 5882   1.173   4.437   8.670 -0.3293  2.4305  1.4223
   46CHL1  H27B 5883   1.162   4.438   8.849 -1.3137  0.7840  0.2170
   46CHL1  H27C 5884   1.170   4.279   8.750  1.0263  0.4305 -0.1239
   47CHL1    C3 5885   1.574   6.309  10.028  0.2591 -0.7133  0.6959
   47CHL1    H3 5886   1.645   6.229   9.998 -0.1934 -0.9423  0.2319
   47CHL1    O3 5887   1.583   6.338  10.166 -0.5022 -0.6003 -0.0263
   47CHL1   H3' 5888   1.569   6.250  10.201 -1.6035 -0.0292  1.0493
   47CHL1    C4 5889   1.633   6.435   9.947 -0.0560 -0.2776  0.1566
   47CHL1   H4A 5890   1.581   6.528   9.978  1.1206  0.7870 -0.9305
   47CHL1   H4B 5891   1.738   6.450   9.980  0.2205  2.9743 -1.7893
   47CHL1    C5 5892   1.628   6.410   9.797  0.0691  0.4585  0.3981
   47CHL1    C6 5893   1.740   6.401   9.725 -0.1832 -0.2105  0.1042
   47CHL1    H6 5894   1.838   6.423   9.770  0.2774  1.3567 -1.5525
   47CHL1    C7 5895   1.750   6.367   9.577  1.0613 -0.3601 -1.0183
   47CHL1   H7A 5896   1.827   6.431   9.528  0.3888  0.4750 -1.0120
   47CHL1   H7B 5897   1.786   6.262   9.575 -0.0894 -0.7985  0.0629
   47CHL1    C8 5898   1.612   6.385   9.510  0.5332 -0.2076  0.4024
   47CHL1    H8 5899   1.602   6.496   9.502 -0.5705 -0.3038  0.3025
   47CHL1   C14 5900   1.612   6.325   9.373 -0.0742 -0.3171  0.3835
   47CHL1   H14 5901   1.641   6.221   9.400 -0.2976 -0.5347 -0.1905
   47CHL1   C15 5902   1.715   6.360   9.267 -0.5403  0.1032  0.3889
   47CHL1  H15A 5903   1.741   6.468   9.259 -0.6266  0.2020  1.3811
   47CHL1  H15B 5904   1.810   6.311   9.294 -1.3834 -1.5176  0.5462
   47CHL1   C16 5905   1.654   6.324   9.126  0.0670  0.0831 -0.1008
   47CHL1  H16A 5906   1.646   6.415   9.064 -0.3727  0.4696  0.5231
   47CHL1  H16B 5907   1.710   6.249   9.065 -1.1850 -0.5912 -0.4666
   47CHL1   C17 5908   1.508   6.266   9.165 -0.6456 -0.1511  0.3060
   47CHL1   H17 5909   1.526   6.165   9.206 -0.3000 -0.3378 -0.2840
   47CHL1   C13 5910   1.478   6.334   9.307 -0.0901 -0.2346 -0.2866
   47CHL1   C18 5911   1.444   6.486   9.287  0.2296 -0.3261 -0.7130
   47CHL1  H18A 5912   1.517   6.546   9.228  1.1719  0.7991  1.4709
   47CHL1  H18B 5913   1.347   6.491   9.232 -0.9621 -0.7594  1.2734
   47CHL1  H18C 5914   1.417   6.543   9.378 -3.3594  0.3876 -2.0519
   47CHL1   C12 5915   1.381   6.257   9.384  0.3168 -0.0850 -0.0352
   47CHL1  H12A 5916   1.279   6.248   9.339  0.1115 -0.8055  0.5655
   47CHL1  H12B 5917   1.411   6.151   9.397 -1.2263 -0.3628  1.9029
   47CHL1   C11 5918   1.363   6.313   9.524  0.1263  0.4230 -0.1713
   47CHL1  H11A 5919   1.309   6.410   9.515 -0.0489  0.3269 -0.1575
   47CHL1  H11B 5920   1.289   6.248   9.575  2.1614 -0.6692  1.5453
   47CHL1    C9 5921   1.499   6.321   9.595  0.1120  0.0553 -1.0068
   47CHL1    H9 5922   1.545   6.220   9.598 -0.0829 -0.0111  0.6359
   47CHL1   C10 5923   1.485   6.378   9.739 -0.3550 -0.9369 -0.7375
   47CHL1   C19 5924   1.394   6.509   9.743  0.1933 -0.1993 -0.4105
   47CHL1  H19A 5925   1.442   6.569   9.662 -2.9488 -0.9017 -3.0275
   47CHL1  H19B 5926   1.291   6.480   9.713  0.5061  0.0660 -1.8187
   47CHL1  H19C 5927   1.392   6.571   9.835 -0.6064  1.4115 -1.4669
   47CHL1    C1 5928   1.418   6.274   9.825 -1.2809  0.6059 -1.1310
   47CHL1   H1A 5929   1.309   6.262   9.806 -1.1547 -1.1658 -0.9370
   47CHL1   H1B 5930   1.456   6.170   9.819 -2.7573  0.0839 -2.1121
   47CHL1    C2 5931   1.423   6.292   9.989 -0.5545  0.7398  0.4566
   47CHL1   H2A 5932   1.368   6.204  10.028  1.6984 -0.5288  0.9749
   47CHL1   H2B 5933   1.366   6.382  10.021 -3.0530 -0.8795  0.8743
   47CHL1   C20 5934   1.405   6.260   9.054  0.2386  0.2426 -0.8481
   47CHL1   H20 5935   1.305   6.263   9.102  0.8129 -0.3013  0.4218
   47CHL1   C21 5936   1.414   6.133   8.968  0.1562  0.5916 -0.0786
   47CHL1  H21A 5937   1.508   6.113   8.912  0.5915 -0.7878  1.0858
   47CHL1  H21B 5938   1.330   6.133   8.896 -1.6241  1.9691  1.8912
   47CHL1  H21C 5939   1.409   6.044   9.034  1.2395  0.0620 -0.6728
   47CHL1   C22 5940   1.410   6.384   8.961 -0.2639  0.8943  0.7578
   47CHL1  H22A 5941   1.414   6.479   9.019 -1.4979  0.3572  1.7504
   47CHL1  H22B 5942   1.493   6.376   8.887  0.7677  0.5728  1.9150
   47CHL1   C23 5943   1.276   6.396   8.886  0.3312  0.6739 -0.1151
   47CHL1  H23A 5944   1.278   6.329   8.798  4.1661 -0.8899  0.9317
   47CHL1  H23B 5945   1.188   6.383   8.952  1.4850  0.3067  1.4155
   47CHL1   C24 5946   1.254   6.536   8.830 -0.0175  0.1416 -0.1879
   47CHL1  H24A 5947   1.256   6.610   8.913 -0.7042  1.4502 -1.3064
   47CHL1  H24B 5948   1.339   6.559   8.762  0.5350 -0.8609  0.1469
   47CHL1   C25 5949   1.120   6.551   8.755  0.1637  0.9858  0.4921
   47CHL1   H25 5950   1.044   6.505   8.823 -0.6203  1.3791 -0.0973
   47CHL1   C26 5951   1.088   6.696   8.730  0.7234 -0.1721 -0.0397
   47CHL1  H26A 5952   0.979   6.703   8.708  0.4646 -0.7876  0.9555
   47CHL1  H26B 5953   1.148   6.750   8.655  1.6142 -1.2213 -0.1058
   47CHL1  H26C 5954   1.090   6.749   8.828 -1.3099 -1.3085  0.6807
   47CHL1   C27 5955   1.123   6.481   8.621 -0.3225 -0.6813  0.3830
   47CHL1  H27A 5956   1.020   6.477   8.580 -0.3968  3.7801 -0.3819
   47CHL1  H27B 5957   1.196   6.539   8.560 -0.1219 -1.6478 -0.3210
   47CHL1  H27C 5958   1.163   6.378   8.631 -1.1109 -0.9547  0.7125
   48CHL1    C3 5959   2.404   2.320  10.176 -0.6683 -0.2939  0.3397
   48CHL1    H3 5960   2.301   2.277  10.180 -0.8425  0.0410 -0.4832
   48CHL1    O3 5961   2.436   2.377  10.301 -0.2669 -0.0063  0.3131
   48CHL1   H3' 5962   2.531   2.387  10.307 -0.3458  1.1015 -0.1373
   48CHL1    C4 5963   2.500   2.201  10.125  0.7424  0.8440 -0.5527
   48CHL1   H4A 5964   2.602   2.245  10.126  1.2812 -0.3519  0.3416
   48CHL1   H4B 5965   2.498   2.119  10.200  0.2163  0.2237 -1.2326
   48CHL1    C5 5966   2.460   2.152   9.983 -0.5801 -0.2151  1.0679
   48CHL1    C6 5967   2.446   2.020   9.948 -0.0852 -0.0788  0.8195
   48CHL1    H6 5968   2.447   1.943  10.027  0.3458 -1.7204 -0.7375
   48CHL1    C7 5969   2.418   1.967   9.808 -0.1328 -0.6123  0.7086
   48CHL1   H7A 5970   2.486   1.881   9.788  1.1003  0.8302 -1.7701
   48CHL1   H7B 5971   2.310   1.945   9.795 -0.4050  1.4964 -1.2914
   48CHL1    C8 5972   2.449   2.068   9.700 -0.3574 -0.4982  0.2656
   48CHL1    H8 5973   2.557   2.092   9.688 -0.2608 -0.8608  0.3847
   48CHL1   C14 5974   2.386   2.027   9.566  0.0853 -0.2217 -0.5627
   48CHL1   H14 5975   2.277   2.029   9.589 -0.0193 -0.5306 -1.0140
   48CHL1   C15 5976   2.405   1.884   9.519 -0.7793  0.1424  0.4916
   48CHL1  H15A 5977   2.507   1.850   9.545 -0.4527 -0.8279 -1.8190
   48CHL1  H15B 5978   2.335   1.816   9.572 -1.2568  1.1476  1.1908
   48CHL1   C16 5979   2.380   1.887   9.364  0.0722 -0.3195 -0.2412
   48CHL1  H16A 5980   2.474   1.855   9.315  0.6616  1.3912 -0.2807
   48CHL1  H16B 5981   2.297   1.816   9.343 -0.3391  0.5664 -1.7830
   48CHL1   C17 5982   2.360   2.039   9.324 -0.3645 -0.0303 -0.5636
   48CHL1   H17 5983   2.254   2.066   9.341 -0.1832  0.2751  0.1200
   48CHL1   C13 5984   2.419   2.119   9.451  0.1769 -0.0172  0.1908
   48CHL1   C18 5985   2.575   2.139   9.424 -0.2247 -0.1957 -0.3027
   48CHL1  H18A 5986   2.582   2.227   9.356 -2.6807 -0.5357 -1.0745
   48CHL1  H18B 5987   2.626   2.158   9.521  0.2419  0.1093 -0.6026
   48CHL1  H18C 5988   2.618   2.045   9.384  1.0424  1.0077 -1.9180
   48CHL1   C12 5989   2.357   2.253   9.482 -0.0722 -0.9177  0.4177
   48CHL1  H12A 5990   2.376   2.322   9.396 -1.4819 -2.1688 -0.9618
   48CHL1  H12B 5991   2.249   2.233   9.496 -0.4683  1.1917  0.6748
   48CHL1   C11 5992   2.405   2.309   9.613  0.2430  0.8699  0.0961
   48CHL1  H11A 5993   2.513   2.329   9.600  0.3675  1.1993  1.4509
   48CHL1  H11B 5994   2.351   2.405   9.622 -0.6545  0.5099 -1.1700
   48CHL1    C9 5995   2.396   2.208   9.737  0.5589 -0.7406  0.4840
   48CHL1    H9 5996   2.286   2.195   9.743  0.2633  2.0517  3.4329
   48CHL1   C10 5997   2.453   2.263   9.868  0.2352  0.5337 -0.2024
   48CHL1   C19 5998   2.598   2.302   9.845  0.2064  0.4361 -0.7172
   48CHL1  H19A 5999   2.637   2.353   9.935 -0.7259  1.6505 -0.9830
   48CHL1  H19B 6000   2.665   2.222   9.804 -1.7718 -1.2805 -0.7620
   48CHL1  H19C 6001   2.609   2.375   9.762  0.9958 -0.1598 -1.1565
   48CHL1    C1 6002   2.371   2.378   9.924 -1.2014 -0.0250  0.5472
   48CHL1   H1A 6003   2.376   2.462   9.852 -2.3591 -0.0460  0.4257
   48CHL1   H1B 6004   2.265   2.346   9.924 -1.5876  1.1703 -0.7309
   48CHL1    C2 6005   2.410   2.427  10.058 -0.7242  0.3043  0.4798
   48CHL1   H2A 6006   2.338   2.504  10.094 -0.3455 -0.1398  2.2723
   48CHL1   H2B 6007   2.505   2.485  10.064 -1.1857  1.0598  0.6606
   48CHL1   C20 6008   2.405   2.061   9.178 -0.3263 -0.2080 -0.2262
   48CHL1   H20 6009   2.512   2.031   9.173 -0.1401  0.5663 -1.0841
   48CHL1   C21 6010   2.386   2.214   9.145 -0.6937  0.7343  0.0059
   48CHL1  H21A 6011   2.279   2.234   9.168 -0.6917 -0.1047  0.7700
   48CHL1  H21B 6012   2.423   2.226   9.041  2.4047 -0.3971  0.8513
   48CHL1  H21C 6013   2.454   2.272   9.212  1.1632 -1.6079  0.2744
   48CHL1   C22 6014   2.329   1.965   9.087  0.5555  0.0070 -0.3311
   48CHL1  H22A 6015   2.353   1.860   9.115 -1.2583 -0.1710  0.7585
   48CHL1  H22B 6016   2.219   1.974   9.100  0.1362  1.6715 -3.9978
   48CHL1   C23 6017   2.365   1.986   8.940 -0.1440  0.7170 -0.2358
   48CHL1  H23A 6018   2.342   2.083   8.889  1.4933  0.5013 -1.4656
   48CHL1  H23B 6019   2.476   1.990   8.941 -0.1088 -0.1462  0.1603
   48CHL1   C24 6020   2.307   1.869   8.856  0.6084  0.4385  0.0628
   48CHL1  H24A 6021   2.315   1.770   8.907  1.0930  0.5090  0.1266
   48CHL1  H24B 6022   2.199   1.894   8.855  0.7321  1.0823 -2.3399
   48CHL1   C25 6023   2.364   1.863   8.712 -0.5154 -0.4875 -0.2296
   48CHL1   H25 6024   2.387   1.967   8.679 -1.1616 -0.2830 -0.0425
   48CHL1   C26 6025   2.498   1.793   8.721 -0.5767 -0.2566  0.2109
   48CHL1  H26A 6026   2.562   1.804   8.631 -1.2177 -0.3536 -0.2652
   48CHL1  H26B 6027   2.555   1.815   8.813 -0.7916  0.4662  0.1790
   48CHL1  H26C 6028   2.471   1.685   8.720  1.0125 -0.7010 -1.6227
   48CHL1   C27 6029   2.274   1.799   8.611  0.4620 -0.2043  0.8124
   48CHL1  H27A 6030   2.257   1.693   8.638 -0.9947 -0.0090  0.7256
   48CHL1  H27B 6031   2.186   1.866   8.605  0.7423  0.0491 -1.6209
   48CHL1  H27C 6032   2.326   1.786   8.513 -0.0706  0.3103  0.4529
   49CHL1    C3 6033   1.933   3.176  10.049  0.6897  0.9255 -0.1833
   49CHL1    H3 6034   1.938   3.065  10.060  0.2362  1.1650  3.4413
   49CHL1    O3 6035   1.927   3.220  10.184  0.2318 -0.4160  0.0015
   49CHL1   H3' 6036   1.973   3.305  10.183  0.0222 -0.2944 -1.3428
   49CHL1    C4 6037   2.051   3.233   9.980  0.2532 -0.0531 -0.4048
   49CHL1   H4A 6038   2.051   3.345   9.978 -0.5873  0.1571  3.3139
   49CHL1   H4B 6039   2.140   3.198  10.037  0.8715  2.3246  0.2331
   49CHL1    C5 6040   2.052   3.198   9.831  1.0470 -0.0199 -0.4774
   49CHL1    C6 6041   2.159   3.123   9.784 -0.1671 -0.7016 -0.0348
   49CHL1    H6 6042   2.240   3.099   9.854 -0.8584 -0.7079  0.7790
   49CHL1    C7 6043   2.176   3.075   9.644  0.2486  0.1506  0.1325
   49CHL1   H7A 6044   2.277   3.097   9.604 -0.2792  1.6713 -0.4537
   49CHL1   H7B 6045   2.160   2.965   9.648  2.1503 -0.1240  1.4137
   49CHL1    C8 6046   2.070   3.150   9.548 -0.5607 -0.3524 -1.0079
   49CHL1    H8 6047   2.113   3.248   9.518  1.9434 -1.7209 -2.1786
   49CHL1   C14 6048   2.062   3.077   9.414 -0.1474  0.0770 -0.1193
   49CHL1   H14 6049   2.016   2.979   9.440 -1.7168  1.1258  1.1718
   49CHL1   C15 6050   2.195   3.047   9.340 -0.5871  0.0533  0.5406
   49CHL1  H15A 6051   2.259   3.136   9.358  1.0472 -0.5588 -1.8407
   49CHL1  H15B 6052   2.257   2.961   9.374  0.9409  0.8490 -0.1456
   49CHL1   C16 6053   2.161   3.024   9.197 -0.1890 -0.2911  0.5331
   49CHL1  H16A 6054   2.216   3.096   9.133  0.6570 -0.8843  0.5822
   49CHL1  H16B 6055   2.178   2.917   9.170  0.0261  0.1080 -1.0072
   49CHL1   C17 6056   2.001   3.042   9.190 -0.4247  0.4286 -0.4844
   49CHL1   H17 6057   1.958   2.941   9.209 -1.6292  0.5945 -2.1733
   49CHL1   C13 6058   1.961   3.133   9.312 -0.2412  0.9473  0.3366
   49CHL1   C18 6059   1.996   3.289   9.266 -0.2941 -1.1417 -0.2432
   49CHL1  H18A 6060   1.921   3.321   9.191  1.2659 -0.3559 -1.5244
   49CHL1  H18B 6061   1.997   3.363   9.349  0.1457  0.9769 -2.0427
   49CHL1  H18C 6062   2.098   3.286   9.222 -0.0683 -1.7684  0.3053
   49CHL1   C12 6063   1.819   3.127   9.380  0.0252  0.0316  0.2104
   49CHL1  H12A 6064   1.748   3.187   9.320  1.8764  0.7825 -1.3276
   49CHL1  H12B 6065   1.771   3.028   9.397 -0.0616 -0.0102 -0.2878
   49CHL1   C11 6066   1.824   3.199   9.508 -0.6375 -0.3107 -0.1417
   49CHL1  H11A 6067   1.850   3.304   9.485  2.9247 -0.5009  2.3108
   49CHL1  H11B 6068   1.728   3.189   9.563 -1.8340  0.5433 -1.9746
   49CHL1    C9 6069   1.936   3.156   9.606 -0.4876 -0.4906  0.5649
   49CHL1    H9 6070   1.906   3.049   9.613 -2.1056 -0.2105 -1.2031
   49CHL1   C10 6071   1.932   3.231   9.745 -0.4843  0.1203 -0.2453
   49CHL1   C19 6072   1.928   3.382   9.719  1.5618 -0.4638 -0.0696
   49CHL1  H19A 6073   1.935   3.435   9.816 -0.4696  2.9498 -1.5824
   49CHL1  H19B 6074   2.017   3.414   9.661  2.2482 -0.4514  0.9659
   49CHL1  H19C 6075   1.830   3.412   9.674  0.9793 -1.3976  0.5391
   49CHL1    C1 6076   1.805   3.188   9.827  1.3216  0.3556  0.2587
   49CHL1   H1A 6077   1.711   3.218   9.777  1.2516 -0.0698  0.1303
   49CHL1   H1B 6078   1.796   3.078   9.828  0.6462  0.3942  1.6598
   49CHL1    C2 6079   1.799   3.218   9.978 -0.5128  0.1773  0.7365
   49CHL1   H2A 6080   1.721   3.152  10.021  0.6680 -2.7475 -1.2288
   49CHL1   H2B 6081   1.783   3.327   9.986  1.7060  0.7702 -1.5309
   49CHL1   C20 6082   1.948   3.066   9.052 -0.5254 -0.6446  0.9524
   49CHL1   H20 6083   1.987   3.165   9.019 -0.7071 -1.1828 -0.9791
   49CHL1   C21 6084   1.795   3.052   9.052  0.2635  1.1449 -0.1624
   49CHL1  H21A 6085   1.769   2.945   9.066  1.1286  1.2924  3.4632
   49CHL1  H21B 6086   1.756   3.065   8.949  1.3031 -1.4732 -0.9684
   49CHL1  H21C 6087   1.737   3.106   9.130 -2.2329  0.4669 -1.4509
   49CHL1   C22 6088   2.002   2.957   8.953 -0.5067 -0.0922  0.5974
   49CHL1  H22A 6089   2.113   2.955   8.959 -0.5735 -0.9046  2.2230
   49CHL1  H22B 6090   1.979   2.857   8.997 -2.0823  0.3480  0.8531
   49CHL1   C23 6091   1.952   2.968   8.810  0.2108  0.1802  0.7165
   49CHL1  H23A 6092   1.844   2.943   8.805 -0.5185  2.8918  1.3544
   49CHL1  H23B 6093   1.952   3.076   8.785  0.7862  0.3675  1.4757
   49CHL1   C24 6094   2.032   2.885   8.716 -0.1846  0.4779 -0.6351
   49CHL1  H24A 6095   2.142   2.895   8.732  0.3425 -0.1644 -3.3229
   49CHL1  H24B 6096   2.010   2.777   8.732  2.3268 -0.0676 -0.3269
   49CHL1   C25 6097   2.006   2.903   8.567  0.3666 -0.1886  0.6876
   49CHL1   H25 6098   1.897   2.891   8.553  0.3809  0.3106  0.0809
   49CHL1   C26 6099   2.043   3.043   8.515  0.1026 -0.3808 -0.5242
   49CHL1  H26A 6100   1.959   3.110   8.544 -0.9391 -0.8930 -2.2771
   49CHL1  H26B 6101   2.136   3.095   8.549  0.7050 -1.4908 -0.4219
   49CHL1  H26C 6102   2.045   3.038   8.404 -0.7506 -3.1756 -0.4909
   49CHL1   C27 6103   2.082   2.799   8.482  0.4378  0.7064  0.4038
   49CHL1  H27A 6104   2.191   2.807   8.502  0.4515  1.3386  0.1185
   49CHL1  H27B 6105   2.059   2.697   8.519  2.1685  0.4288  0.8118
   49CHL1  H27C 6106   2.061   2.805   8.373  1.5906  1.5144  0.2001
   50CHL1    C3 6107   4.150   5.613  10.006 -0.4447  0.2637  0.0798
   50CHL1    H3 6108   4.094   5.709  10.019 -0.6345  0.0114  1.2852
   50CHL1    O3 6109   4.199   5.580  10.136  0.0830 -0.1990  0.1003
   50CHL1   H3' 6110   4.130   5.577  10.203 -1.5594  1.4896 -1.4022
   50CHL1    C4 6111   4.060   5.505   9.947 -0.3851 -0.8826  0.4938
   50CHL1   H4A 6112   4.118   5.411   9.951  1.6649  0.3518  1.1726
   50CHL1   H4B 6113   3.968   5.484  10.005 -0.9678 -2.8778 -1.0713
   50CHL1    C5 6114   4.012   5.553   9.808  0.4558  0.1632 -0.2044
   50CHL1    C6 6115   3.882   5.559   9.775  0.3206 -0.3324  0.6067
   50CHL1    H6 6116   3.804   5.516   9.840 -2.0973  2.6251 -0.1609
   50CHL1    C7 6117   3.836   5.586   9.641 -0.3160  0.6336 -0.0025
   50CHL1   H7A 6118   3.748   5.526   9.610  0.4786 -0.6015  0.0741
   50CHL1   H7B 6119   3.800   5.692   9.642 -0.2190  0.6718  1.5347
   50CHL1    C8 6120   3.945   5.566   9.526 -0.6923  0.4505  1.0349
   50CHL1    H8 6121   3.965   5.458   9.515  2.4531  0.9524  1.0536
   50CHL1   C14 6122   3.893   5.626   9.394  0.0982  0.4943 -0.5029
   50CHL1   H14 6123   3.883   5.736   9.405 -0.5837  0.5008 -1.1172
   50CHL1   C15 6124   3.765   5.581   9.343  0.2482  0.4373  0.5199
   50CHL1  H15A 6125   3.752   5.471   9.354  2.3882 -0.0527 -1.2313
   50CHL1  H15B 6126   3.683   5.628   9.402 -0.2291  1.3548 -0.8099
   50CHL1   C16 6127   3.772   5.624   9.192  0.1054 -0.3828  0.1817
   50CHL1  H16A 6128   3.744   5.540   9.125  0.0446  0.6729 -1.1351
   50CHL1  H16B 6129   3.698   5.699   9.156 -1.5498 -1.8445  0.4070
   50CHL1   C17 6130   3.919   5.674   9.163  0.4539  0.2114 -0.3071
   50CHL1   H17 6131   3.917   5.781   9.195  1.4783  0.1224  0.0815
   50CHL1   C13 6132   3.995   5.609   9.279  0.2013 -1.0380 -0.2235
   50CHL1   C18 6133   4.029   5.466   9.237  0.4961  0.2693  0.6644
   50CHL1  H18A 6134   4.039   5.404   9.328 -0.7297  2.1080  2.1254
   50CHL1  H18B 6135   3.945   5.427   9.176 -0.0765  0.2399  1.4638
   50CHL1  H18C 6136   4.119   5.473   9.171 -0.2868 -2.8380 -0.9596
   50CHL1   C12 6137   4.119   5.692   9.325 -0.0204 -0.2877  0.1674
   50CHL1  H12A 6138   4.201   5.701   9.251 -0.0826 -1.2854 -0.0402
   50CHL1  H12B 6139   4.080   5.795   9.341  0.3200 -0.4252  2.0057
   50CHL1   C11 6140   4.176   5.631   9.457  0.3090  0.0805  0.2696
   50CHL1  H11A 6141   4.216   5.530   9.434 -1.9320 -0.7477 -0.2765
   50CHL1  H11B 6142   4.254   5.701   9.493  1.2807 -1.0620  0.4551
   50CHL1    C9 6143   4.074   5.631   9.573 -0.1596 -0.0319 -0.3084
   50CHL1    H9 6144   4.051   5.737   9.596 -2.2645 -0.4479 -0.2621
   50CHL1   C10 6145   4.121   5.586   9.711 -0.4145 -0.3617  0.0024
   50CHL1   C19 6146   4.187   5.449   9.689 -0.6755 -0.1225 -0.0666
   50CHL1  H19A 6147   4.286   5.474   9.646  0.5709 -1.5938  1.8151
   50CHL1  H19B 6148   4.210   5.387   9.778  0.1686  0.4672  0.1401
   50CHL1  H19C 6149   4.120   5.388   9.625 -0.2854  0.1600 -0.7568
   50CHL1    C1 6150   4.226   5.678   9.772  0.1307  0.2440 -0.1871
   50CHL1   H1A 6151   4.324   5.675   9.719  0.4173 -2.0103  0.3486
   50CHL1   H1B 6152   4.192   5.783   9.777 -0.3213  0.1441 -0.9662
   50CHL1    C2 6153   4.273   5.642   9.915  0.2811  0.5894 -0.4357
   50CHL1   H2A 6154   4.337   5.725   9.953 -0.2782  1.8239 -2.0434
   50CHL1   H2B 6155   4.335   5.551   9.908  0.7447  0.8101  0.5865
   50CHL1   C20 6156   3.953   5.657   9.015 -0.0015 -0.3386  0.4896
   50CHL1   H20 6157   3.939   5.550   8.990  2.3220 -0.8895  1.2936
   50CHL1   C21 6158   4.103   5.688   9.005  0.4083 -0.2991  0.2035
   50CHL1  H21A 6159   4.175   5.623   9.060 -0.1669 -0.7136  0.4811
   50CHL1  H21B 6160   4.110   5.787   9.053  0.9343 -1.1838  2.0334
   50CHL1  H21C 6161   4.126   5.682   8.896 -0.5433 -0.5821  0.0037
   50CHL1   C22 6162   3.872   5.740   8.916  0.3049 -0.5047  0.6169
   50CHL1  H22A 6163   3.764   5.737   8.940  0.0140  0.8378 -0.4140
   50CHL1  H22B 6164   3.906   5.845   8.932  1.2182 -0.7838  0.6007
   50CHL1   C23 6165   3.889   5.715   8.766  0.4493 -0.5044  0.3322
   50CHL1  H23A 6166   3.996   5.740   8.749  0.1693  2.7213  2.3407
   50CHL1  H23B 6167   3.877   5.608   8.741  1.4602 -0.4587 -0.3913
   50CHL1   C24 6168   3.791   5.801   8.688  0.0777  0.7063  0.1890
   50CHL1  H24A 6169   3.686   5.780   8.717  0.0312 -1.1570 -1.1889
   50CHL1  H24B 6170   3.805   5.908   8.715 -1.1383  0.1666  3.4979
   50CHL1   C25 6171   3.809   5.777   8.532 -0.4933  0.4436  0.0743
   50CHL1   H25 6172   3.919   5.760   8.523 -0.5707 -0.6033  0.8702
   50CHL1   C26 6173   3.739   5.659   8.474  0.6472  0.4950  0.0922
   50CHL1  H26A 6174   3.631   5.666   8.501  1.3157  2.5832  2.6066
   50CHL1  H26B 6175   3.740   5.654   8.363  1.4497 -0.8484  0.1355
   50CHL1  H26C 6176   3.772   5.558   8.508 -1.6267 -0.0772  0.8051
   50CHL1   C27 6177   3.761   5.899   8.452 -1.0981 -0.1692  0.8192
   50CHL1  H27A 6178   3.822   5.988   8.477  0.8491 -1.4040  0.6846
   50CHL1  H27B 6179   3.769   5.877   8.344  1.0856 -1.4212  1.1733
   50CHL1  H27C 6180   3.654   5.923   8.469 -2.0407 -0.3575 -3.6470
   51CHL1    C3 6181   5.313   1.802  10.414 -0.0984  0.0135 -0.8973
   51CHL1    H3 6182   5.214   1.752  10.425  0.5973 -1.3258 -0.4963
   51CHL1    O3 6183   5.362   1.838  10.543  0.0626 -0.7283  0.9766
   51CHL1   H3' 6184   5.413   1.919  10.544  1.0547 -1.3091  2.8996
   51CHL1    C4 6185   5.416   1.710  10.341 -0.1883 -0.0479 -0.3978
   51CHL1   H4A 6186   5.516   1.759  10.345 -0.5207  0.7172 -1.0560
   51CHL1   H4B 6187   5.419   1.614  10.395  1.3440 -0.0003 -0.3495
   51CHL1    C5 6188   5.392   1.680  10.199 -0.8570 -0.5210  0.5700
   51CHL1    C6 6189   5.393   1.550  10.147  0.1265  0.1383 -0.3062
   51CHL1    H6 6190   5.411   1.466  10.216 -1.0460  1.3060  1.5196
   51CHL1    C7 6191   5.375   1.511  10.006  0.2146  0.0055 -0.0978
   51CHL1   H7A 6192   5.457   1.446   9.970 -0.7448 -0.8954 -0.6767
   51CHL1   H7B 6193   5.276   1.461  10.000  1.2008 -2.1539  0.5947
   51CHL1    C8 6194   5.368   1.637   9.908  0.3308  0.5749 -0.9053
   51CHL1    H8 6195   5.472   1.668   9.882  0.3102 -0.0935 -1.8609
   51CHL1   C14 6196   5.291   1.599   9.780 -0.9885 -0.9622  0.5828
   51CHL1   H14 6197   5.187   1.570   9.808 -0.1247 -3.4941  1.4461
   51CHL1   C15 6198   5.345   1.486   9.691 -0.6574  0.2607 -0.6072
   51CHL1  H15A 6199   5.456   1.485   9.684 -0.6121 -0.9646 -0.0507
   51CHL1  H15B 6200   5.319   1.390   9.741 -0.1071  0.6596  0.4743
   51CHL1   C16 6201   5.284   1.508   9.554 -0.7308  0.9960 -0.9794
   51CHL1  H16A 6202   5.366   1.517   9.478 -0.0278 -0.3606 -0.4198
   51CHL1  H16B 6203   5.228   1.417   9.525  0.9734  0.4107 -2.7054
   51CHL1   C17 6204   5.210   1.648   9.564  0.1599  0.0918 -0.7609
   51CHL1   H17 6205   5.106   1.623   9.592 -0.0985  1.7496 -0.1204
   51CHL1   C13 6206   5.274   1.723   9.684  0.3853  0.9809 -0.3295
   51CHL1   C18 6207   5.406   1.788   9.638  0.4307  0.6096  0.2069
   51CHL1  H18A 6208   5.379   1.878   9.579 -0.2835 -0.2577 -0.8391
   51CHL1  H18B 6209   5.464   1.819   9.728 -0.8046 -1.0675  1.6597
   51CHL1  H18C 6210   5.464   1.721   9.570  1.3118 -0.5672  2.0267
   51CHL1   C12 6211   5.187   1.829   9.754  0.0263  0.2993  0.2443
   51CHL1  H12A 6212   5.171   1.913   9.683 -0.8020 -1.3714 -1.6268
   51CHL1  H12B 6213   5.089   1.781   9.772  0.2762  0.4997  2.5257
   51CHL1   C11 6214   5.254   1.880   9.880 -0.1124  0.1232 -0.6718
   51CHL1  H11A 6215   5.345   1.936   9.849  0.8261 -2.1553 -2.3038
   51CHL1  H11B 6216   5.189   1.949   9.938  0.7036 -0.2504  0.7509
   51CHL1    C9 6217   5.292   1.755   9.976 -0.6652 -0.4393 -0.4748
   51CHL1    H9 6218   5.192   1.712   9.996 -1.7336  1.2691 -1.8622
   51CHL1   C10 6219   5.348   1.803  10.113  0.4067  0.2051 -0.3858
   51CHL1   C19 6220   5.479   1.893  10.076 -0.4210  0.3376 -0.4540
   51CHL1  H19A 6221   5.454   1.982  10.015  0.0860  2.9258  2.8500
   51CHL1  H19B 6222   5.534   1.914  10.170  0.5277 -0.9608 -0.6922
   51CHL1  H19C 6223   5.545   1.829  10.014 -0.0128  0.3151 -0.0070
   51CHL1    C1 6224   5.246   1.891  10.186 -0.3149  0.0769  0.4349
   51CHL1   H1A 6225   5.236   1.983  10.125 -2.0640 -0.3483 -0.0003
   51CHL1   H1B 6226   5.150   1.834  10.189 -1.1266  1.4427  1.7674
   51CHL1    C2 6227   5.297   1.934  10.331  0.0167  0.5737 -0.1629
   51CHL1   H2A 6228   5.228   2.002  10.385  0.4993 -0.0044  1.2283
   51CHL1   H2B 6229   5.396   1.983  10.323  0.5740 -0.3605  0.7891
   51CHL1   C20 6230   5.203   1.714   9.428 -0.0292 -0.2005 -0.2204
   51CHL1   H20 6231   5.305   1.742   9.393 -0.6678  0.4758 -1.6537
   51CHL1   C21 6232   5.117   1.842   9.431  0.8708  0.2167 -0.2395
   51CHL1  H21A 6233   5.068   1.877   9.338 -1.9642 -0.4458  0.9138
   51CHL1  H21B 6234   5.178   1.924   9.476 -0.2218  1.6365 -1.2492
   51CHL1  H21C 6235   5.034   1.831   9.504  3.2100  0.7717  2.7260
   51CHL1   C22 6236   5.130   1.613   9.328  0.6396 -0.3341  0.3722
   51CHL1  H22A 6237   5.163   1.509   9.348 -2.0929 -0.9746  1.9824
   51CHL1  H22B 6238   5.021   1.624   9.341  0.9277  2.0385  1.2856
   51CHL1   C23 6239   5.148   1.663   9.183 -0.6522  0.3888  0.0163
   51CHL1  H23A 6240   5.067   1.726   9.139  0.4730  0.6039 -1.8379
   51CHL1  H23B 6241   5.234   1.732   9.190 -0.0747 -0.2309 -0.8640
   51CHL1   C24 6242   5.172   1.546   9.085 -0.2527  0.5213  0.6157
   51CHL1  H24A 6243   5.252   1.478   9.122  0.8390  0.3451 -1.8715
   51CHL1  H24B 6244   5.077   1.489   9.092  0.2936 -0.5155 -0.1492
   51CHL1   C25 6245   5.207   1.600   8.948  0.3140  0.4525 -0.0934
   51CHL1   H25 6246   5.119   1.662   8.920 -0.3506 -1.3574 -2.2432
   51CHL1   C26 6247   5.333   1.688   8.941  0.1180 -0.1956 -0.4563
   51CHL1  H26A 6248   5.414   1.625   8.984 -0.4182  0.1879  1.1890
   51CHL1  H26B 6249   5.357   1.718   8.837 -0.4122  0.4142 -0.4106
   51CHL1  H26C 6250   5.335   1.779   9.005  0.8858  0.6254 -1.6006
   51CHL1   C27 6251   5.240   1.491   8.845  0.4447 -0.3194  0.1603
   51CHL1  H27A 6252   5.146   1.453   8.799 -0.8266  1.2820  1.3149
   51CHL1  H27B 6253   5.309   1.529   8.767 -2.0763  5.3263  0.2044
   51CHL1  H27C 6254   5.277   1.412   8.913  0.8645 -1.3479 -1.2345
   52CHL1    C3 6255   2.015   4.966  10.185 -0.6815 -0.8222  0.5032
   52CHL1    H3 6256   1.934   5.042  10.191  1.6859  2.2541 -2.5390
   52CHL1    O3 6257   2.055   4.942  10.322  0.1034  0.2481  0.6369
   52CHL1   H3' 6258   2.124   4.875  10.325  0.0822  0.2520  1.5474
   52CHL1    C4 6259   1.960   4.840  10.117  1.0943  0.0014 -0.1062
   52CHL1   H4A 6260   2.024   4.751  10.133 -0.9552 -1.3446  1.0934
   52CHL1   H4B 6261   1.873   4.813  10.181  0.7439 -3.5209 -1.8743
   52CHL1    C5 6262   1.916   4.867   9.972 -0.0653 -0.4529 -0.1845
   52CHL1    C6 6263   1.783   4.850   9.942  0.6499  0.1936 -0.1575
   52CHL1    H6 6264   1.714   4.808  10.018  0.5012  1.0783  0.2137
   52CHL1    C7 6265   1.725   4.864   9.808  0.1867  0.1265  0.4738
   52CHL1   H7A 6266   1.666   4.776   9.777  1.8426 -0.6425 -0.6588
   52CHL1   H7B 6267   1.664   4.956   9.802  1.2803  0.7848 -1.5792
   52CHL1    C8 6268   1.835   4.886   9.703 -0.2356  0.0670  0.1650
   52CHL1    H8 6269   1.856   4.781   9.674 -0.3421 -0.6005  2.3604
   52CHL1   C14 6270   1.770   4.951   9.581 -0.9433  0.6029 -0.4580
   52CHL1   H14 6271   1.745   5.052   9.620  0.7587  1.1231 -0.6475
   52CHL1   C15 6272   1.639   4.891   9.527  0.5786  0.4422  0.9144
   52CHL1  H15A 6273   1.653   4.784   9.503 -2.4789  0.1613 -0.0824
   52CHL1  H15B 6274   1.557   4.891   9.603 -0.8819 -0.4217 -0.5896
   52CHL1   C16 6275   1.626   4.979   9.396  0.3490 -0.5329  0.2541
   52CHL1  H16A 6276   1.599   4.913   9.311  1.1785 -1.2803  0.5644
   52CHL1  H16B 6277   1.550   5.059   9.411  0.5537 -0.5571  1.5418
   52CHL1   C17 6278   1.762   5.055   9.368 -0.1356 -0.3713 -0.2199
   52CHL1   H17 6279   1.753   5.158   9.408  1.8682  0.3874 -1.5795
   52CHL1   C13 6280   1.859   4.985   9.460  0.0136  0.5793  0.5478
   52CHL1   C18 6281   1.903   4.856   9.396  0.0731  0.7762 -0.3204
   52CHL1  H18A 6282   1.820   4.805   9.343 -0.3861  0.1744  0.9338
   52CHL1  H18B 6283   1.992   4.853   9.330  1.1455 -0.7805  1.0916
   52CHL1  H18C 6284   1.927   4.776   9.470  1.4314  0.7252 -0.7882
   52CHL1   C12 6285   1.980   5.068   9.513 -0.0157  0.4186 -0.5444
   52CHL1  H12A 6286   2.048   5.091   9.428  0.8795  1.4325  0.4147
   52CHL1  H12B 6287   1.948   5.167   9.554 -0.5970  0.2686 -0.6223
   52CHL1   C11 6288   2.053   4.996   9.635 -0.4747  0.0522 -0.2329
   52CHL1  H11A 6289   2.093   4.899   9.599  1.7384  0.6082  0.6205
   52CHL1  H11B 6290   2.134   5.059   9.677 -1.5869  2.2517 -1.2335
   52CHL1    C9 6291   1.951   4.973   9.751  0.9646 -0.0682  0.7277
   52CHL1    H9 6292   1.907   5.074   9.766  1.3304  0.3848 -1.0196
   52CHL1   C10 6293   2.020   4.929   9.879  0.7418 -0.2758  0.1532
   52CHL1   C19 6294   2.132   4.832   9.836  0.1873  0.2438  0.2932
   52CHL1  H19A 6295   2.102   4.757   9.760  0.6309  0.1792  0.1763
   52CHL1  H19B 6296   2.216   4.886   9.788  0.2191  0.7509  0.9081
   52CHL1  H19C 6297   2.176   4.793   9.930 -0.3359  0.6420  0.7137
   52CHL1    C1 6298   2.087   5.046   9.951 -0.0151 -0.8748 -0.0867
   52CHL1   H1A 6299   2.170   5.082   9.886 -1.7493  2.8691 -0.4883
   52CHL1   H1B 6300   2.014   5.129   9.956  1.9610  1.1040 -1.9028
   52CHL1    C2 6301   2.133   5.017  10.096  0.4767 -0.3887 -0.5397
   52CHL1   H2A 6302   2.170   5.111  10.142 -5.4284  1.2369  1.8241
   52CHL1   H2B 6303   2.212   4.939  10.099  0.5289 -0.3066  0.6173
   52CHL1   C20 6304   1.792   5.069   9.222  0.1801  0.2843  0.2017
   52CHL1   H20 6305   1.790   4.970   9.172  0.4227  0.3320  0.0926
   52CHL1   C21 6306   1.930   5.129   9.180 -0.0886  0.1580  0.0228
   52CHL1  H21A 6307   1.934   5.134   9.069  2.3311  1.8920  0.1199
   52CHL1  H21B 6308   2.019   5.078   9.221  0.3701  0.2506 -0.8288
   52CHL1  H21C 6309   1.931   5.233   9.218 -0.0205  0.8751 -1.8282
   52CHL1   C22 6310   1.684   5.160   9.154  0.6236 -0.1000 -0.1690
   52CHL1  H22A 6311   1.583   5.123   9.179  0.4994 -0.1027 -0.6675
   52CHL1  H22B 6312   1.686   5.267   9.182 -1.4068  0.0833 -0.6223
   52CHL1   C23 6313   1.677   5.163   9.004  0.2265 -0.2528 -0.1343
   52CHL1  H23A 6314   1.771   5.205   8.962  0.3852  0.3636  0.8106
   52CHL1  H23B 6315   1.665   5.060   8.964 -0.5469 -0.3289  0.2750
   52CHL1   C24 6316   1.563   5.255   8.965 -0.2172 -0.8023 -0.1165
   52CHL1  H24A 6317   1.468   5.212   9.004  0.7328 -0.6332  2.5293
   52CHL1  H24B 6318   1.577   5.357   9.007 -0.8899 -0.6756 -0.1899
   52CHL1   C25 6319   1.566   5.260   8.805  0.1476  0.0095  0.2851
   52CHL1   H25 6320   1.634   5.180   8.768 -1.4692 -0.7892 -1.0690
   52CHL1   C26 6321   1.418   5.246   8.754 -0.1483  0.3329  0.3815
   52CHL1  H26A 6322   1.410   5.304   8.659  0.8149  2.6216  1.6011
   52CHL1  H26B 6323   1.398   5.137   8.755 -1.3546  0.5067 -0.8756
   52CHL1  H26C 6324   1.355   5.305   8.824  1.1180  1.7676  0.3627
   52CHL1   C27 6325   1.613   5.397   8.750 -0.1211  0.9647  0.0013
   52CHL1  H27A 6326   1.547   5.478   8.790 -0.4505  0.3650  0.7095
   52CHL1  H27B 6327   1.713   5.432   8.782  0.7645  0.1360 -1.7854
   52CHL1  H27C 6328   1.591   5.402   8.641 -1.5292  0.6984  0.2439
   53CHL1    C3 6329   4.525   1.175  10.044 -0.0330  0.2444  0.0505
   53CHL1    H3 6330   4.567   1.269  10.002 -0.0546  1.0668  1.7912
   53CHL1    O3 6331   4.516   1.172  10.181 -0.2071 -0.0117  0.1054
   53CHL1   H3' 6332   4.492   1.082  10.205 -1.6163  0.8726  2.3833
   53CHL1    C4 6333   4.389   1.159   9.977 -0.5207 -0.0197  0.1338
   53CHL1   H4A 6334   4.341   1.065  10.012  0.5581 -1.5445 -2.2097
   53CHL1   H4B 6335   4.316   1.235  10.011  0.2353  1.0129 -0.5059
   53CHL1    C5 6336   4.407   1.159   9.820  0.3472  1.2381 -0.3963
   53CHL1    C6 6337   4.352   1.245   9.741  0.7931  0.2114 -0.0366
   53CHL1    H6 6338   4.285   1.317   9.789 -0.5577  0.3220 -1.9602
   53CHL1    C7 6339   4.356   1.244   9.597  0.4324 -0.3600 -0.6259
   53CHL1   H7A 6340   4.253   1.262   9.558  0.7071 -0.2500 -1.3241
   53CHL1   H7B 6341   4.416   1.328   9.557 -0.6466  0.7565  0.0321
   53CHL1    C8 6342   4.401   1.102   9.533  0.3846 -0.1645 -0.2999
   53CHL1    H8 6343   4.326   1.021   9.546  0.9875 -0.4304  1.8467
   53CHL1   C14 6344   4.458   1.118   9.394 -0.3219  0.3800 -0.5717
   53CHL1   H14 6345   4.557   1.168   9.406 -0.1373  0.0676 -0.7988
   53CHL1   C15 6346   4.367   1.197   9.302  0.1816  0.6620 -0.7210
   53CHL1  H15A 6347   4.259   1.172   9.314  0.7305 -1.5084  0.1821
   53CHL1  H15B 6348   4.389   1.306   9.312  1.0908  0.3482  1.0559
   53CHL1   C16 6349   4.400   1.154   9.159 -0.4922  0.0752  0.0360
   53CHL1  H16A 6350   4.316   1.099   9.112  1.0508 -0.9301 -1.6586
   53CHL1  H16B 6351   4.423   1.235   9.087  0.4468 -2.2201 -2.4010
   53CHL1   C17 6352   4.514   1.045   9.171  0.1609 -0.2459  0.2700
   53CHL1   H17 6353   4.607   1.105   9.161 -0.8484  1.4509  0.7140
   53CHL1   C13 6354   4.493   0.993   9.315  0.1304  0.7273 -0.1379
   53CHL1   C18 6355   4.365   0.899   9.318 -0.2403 -0.4066 -0.2229
   53CHL1  H18A 6356   4.276   0.946   9.272 -1.4458  0.3199  2.6607
   53CHL1  H18B 6357   4.379   0.807   9.257  0.1473  0.0368 -0.8084
   53CHL1  H18C 6358   4.352   0.868   9.424  1.4065 -1.9947 -0.4328
   53CHL1   C12 6359   4.607   0.925   9.395 -0.6599  0.1157  0.6640
   53CHL1  H12A 6360   4.634   0.822   9.361 -3.2150 -0.5292  0.3566
   53CHL1  H12B 6361   4.699   0.984   9.377  0.6540 -1.7815  0.8717
   53CHL1   C11 6362   4.578   0.920   9.542  0.0468  0.7409 -0.5080
   53CHL1  H11A 6363   4.518   0.827   9.545  1.1707  0.0263  0.9448
   53CHL1  H11B 6364   4.669   0.879   9.590  0.0883  0.1422 -1.0826
   53CHL1    C9 6365   4.520   1.047   9.609 -0.5520  0.1115  0.2075
   53CHL1    H9 6366   4.590   1.132   9.595 -0.9561  0.3562 -0.3549
   53CHL1   C10 6367   4.491   1.042   9.763  0.0834 -0.3436 -0.5185
   53CHL1   C19 6368   4.420   0.911   9.797  0.7801 -0.6555 -0.7482
   53CHL1  H19A 6369   4.484   0.822   9.781  0.1362 -1.4424  0.8407
   53CHL1  H19B 6370   4.394   0.900   9.904  1.1474  2.4484 -0.2600
   53CHL1  H19C 6371   4.325   0.906   9.738  1.9053  0.2789 -2.7583
   53CHL1    C1 6372   4.631   1.052   9.848  0.5752  0.7095 -0.2690
   53CHL1   H1A 6373   4.694   0.964   9.825 -1.1088 -1.2843  2.2318
   53CHL1   H1B 6374   4.688   1.140   9.810 -1.3758  3.4485  2.6018
   53CHL1    C2 6375   4.623   1.062  10.000  0.5949 -0.2541 -0.6812
   53CHL1   H2A 6376   4.716   1.095  10.051  0.2803 -0.3946 -0.0095
   53CHL1   H2B 6377   4.593   0.962  10.039 -0.6785  1.0615  2.0199
   53CHL1   C20 6378   4.526   0.939   9.063  0.6707  0.1106 -0.5418
   53CHL1   H20 6379   4.436   0.873   9.068  1.3190 -0.9081 -1.5485
   53CHL1   C21 6380   4.655   0.855   9.087 -0.0718  0.1807  0.0366
   53CHL1  H21A 6381   4.744   0.918   9.108 -0.1329 -0.1197  1.2676
   53CHL1  H21B 6382   4.669   0.777   9.010 -1.4544 -1.6160  1.5199
   53CHL1  H21C 6383   4.636   0.783   9.169  1.3920  1.2514  1.3623
   53CHL1   C22 6384   4.513   0.991   8.915 -0.0987 -0.1808 -0.1234
   53CHL1  H22A 6385   4.518   0.911   8.838 -0.7786 -0.2040 -0.1544
   53CHL1  H22B 6386   4.410   1.033   8.908  0.0501  0.3386  0.6538
   53CHL1   C23 6387   4.613   1.097   8.870 -0.4439 -0.2360 -0.0515
   53CHL1  H23A 6388   4.607   1.184   8.939 -1.7511 -0.1030 -0.2985
   53CHL1  H23B 6389   4.715   1.054   8.867 -1.1152 -1.8840 -1.5599
   53CHL1   C24 6390   4.594   1.151   8.725 -0.3014 -0.0593  0.4833
   53CHL1  H24A 6391   4.561   1.070   8.657  1.8149  0.4655 -1.2433
   53CHL1  H24B 6392   4.524   1.238   8.732  0.4403  0.6511 -0.7660
   53CHL1   C25 6393   4.714   1.200   8.651 -0.0505 -0.3179 -0.2047
   53CHL1   H25 6394   4.792   1.122   8.664 -0.5386 -0.7068  0.4503
   53CHL1   C26 6395   4.692   1.211   8.496  0.1003  0.4488  0.2019
   53CHL1  H26A 6396   4.765   1.283   8.452  0.6521 -0.8970 -1.1639
   53CHL1  H26B 6397   4.705   1.111   8.450  1.1869  0.0099  1.4134
   53CHL1  H26C 6398   4.592   1.255   8.475 -0.1004  0.5496  1.2847
   53CHL1   C27 6399   4.765   1.335   8.707 -0.3425 -0.4163  0.8263
   53CHL1  H27A 6400   4.777   1.329   8.817 -4.0780  1.8934  1.5181
   53CHL1  H27B 6401   4.863   1.364   8.662  0.3625 -0.6037  2.2055
   53CHL1  H27C 6402   4.694   1.417   8.685  0.0664  0.2465  1.9082
   54CHL1    C3 6403   1.752   1.632   9.956 -0.6978  0.4396  0.4467
   54CHL1    H3 6404   1.656   1.576   9.957 -0.0247 -0.9242 -2.3429
   54CHL1    O3 6405   1.798   1.641  10.091 -0.4532 -0.1863 -0.3003
   54CHL1   H3' 6406   1.886   1.679  10.092  0.1960 -1.6589  0.3611
   54CHL1    C4 6407   1.846   1.539   9.877 -0.5365 -0.3836 -0.4185
   54CHL1   H4A 6408   1.952   1.550   9.908 -0.0124 -1.6131 -1.6734
   54CHL1   H4B 6409   1.829   1.434   9.907 -1.5922  0.0765  0.6513
   54CHL1    C5 6410   1.843   1.556   9.721  0.5815  0.3031 -0.5221
   54CHL1    C6 6411   1.835   1.450   9.641  0.1227  0.1595  0.0126
   54CHL1    H6 6412   1.843   1.347   9.680 -1.8711 -0.5917 -1.4171
   54CHL1    C7 6413   1.816   1.453   9.494  0.0824  0.2991 -0.4570
   54CHL1   H7A 6414   1.867   1.360   9.459 -1.0314 -1.1927  1.6959
   54CHL1   H7B 6415   1.710   1.435   9.469  0.3221 -2.7127  0.3948
   54CHL1    C8 6416   1.854   1.586   9.428 -1.2458  0.1436  0.2545
   54CHL1    H8 6417   1.964   1.596   9.427 -1.3776  1.9399 -0.8521
   54CHL1   C14 6418   1.811   1.592   9.276 -0.0436 -0.6950  0.7853
   54CHL1   H14 6419   1.703   1.567   9.286 -0.7533  0.8307 -2.2018
   54CHL1   C15 6420   1.876   1.487   9.193  0.8497  0.7722 -0.3946
   54CHL1  H15A 6421   1.983   1.472   9.219  0.4500 -2.4093 -0.2020
   54CHL1  H15B 6422   1.814   1.397   9.210 -0.3297  1.6055 -0.1700
   54CHL1   C16 6423   1.857   1.536   9.050 -0.1911  0.5593  0.2200
   54CHL1  H16A 6424   1.958   1.548   9.006 -0.8508  0.7667 -1.3161
   54CHL1  H16B 6425   1.806   1.474   8.973  1.6070  0.9063 -1.3127
   54CHL1   C17 6426   1.796   1.684   9.065  0.2014  0.2717  0.0996
   54CHL1   H17 6427   1.685   1.674   9.071  0.0245  2.3775  2.1018
   54CHL1   C13 6428   1.839   1.725   9.204 -0.7118  0.5623 -0.4704
   54CHL1   C18 6429   1.987   1.769   9.201 -0.2711  0.2945  0.4619
   54CHL1  H18A 6430   1.990   1.864   9.144  1.1545 -0.3457 -0.6040
   54CHL1  H18B 6431   2.023   1.804   9.300  0.3629 -1.3145  0.8395
   54CHL1  H18C 6432   2.051   1.692   9.153 -0.2294  0.4793  0.2185
   54CHL1   C12 6433   1.764   1.826   9.288  0.0135  0.3978 -0.5109
   54CHL1  H12A 6434   1.782   1.927   9.245  0.5866 -0.0135 -1.2670
   54CHL1  H12B 6435   1.654   1.823   9.271 -0.0499  0.4844 -0.1250
   54CHL1   C11 6436   1.796   1.826   9.440  0.5758 -0.5422  0.3669
   54CHL1  H11A 6437   1.897   1.871   9.452  0.8805 -0.6417 -1.5048
   54CHL1  H11B 6438   1.734   1.899   9.496  1.1072  1.4834 -1.5083
   54CHL1    C9 6439   1.783   1.691   9.514 -0.0801 -0.4599 -0.0292
   54CHL1    H9 6440   1.677   1.657   9.511 -0.3811  0.5288 -1.3132
   54CHL1   C10 6441   1.824   1.693   9.668 -0.3646 -0.5744 -0.3129
   54CHL1   C19 6442   1.963   1.759   9.678 -0.2538 -0.6103 -0.6469
   54CHL1  H19A 6443   1.962   1.868   9.656 -0.6033 -0.0267  1.9653
   54CHL1  H19B 6444   2.002   1.741   9.781  0.8380 -0.6099 -1.0448
   54CHL1  H19C 6445   2.037   1.712   9.609  0.1894 -0.1401 -0.4980
   54CHL1    C1 6446   1.723   1.788   9.751 -0.5568 -0.2876  0.2600
   54CHL1   H1A 6447   1.733   1.894   9.721  1.6259 -0.3722  0.5275
   54CHL1   H1B 6448   1.619   1.756   9.730 -0.6795 -0.6291  1.2926
   54CHL1    C2 6449   1.745   1.781   9.901 -0.8104 -0.7877  0.0826
   54CHL1   H2A 6450   1.671   1.840   9.960  0.2213  0.1475  0.4663
   54CHL1   H2B 6451   1.841   1.822   9.937 -1.6313  0.3447  1.0758
   54CHL1   C20 6452   1.831   1.757   8.941 -0.3040 -0.2297  0.2327
   54CHL1   H20 6453   1.940   1.776   8.952 -0.7664  2.1824  1.3487
   54CHL1   C21 6454   1.761   1.897   8.958 -0.3596  0.4910 -0.3271
   54CHL1  H21A 6455   1.656   1.875   8.986 -0.0124 -0.3544  0.3321
   54CHL1  H21B 6456   1.783   1.955   8.865  1.3481  0.3074 -0.0668
   54CHL1  H21C 6457   1.811   1.946   9.044  0.5664 -1.0489  0.0469
   54CHL1   C22 6458   1.789   1.696   8.802 -0.6448 -0.1230 -0.6324
   54CHL1  H22A 6459   1.827   1.593   8.787 -2.4693 -1.0057  0.3788
   54CHL1  H22B 6460   1.682   1.664   8.801 -0.3421 -1.1905 -1.9529
   54CHL1   C23 6461   1.825   1.786   8.686 -0.1364  0.3904  0.0121
   54CHL1  H23A 6462   1.739   1.856   8.680 -0.3366  0.0342 -1.6279
   54CHL1  H23B 6463   1.918   1.846   8.700 -0.7621  1.2942  0.3720
   54CHL1   C24 6464   1.849   1.703   8.557  0.1176 -0.1001 -0.0684
   54CHL1  H24A 6465   1.948   1.653   8.554  0.5685  0.6325  1.4826
   54CHL1  H24B 6466   1.762   1.636   8.544 -0.0743  0.3286 -1.1712
   54CHL1   C25 6467   1.842   1.779   8.419  0.2610 -0.2565  0.4145
   54CHL1   H25 6468   1.747   1.837   8.417  0.4424  0.3172  3.6905
   54CHL1   C26 6469   1.956   1.875   8.408 -0.1854  0.6690  0.3039
   54CHL1  H26A 6470   1.969   1.939   8.498  1.0032  1.9031 -0.7054
   54CHL1  H26B 6471   2.044   1.807   8.408 -1.0587 -0.5086  0.9604
   54CHL1  H26C 6472   1.958   1.926   8.310 -0.1709  1.9364  0.9389
   54CHL1   C27 6473   1.845   1.680   8.307 -1.2228 -0.1933  0.0953
   54CHL1  H27A 6474   1.857   1.737   8.213 -1.3234  0.9978  0.7797
   54CHL1  H27B 6475   1.934   1.614   8.319  0.0322  0.8697 -2.6101
   54CHL1  H27C 6476   1.756   1.614   8.311  0.6346 -2.8171  1.2111
   55CHL1    C3 6477   4.319   6.398  10.075 -0.0400 -0.0472 -0.0045
   55CHL1    H3 6478   4.254   6.310  10.090  0.1443 -0.0880  0.5779
   55CHL1    O3 6479   4.350   6.457  10.199 -0.0272 -0.0021  0.0012
   55CHL1   H3' 6480   4.263   6.468  10.237 -0.6771 -1.3584 -1.0059
   55CHL1    C4 6481   4.454   6.345  10.005  0.7420  0.1139  0.1707
   55CHL1   H4A 6482   4.522   6.432   9.999  2.1347 -1.0177 -1.7834
   55CHL1   H4B 6483   4.496   6.266  10.071  0.0494 -2.0711 -1.8375
   55CHL1    C5 6484   4.424   6.287   9.870  0.1051 -1.1196 -0.2434
   55CHL1    C6 6485   4.458   6.158   9.838 -0.0959  0.1100  0.3149
   55CHL1    H6 6486   4.523   6.102   9.907  0.3785  0.5661  0.2450
   55CHL1    C7 6487   4.432   6.094   9.707  0.5790  0.2687 -0.3472
   55CHL1   H7A 6488   4.505   6.015   9.678  1.0834  0.2680  0.8639
   55CHL1   H7B 6489   4.336   6.040   9.722  0.9535 -0.3249 -0.0492
   55CHL1    C8 6490   4.404   6.192   9.599  0.0773 -0.1040  0.5454
   55CHL1    H8 6491   4.502   6.239   9.580 -0.1829  0.5482  0.7769
   55CHL1   C14 6492   4.356   6.127   9.472 -0.1213 -0.2110  0.0575
   55CHL1   H14 6493   4.260   6.077   9.492  0.3866 -1.5001 -0.5999
   55CHL1   C15 6494   4.443   6.017   9.405 -0.0967 -0.1883  0.0068
   55CHL1  H15A 6495   4.550   6.039   9.424 -0.3812  1.7303 -0.3448
   55CHL1  H15B 6496   4.422   5.918   9.451  1.6518  0.0268  1.3498
   55CHL1   C16 6497   4.402   6.018   9.256  0.1078  0.3938 -0.5257
   55CHL1  H16A 6498   4.497   6.039   9.203  1.7248 -2.4067  0.9936
   55CHL1  H16B 6499   4.368   5.918   9.221  2.4325  0.1317 -2.2667
   55CHL1   C17 6500   4.300   6.135   9.242 -1.2235 -0.0404  0.1294
   55CHL1   H17 6501   4.199   6.095   9.267 -0.9280  0.1612  1.7065
   55CHL1   C13 6502   4.330   6.230   9.362 -0.5705 -0.0598 -0.1726
   55CHL1   C18 6503   4.450   6.316   9.317  0.0148 -0.1740 -0.3249
   55CHL1  H18A 6504   4.497   6.385   9.390  0.1175  0.2873 -0.8242
   55CHL1  H18B 6505   4.528   6.242   9.289  1.0315  0.2281  1.3050
   55CHL1  H18C 6506   4.413   6.381   9.235  0.8240  1.0819  0.2755
   55CHL1   C12 6507   4.207   6.317   9.395  0.8864 -0.3521 -0.0534
   55CHL1  H12A 6508   4.199   6.404   9.327  2.7858  0.2807  0.4613
   55CHL1  H12B 6509   4.112   6.259   9.393  0.3692  0.2892  2.5604
   55CHL1   C11 6510   4.222   6.376   9.540 -0.1953 -0.1922 -0.2396
   55CHL1  H11A 6511   4.278   6.468   9.512  0.9943 -0.2914  1.5843
   55CHL1  H11B 6512   4.122   6.406   9.579  0.9378  1.9381  1.2489
   55CHL1    C9 6513   4.296   6.292   9.650  0.0116 -0.7355  0.1215
   55CHL1    H9 6514   4.213   6.225   9.682  0.6085 -0.5585  2.2059
   55CHL1   C10 6515   4.343   6.376   9.771 -0.4535 -1.5230 -0.2308
   55CHL1   C19 6516   4.438   6.486   9.738 -0.0860 -0.1554  0.3330
   55CHL1  H19A 6517   4.390   6.556   9.666  1.9307  0.6328 -0.3150
   55CHL1  H19B 6518   4.480   6.548   9.820 -1.9540  1.5514  0.0701
   55CHL1  H19C 6519   4.526   6.452   9.678 -0.7555  0.0560 -0.8026
   55CHL1    C1 6520   4.221   6.438   9.840 -0.6176  0.4400 -0.9405
   55CHL1   H1A 6521   4.175   6.512   9.770  1.1424  2.3100 -0.2075
   55CHL1   H1B 6522   4.149   6.354   9.843 -0.5788  0.4263 -0.3511
   55CHL1    C2 6523   4.244   6.497   9.971  0.1265 -0.1631 -1.5196
   55CHL1   H2A 6524   4.146   6.519  10.018 -0.0366 -1.7488 -1.0531
   55CHL1   H2B 6525   4.312   6.585   9.967 -0.9304  0.7611 -0.2280
   55CHL1   C20 6526   4.293   6.185   9.096  0.1562 -0.8531 -0.7056
   55CHL1   H20 6527   4.399   6.201   9.068  0.3965 -1.3575 -0.1079
   55CHL1   C21 6528   4.187   6.300   9.079 -0.4351 -0.2099  0.5503
   55CHL1  H21A 6529   4.178   6.321   8.971 -0.5544  2.1567  0.9631
   55CHL1  H21B 6530   4.210   6.395   9.132 -0.6114 -0.5781  1.3114
   55CHL1  H21C 6531   4.092   6.256   9.115  0.2941 -1.1130  1.4375
   55CHL1   C22 6532   4.248   6.065   9.004  0.0987 -0.6219  0.2572
   55CHL1  H22A 6533   4.325   5.985   9.011  0.0968 -0.6123  0.3791
   55CHL1  H22B 6534   4.150   6.027   9.040  0.0249  0.4422  1.2249
   55CHL1   C23 6535   4.231   6.102   8.857  0.2360  0.1778  0.0938
   55CHL1  H23A 6536   4.132   6.151   8.844  0.3053  0.3291  0.1356
   55CHL1  H23B 6537   4.304   6.174   8.813 -1.8075  0.4890 -3.1429
   55CHL1   C24 6538   4.230   5.974   8.769  0.2012  0.0434 -0.3463
   55CHL1  H24A 6539   4.331   5.928   8.777  0.1369 -0.0814 -0.2584
   55CHL1  H24B 6540   4.166   5.895   8.813  1.0224 -1.3029 -1.4865
   55CHL1   C25 6541   4.182   6.005   8.628 -0.3488  0.0083 -0.1094
   55CHL1   H25 6542   4.080   6.047   8.639 -0.6284 -0.5981 -0.3522
   55CHL1   C26 6543   4.272   6.105   8.555  0.1066 -0.0605 -0.2853
   55CHL1  H26A 6544   4.377   6.071   8.562  0.4480  1.3708  3.3423
   55CHL1  H26B 6545   4.246   6.107   8.446  0.5110  0.1037 -0.3801
   55CHL1  H26C 6546   4.252   6.195   8.617 -0.3862 -0.0338 -0.4766
   55CHL1   C27 6547   4.197   5.875   8.543  0.0962 -0.2344 -0.1394
   55CHL1  H27A 6548   4.297   5.830   8.559 -0.4091 -0.6293  2.3666
   55CHL1  H27B 6549   4.117   5.806   8.577 -0.6450  1.5817  2.0369
   55CHL1  H27C 6550   4.181   5.899   8.436 -1.7015 -3.7517 -0.8180
   56CHL1    C3 6551   2.065   4.071   9.999 -0.1776 -0.0937 -0.3878
   56CHL1    H3 6552   2.038   4.168   9.951  2.2902  0.6616 -0.3872
   56CHL1    O3 6553   2.085   4.088  10.140  0.0203 -0.3623 -0.3021
   56CHL1   H3' 6554   2.176   4.062  10.159  0.2005  0.6930  0.3734
   56CHL1    C4 6555   1.961   3.966   9.969  0.4148  0.3520  0.4389
   56CHL1   H4A 6556   1.988   3.869  10.016 -0.3836 -1.4697 -2.5732
   56CHL1   H4B 6557   1.863   3.988  10.017  0.2562  0.1280  0.2205
   56CHL1    C5 6558   1.931   3.946   9.824 -0.5605  0.5565  0.0784
   56CHL1    C6 6559   1.814   3.979   9.774  0.2157  0.7694 -0.5556
   56CHL1    H6 6560   1.732   4.008   9.841  0.3500 -1.4495  0.6649
   56CHL1    C7 6561   1.779   3.989   9.630  0.0861  0.4748  0.4772
   56CHL1   H7A 6562   1.674   3.960   9.606 -0.4135  1.2908  1.5521
   56CHL1   H7B 6563   1.784   4.098   9.610 -1.9285  0.6543  0.7296
   56CHL1    C8 6564   1.884   3.911   9.549 -0.2896 -0.5010  0.0873
   56CHL1    H8 6565   1.851   3.805   9.555 -1.0682 -0.1848  2.5244
   56CHL1   C14 6566   1.876   3.956   9.401 -0.3919 -0.0893  0.7829
   56CHL1   H14 6567   1.907   4.062   9.400  3.0819 -0.9465 -0.5965
   56CHL1   C15 6568   1.734   3.956   9.334 -0.0067 -0.2271 -1.0066
   56CHL1  H15A 6569   1.687   3.857   9.350  0.6180 -0.3720 -0.0036
   56CHL1  H15B 6570   1.659   4.033   9.362  0.3626  1.6884 -4.7214
   56CHL1   C16 6571   1.774   3.963   9.184  0.5635 -0.0142 -0.0553
   56CHL1  H16A 6572   1.720   3.877   9.138 -0.4140 -0.5848  2.0097
   56CHL1  H16B 6573   1.725   4.054   9.143  1.5916  0.4032 -0.3963
   56CHL1   C17 6574   1.925   3.961   9.169 -0.3264  0.5198  0.6776
   56CHL1   H17 6575   1.948   4.070   9.176 -1.3527  0.7159  1.1608
   56CHL1   C13 6576   1.973   3.886   9.295  0.7823  0.3192  0.2041
   56CHL1   C18 6577   1.947   3.726   9.287 -0.1382  0.0746  0.4729
   56CHL1  H18A 6578   2.034   3.676   9.240  0.4097  0.8756  0.6190
   56CHL1  H18B 6579   1.951   3.682   9.389 -2.6072  1.4695  1.2681
   56CHL1  H18C 6580   1.846   3.697   9.249 -1.0107  2.3002  0.9180
   56CHL1   C12 6581   2.108   3.917   9.339  0.5213 -0.2160  0.1911
   56CHL1  H12A 6582   2.191   3.870   9.281 -0.0091 -0.3389 -0.4794
   56CHL1  H12B 6583   2.127   4.026   9.326  0.1956  0.0615  1.8264
   56CHL1   C11 6584   2.130   3.877   9.487  0.7546  0.4277  0.6642
   56CHL1  H11A 6585   2.122   3.768   9.502 -1.1997  0.3935 -0.2930
   56CHL1  H11B 6586   2.232   3.906   9.519  1.5780 -2.4945  0.9884
   56CHL1    C9 6587   2.029   3.941   9.593 -0.2840 -0.2835  0.5060
   56CHL1    H9 6588   2.036   4.050   9.572 -3.2163  0.2177  1.6222
   56CHL1   C10 6589   2.052   3.912   9.738  0.1430  0.1035  0.1870
   56CHL1   C19 6590   2.068   3.765   9.761  0.0879 -0.2923 -0.3306
   56CHL1  H19A 6591   2.153   3.745   9.692 -0.1064 -0.4235 -0.5325
   56CHL1  H19B 6592   2.106   3.739   9.862  2.5074  4.6945  0.3070
   56CHL1  H19C 6593   1.982   3.705   9.723 -0.4422  1.0525 -1.3117
   56CHL1    C1 6594   2.184   3.987   9.781 -0.3746  0.6288 -0.0975
   56CHL1   H1A 6595   2.272   3.924   9.756 -0.2585  0.6696  0.2047
   56CHL1   H1B 6596   2.203   4.072   9.713 -2.8623 -0.1301 -1.8848
   56CHL1    C2 6597   2.200   4.010   9.943  0.4380 -0.0289  1.4084
   56CHL1   H2A 6598   2.276   4.089   9.954 -0.8466  1.6761 -1.0380
   56CHL1   H2B 6599   2.225   3.913   9.992  1.3870 -0.7800 -0.4654
   56CHL1   C20 6600   1.969   3.923   9.028  0.1768  0.1381  0.4414
   56CHL1   H20 6601   1.941   3.816   9.015  0.7446  0.0676 -0.2357
   56CHL1   C21 6602   2.116   3.946   9.006 -0.1713  0.5679 -0.3014
   56CHL1  H21A 6603   2.173   3.867   9.060  2.1125  1.5816 -1.1256
   56CHL1  H21B 6604   2.153   4.047   9.034 -0.1558  1.0939 -2.1022
   56CHL1  H21C 6605   2.132   3.936   8.896 -1.3206  1.3974 -0.5595
   56CHL1   C22 6606   1.885   3.982   8.913  0.1855  0.0615  0.8097
   56CHL1  H22A 6607   1.928   3.939   8.820  1.7929 -0.4241  1.7394
   56CHL1  H22B 6608   1.783   3.940   8.909  0.2773 -0.0848 -1.6581
   56CHL1   C23 6609   1.885   4.137   8.890 -0.7904  0.6177  0.3595
   56CHL1  H23A 6610   1.847   4.192   8.978 -0.6703 -1.6091  1.8882
   56CHL1  H23B 6611   1.994   4.155   8.873 -0.1507 -1.6487  1.6090
   56CHL1   C24 6612   1.804   4.180   8.758 -0.8238 -0.1238 -0.6156
   56CHL1  H24A 6613   1.861   4.164   8.664 -0.0664  1.5095 -0.4659
   56CHL1  H24B 6614   1.705   4.131   8.751 -0.6826 -0.9231  1.9011
   56CHL1   C25 6615   1.779   4.331   8.750  0.8553 -0.3674 -0.3129
   56CHL1   H25 6616   1.730   4.368   8.843 -0.8030  2.0544 -2.0220
   56CHL1   C26 6617   1.917   4.403   8.733  1.5462 -0.0135 -0.3228
   56CHL1  H26A 6618   1.894   4.505   8.695 -2.9126 -0.5084  0.4647
   56CHL1  H26B 6619   1.982   4.406   8.823  2.5474 -0.1935 -1.0345
   56CHL1  H26C 6620   1.975   4.338   8.665  2.0188 -1.0359  1.0135
   56CHL1   C27 6621   1.676   4.361   8.640  0.0477  0.0917  0.5943
   56CHL1  H27A 6622   1.576   4.327   8.672 -0.0314 -0.0745  0.1852
   56CHL1  H27B 6623   1.661   4.462   8.596 -1.9018 -1.1621 -1.8515
   56CHL1  H27C 6624   1.706   4.305   8.548  0.5690 -0.5786  1.1617
   57CHL1    C3 6625   3.887   0.197  10.168  0.7114  0.6564 -0.7486
   57CHL1    H3 6626   3.997   0.212  10.170  0.9691 -1.0915  1.3110
   57CHL1    O3 6627   3.837   0.236  10.291  0.0300  0.6237 -0.4058
   57CHL1   H3' 6628   3.866   0.325  10.308 -0.3988  1.2221 -2.5432
   57CHL1    C4 6629   3.825   0.285  10.061  0.3432  0.6144 -0.2976
   57CHL1   H4A 6630   3.716   0.284  10.080  0.4694  1.4647  0.5050
   57CHL1   H4B 6631   3.853   0.391  10.079 -1.6471  1.0883  0.2106
   57CHL1    C5 6632   3.849   0.236   9.921  0.0895 -0.4270  0.2082
   57CHL1    C6 6633   3.896   0.316   9.827 -0.9702 -0.4403  0.1654
   57CHL1    H6 6634   3.933   0.419   9.841 -0.6617 -0.4183 -0.7601
   57CHL1    C7 6635   3.917   0.276   9.686 -0.4289 -0.8005  0.1049
   57CHL1   H7A 6636   3.888   0.364   9.625 -1.7386  0.5416  2.5353
   57CHL1   H7B 6637   4.024   0.252   9.670 -0.3355  0.9764 -2.5977
   57CHL1    C8 6638   3.847   0.142   9.642 -0.6882 -0.2440  0.6795
   57CHL1    H8 6639   3.736   0.151   9.630 -0.4939 -0.2709 -1.5724
   57CHL1   C14 6640   3.900   0.082   9.507 -0.1876 -0.1191 -1.0030
   57CHL1   H14 6641   4.009   0.078   9.530 -0.0141  4.2019 -0.1821
   57CHL1   C15 6642   3.898   0.165   9.389 -0.6768 -0.2061  0.3941
   57CHL1  H15A 6643   3.798   0.213   9.376 -0.6999  0.0475  1.3945
   57CHL1  H15B 6644   3.961   0.256   9.400 -2.5280  1.2827 -0.5856
   57CHL1   C16 6645   3.937   0.073   9.271 -0.1800 -0.3305  0.6137
   57CHL1  H16A 6646   3.862   0.083   9.190 -0.1869  1.7585  0.8138
   57CHL1  H16B 6647   4.036   0.086   9.222 -0.3023 -2.5817 -0.3415
   57CHL1   C17 6648   3.932  -0.070   9.331 -0.2517 -0.6203 -0.2575
   57CHL1   H17 6649   4.036  -0.090   9.364 -0.1801  1.0142  0.6090
   57CHL1   C13 6650   3.849  -0.048   9.463  0.2978 -0.1424  0.2145
   57CHL1   C18 6651   3.701  -0.041   9.417  0.4874 -0.2033  0.3975
   57CHL1  H18A 6652   3.635   0.023   9.479  0.7816  0.5242 -0.0370
   57CHL1  H18B 6653   3.675   0.007   9.320 -2.6910 -0.0017  1.2466
   57CHL1  H18C 6654   3.655  -0.143   9.417  0.3368 -0.1384  0.0891
   57CHL1   C12 6655   3.870  -0.141   9.578 -0.5607  0.1038  0.6626
   57CHL1  H12A 6656   3.827  -0.238   9.548 -0.2324 -0.5582  2.2155
   57CHL1  H12B 6657   3.978  -0.164   9.584 -0.1667  1.4272 -0.7958
   57CHL1   C11 6658   3.814  -0.100   9.714  0.0284 -0.6843  0.5657
   57CHL1  H11A 6659   3.704  -0.110   9.712 -0.0506 -0.6581  2.5936
   57CHL1  H11B 6660   3.853  -0.172   9.790  1.3583 -0.0873  0.4796
   57CHL1    C9 6661   3.867   0.041   9.756 -0.0630  0.6296 -0.4339
   57CHL1    H9 6662   3.976   0.031   9.776  0.5212  3.4773 -1.7774
   57CHL1   C10 6663   3.813   0.083   9.894  0.7716  0.3158  0.0513
   57CHL1   C19 6664   3.664   0.062   9.902  0.1817  0.1885  0.2531
   57CHL1  H19A 6665   3.617   0.095   9.997  2.2676 -1.2877  1.9108
   57CHL1  H19B 6666   3.621   0.125   9.821  0.4048 -1.3946 -1.1668
   57CHL1  H19C 6667   3.634  -0.044   9.888 -2.4091  0.2416  3.9979
   57CHL1    C1 6668   3.877  -0.005  10.003  0.0273 -0.1152  0.4298
   57CHL1   H1A 6669   3.822  -0.102  10.004 -1.6028  0.7853  0.7659
   57CHL1   H1B 6670   3.980  -0.034   9.974  0.8238  0.7781  2.2370
   57CHL1    C2 6671   3.859   0.047  10.148 -0.0528  0.4630 -0.0103
   57CHL1   H2A 6672   3.920  -0.017  10.216 -2.5223 -1.1767  0.8329
   57CHL1   H2B 6673   3.751   0.040  10.174  0.3777  1.4832  2.3282
   57CHL1   C20 6674   3.870  -0.183   9.245 -0.1530  0.3324 -0.1322
   57CHL1   H20 6675   3.768  -0.159   9.207  0.5286  0.0109 -2.3425
   57CHL1   C21 6676   3.892  -0.322   9.311 -0.4356  0.0336  0.0553
   57CHL1  H21A 6677   3.994  -0.315   9.356  0.3553  2.2791 -1.8934
   57CHL1  H21B 6678   3.876  -0.413   9.249  0.6579 -0.4745  0.4789
   57CHL1  H21C 6679   3.820  -0.349   9.392 -0.2620 -1.6412 -0.3083
   57CHL1   C22 6680   3.942  -0.192   9.105 -0.3449 -0.5489  0.2475
   57CHL1  H22A 6681   3.942  -0.088   9.066  0.3775  0.1152  1.9257
   57CHL1  H22B 6682   4.051  -0.211   9.114 -0.2744  0.0520  0.6960
   57CHL1   C23 6683   3.868  -0.281   9.006 -0.5771  0.2239  0.2538
   57CHL1  H23A 6684   3.851  -0.378   9.057 -0.7214  0.5985  0.9312
   57CHL1  H23B 6685   3.765  -0.247   8.981  0.0543 -0.0107 -3.2261
   57CHL1   C24 6686   3.953  -0.287   8.882  0.3709  0.0496  0.2065
   57CHL1  H24A 6687   3.963  -0.190   8.829 -0.9439 -1.6315 -3.5132
   57CHL1  H24B 6688   4.057  -0.316   8.908  0.2610  0.2362  0.8493
   57CHL1   C25 6689   3.904  -0.374   8.763  0.4437 -0.4222  0.2913
   57CHL1   H25 6690   3.872  -0.472   8.805 -0.4535  0.1985  1.0942
   57CHL1   C26 6691   3.782  -0.319   8.686  0.8805 -1.1140  0.7203
   57CHL1  H26A 6692   3.701  -0.286   8.754 -1.1438  2.2994 -2.8749
   57CHL1  H26B 6693   3.815  -0.235   8.621 -1.5209  0.1897  1.0485
   57CHL1  H26C 6694   3.743  -0.404   8.625 -1.1629 -0.8926  1.6354
   57CHL1   C27 6695   4.019  -0.400   8.674  0.2115 -0.2618 -0.1479
   57CHL1  H27A 6696   4.105  -0.438   8.734 -0.6590 -2.5348 -0.2384
   57CHL1  H27B 6697   4.003  -0.462   8.583  4.6147 -4.2295  1.3806
   57CHL1  H27C 6698   4.061  -0.304   8.637  2.3337 -0.9806  0.2642
   58CHL1    C3 6699   0.278   3.772   9.988 -0.4564  0.0015  0.0170
   58CHL1    H3 6700   0.335   3.732   9.902 -1.0219 -2.6125  0.7640
   58CHL1    O3 6701   0.350   3.747  10.110  0.3166 -0.2226 -0.6808
   58CHL1   H3' 6702   0.291   3.695  10.164  1.3482  0.6049  1.3273
   58CHL1    C4 6703   0.267   3.925   9.975 -0.9540  0.0130 -0.0539
   58CHL1   H4A 6704   0.199   3.961  10.056 -1.1119 -1.1177  0.3362
   58CHL1   H4B 6705   0.364   3.977   9.988  0.3206 -1.9301 -1.1649
   58CHL1    C5 6706   0.206   3.950   9.844 -0.2974 -0.0473 -0.2495
   58CHL1    C6 6707   0.276   4.023   9.754  0.9461 -0.6836 -0.5872
   58CHL1    H6 6708   0.371   4.065   9.791  1.2930 -2.1746  0.3048
   58CHL1    C7 6709   0.220   4.068   9.616  0.3139 -0.0836  0.3277
   58CHL1   H7A 6710   0.224   4.177   9.598  1.1752 -0.3794 -1.5177
   58CHL1   H7B 6711   0.277   4.000   9.549  1.6745  1.6282 -0.3179
   58CHL1    C8 6712   0.061   4.037   9.597 -0.3187  0.1538 -0.1997
   58CHL1    H8 6713   0.009   4.122   9.646  0.2561 -0.5928  1.8128
   58CHL1   C14 6714   0.028   4.037   9.445 -0.1256 -0.2488 -0.0031
   58CHL1   H14 6715   0.079   3.944   9.412  1.5837 -0.3711  2.6835
   58CHL1   C15 6716   0.080   4.152   9.359  0.1868  0.4523 -0.2645
   58CHL1  H15A 6717   0.071   4.255   9.401 -1.3804  0.9606 -1.7156
   58CHL1  H15B 6718   0.187   4.137   9.332  0.1093  1.1997 -1.0180
   58CHL1   C16 6719  -0.013   4.139   9.237 -0.2288 -0.7832 -0.4226
   58CHL1  H16A 6720  -0.053   4.242   9.229  1.2324 -0.1648 -0.1868
   58CHL1  H16B 6721   0.048   4.112   9.148 -0.8480 -0.1382 -1.0569
   58CHL1   C17 6722  -0.128   4.037   9.272 -1.0643 -0.0683  0.0939
   58CHL1   H17 6723  -0.091   3.947   9.219 -2.6417  0.3374 -1.8150
   58CHL1   C13 6724  -0.126   4.023   9.422 -0.1650 -0.5868 -1.0114
   58CHL1   C18 6725  -0.209   4.143   9.493 -0.0480  0.1923  0.6514
   58CHL1  H18A 6726  -0.185   4.150   9.602  0.6239 -1.8891  0.6770
   58CHL1  H18B 6727  -0.182   4.239   9.444  0.7636 -0.2437  0.2140
   58CHL1  H18C 6728  -0.316   4.126   9.469  0.7285 -1.3590 -2.0435
   58CHL1   C12 6729  -0.164   3.882   9.482 -0.4458  0.4489  0.0252
   58CHL1  H12A 6730  -0.274   3.870   9.477 -0.2425 -1.2909 -0.8706
   58CHL1  H12B 6731  -0.125   3.814   9.404  1.6771  1.9581 -0.3130
   58CHL1   C11 6732  -0.124   3.861   9.631  0.3871  0.7281  0.0227
   58CHL1  H11A 6733  -0.192   3.922   9.694  1.1437  0.7486  0.8174
   58CHL1  H11B 6734  -0.149   3.753   9.645 -0.3594  0.6096 -1.9038
   58CHL1    C9 6735   0.021   3.900   9.662 -0.2102  0.3965 -0.5036
   58CHL1    H9 6736   0.083   3.825   9.609 -0.6276 -0.1915 -0.1766
   58CHL1   C10 6737   0.070   3.882   9.814 -1.0416 -0.0866  0.2831
   58CHL1   C19 6738  -0.034   3.943   9.905 -0.1578  0.9137  0.7266
   58CHL1  H19A 6739  -0.016   3.926  10.014  1.0503  1.1650  0.5753
   58CHL1  H19B 6740  -0.047   4.052   9.887 -1.8131  0.2211 -3.1081
   58CHL1  H19C 6741  -0.130   3.888   9.893  0.4080 -0.4703  2.2103
   58CHL1    C1 6742   0.086   3.728   9.838 -0.6028  0.2405  0.2301
   58CHL1   H1A 6743  -0.004   3.664   9.820 -0.1503 -0.5013  0.5502
   58CHL1   H1B 6744   0.158   3.687   9.765 -0.6432 -0.2789  0.4756
   58CHL1    C2 6745   0.151   3.691   9.973 -0.3991 -0.0449 -0.0659
   58CHL1   H2A 6746   0.180   3.584   9.982  0.5922  0.3008  1.1063
   58CHL1   H2B 6747   0.084   3.696  10.062  3.0835 -0.2552  2.7854
   58CHL1   C20 6748  -0.264   4.071   9.204  1.0180  0.0509 -0.4633
   58CHL1   H20 6749  -0.298   4.160   9.262  1.3716 -1.1634  1.7060
   58CHL1   C21 6750  -0.370   3.959   9.217  0.0700 -0.2621  0.0004
   58CHL1  H21A 6751  -0.342   3.865   9.166 -2.1907  0.2055 -2.3069
   58CHL1  H21B 6752  -0.461   3.999   9.168  0.3258 -1.6126 -1.6722
   58CHL1  H21C 6753  -0.392   3.949   9.326 -1.2374 -0.6892 -0.3002
   58CHL1   C22 6754  -0.250   4.112   9.061 -0.6463  0.2103 -0.2839
   58CHL1  H22A 6755  -0.352   4.150   9.039 -1.4849 -2.3623 -1.1714
   58CHL1  H22B 6756  -0.173   4.189   9.042 -1.2399  0.3291 -2.5588
   58CHL1   C23 6757  -0.203   4.003   8.966 -0.4874 -0.5062  0.2331
   58CHL1  H23A 6758  -0.106   3.970   9.009  0.0206  0.7260  0.0492
   58CHL1  H23B 6759  -0.279   3.921   8.964 -0.8411 -0.2265  1.5299
   58CHL1   C24 6760  -0.186   4.056   8.819 -0.1656  1.3099 -0.5254
   58CHL1  H24A 6761  -0.176   3.966   8.755 -1.8541  0.4603  0.3381
   58CHL1  H24B 6762  -0.288   4.092   8.794 -0.0111  1.4359 -0.9772
   58CHL1   C25 6763  -0.077   4.167   8.792 -0.0482  0.8574  0.1792
   58CHL1   H25 6764  -0.103   4.239   8.872  0.1348  1.9600 -0.7120
   58CHL1   C26 6765   0.068   4.129   8.796 -0.8739  0.4209 -0.1318
   58CHL1  H26A 6766   0.094   4.075   8.889  0.2487  1.3300  0.1029
   58CHL1  H26B 6767   0.102   4.065   8.712 -0.1485  0.4524  0.1323
   58CHL1  H26C 6768   0.134   4.218   8.785 -0.3152 -0.0932 -1.0521
   58CHL1   C27 6769  -0.105   4.238   8.655  0.1132  0.8838  0.2601
   58CHL1  H27A 6770  -0.166   4.328   8.677 -1.6500 -0.5132  1.3676
   58CHL1  H27B 6771  -0.012   4.256   8.595  0.5659  0.1988  0.7353
   58CHL1  H27C 6772  -0.170   4.166   8.600 -1.3022  3.6275 -1.8765
   59CHL1    C3 6773   0.638   4.085  10.433  0.7137 -0.0354  0.1815
   59CHL1    H3 6774   0.554   4.012  10.437  0.5930  0.1297  0.7410
   59CHL1    O3 6775   0.642   4.160  10.554  0.0271  0.1160 -0.5081
   59CHL1   H3' 6776   0.683   4.246  10.544 -0.9560  0.8013  1.0822
   59CHL1    C4 6777   0.769   4.021  10.400  0.0850  0.6327 -0.9199
   59CHL1   H4A 6778   0.835   4.110  10.412 -1.3821  1.5232  1.1623
   59CHL1   H4B 6779   0.794   3.955  10.486  0.3745 -0.6016 -1.9256
   59CHL1    C5 6780   0.772   3.951  10.266 -0.0370  0.1367  0.2202
   59CHL1    C6 6781   0.820   3.827  10.242 -0.2243 -0.8548 -0.0564
   59CHL1    H6 6782   0.849   3.761  10.325  0.9560 -3.0766 -2.0822
   59CHL1    C7 6783   0.831   3.770  10.104 -0.1824 -0.3981 -0.4376
   59CHL1   H7A 6784   0.933   3.729  10.088  1.1388  2.3966  0.3498
   59CHL1   H7B 6785   0.742   3.703  10.096  0.8211 -2.6409  3.8443
   59CHL1    C8 6786   0.827   3.879   9.990  0.1815 -0.1134  0.0199
   59CHL1    H8 6787   0.923   3.936   9.991 -0.3298  0.7637 -0.0383
   59CHL1   C14 6788   0.801   3.807   9.857  0.4060 -0.2705 -0.3348
   59CHL1   H14 6789   0.704   3.754   9.870  0.8425 -0.7888  1.0665
   59CHL1   C15 6790   0.898   3.695   9.820 -0.2076  0.3428  0.6634
   59CHL1  H15A 6791   1.004   3.726   9.834  0.0498 -0.7550  1.2747
   59CHL1  H15B 6792   0.895   3.612   9.894 -0.4332 -1.8276 -1.6002
   59CHL1   C16 6793   0.867   3.654   9.677 -0.0679 -0.1371  0.2562
   59CHL1  H16A 6794   0.961   3.643   9.619  0.2432  1.9398  0.2724
   59CHL1  H16B 6795   0.799   3.566   9.674 -2.5669  1.6814 -1.6152
   59CHL1   C17 6796   0.776   3.772   9.626 -0.4015  0.0028  0.4489
   59CHL1   H17 6797   0.672   3.733   9.635  1.2986 -5.3089  0.4522
   59CHL1   C13 6798   0.788   3.884   9.730 -0.6852 -0.9839 -0.2824
   59CHL1   C18 6799   0.918   3.966   9.717  0.1815 -0.3363  0.2424
   59CHL1  H18A 6800   0.902   4.037   9.633  2.4528 -0.6057 -0.4737
   59CHL1  H18B 6801   0.935   4.027   9.808  0.7937  0.8444 -0.6442
   59CHL1  H18C 6802   1.017   3.921   9.696  0.9396  1.4601 -0.2433
   59CHL1   C12 6803   0.667   3.972   9.752 -0.2035  0.2185 -0.2240
   59CHL1  H12A 6804   0.659   4.048   9.671  0.9726  1.0811  0.4398
   59CHL1  H12B 6805   0.575   3.910   9.747  0.3272 -0.6784  0.9011
   59CHL1   C11 6806   0.668   4.055   9.887 -0.8672  0.0809 -0.4088
   59CHL1  H11A 6807   0.745   4.133   9.867  0.0152 -1.2043 -2.2902
   59CHL1  H11B 6808   0.572   4.109   9.904 -1.2985 -0.5716 -0.7063
   59CHL1    C9 6809   0.708   3.969  10.015  0.9060 -0.7268  0.1675
   59CHL1    H9 6810   0.621   3.899  10.020 -0.4277  0.9522  1.2390
   59CHL1   C10 6811   0.723   4.041  10.154 -0.2654 -0.7213 -0.5168
   59CHL1   C19 6812   0.840   4.152  10.136 -0.1456  0.2093 -0.2564
   59CHL1  H19A 6813   0.801   4.215  10.053  0.6238  0.5180 -0.3928
   59CHL1  H19B 6814   0.851   4.211  10.229 -0.8873 -0.7938  0.4912
   59CHL1  H19C 6815   0.939   4.107  10.116 -0.8456 -1.3774 -0.2778
   59CHL1    C1 6816   0.596   4.120  10.186 -0.0652  0.3153  0.4625
   59CHL1   H1A 6817   0.602   4.206  10.115 -0.3722  0.6106  0.7908
   59CHL1   H1B 6818   0.504   4.060  10.172  0.2197 -0.5305  2.0080
   59CHL1    C2 6819   0.596   4.183  10.329 -0.0922 -0.2613  0.0193
   59CHL1   H2A 6820   0.488   4.209  10.340 -0.0683 -0.0028 -0.3411
   59CHL1   H2B 6821   0.663   4.272  10.333 -0.6685  0.2421 -1.2661
   59CHL1   C20 6822   0.785   3.798   9.477 -0.4500 -0.0556  0.2921
   59CHL1   H20 6823   0.891   3.819   9.451  0.3117 -2.6581  0.9475
   59CHL1   C21 6824   0.686   3.918   9.448 -0.0894 -0.3232  0.5512
   59CHL1  H21A 6825   0.740   4.012   9.471  0.1838  0.4671 -2.7617
   59CHL1  H21B 6826   0.588   3.913   9.501 -0.0087 -0.4325  0.6897
   59CHL1  H21C 6827   0.668   3.930   9.339 -0.8127 -0.3678  0.6586
   59CHL1   C22 6828   0.729   3.682   9.404 -0.3843 -0.2009 -0.2017
   59CHL1  H22A 6829   0.801   3.601   9.431  2.5307  2.3990  0.4016
   59CHL1  H22B 6830   0.626   3.669   9.444 -1.7529  2.1356 -2.6614
   59CHL1   C23 6831   0.724   3.687   9.254 -0.2538  0.4126  0.7596
   59CHL1  H23A 6832   0.656   3.769   9.223 -2.9833 -0.9100  2.8509
   59CHL1  H23B 6833   0.822   3.714   9.208 -1.2109 -0.8564 -2.2186
   59CHL1   C24 6834   0.682   3.551   9.199  0.0251 -0.5869 -0.3644
   59CHL1  H24A 6835   0.758   3.475   9.226  2.5316  1.8411 -0.1754
   59CHL1  H24B 6836   0.590   3.511   9.247 -1.2806  0.0442 -2.2445
   59CHL1   C25 6837   0.663   3.553   9.048  0.0084  0.3165  0.2040
   59CHL1   H25 6838   0.603   3.644   9.026  0.2130  0.2574 -0.6106
   59CHL1   C26 6839   0.796   3.583   8.969 -0.1863 -0.4674 -0.0203
   59CHL1  H26A 6840   0.878   3.521   9.013 -0.6814 -1.2692 -0.1963
   59CHL1  H26B 6841   0.778   3.565   8.861 -1.8544 -0.9228  0.2986
   59CHL1  H26C 6842   0.818   3.690   8.987 -0.8407 -0.1189 -1.2028
   59CHL1   C27 6843   0.585   3.437   8.991 -0.5097 -0.3132  0.1942
   59CHL1  H27A 6844   0.520   3.397   9.071 -0.2577 -1.5937 -0.2294
   59CHL1  H27B 6845   0.522   3.454   8.901 -0.1243 -1.1470 -0.2360
   59CHL1  H27C 6846   0.656   3.359   8.958  1.3006  0.6292  1.6744
   60CHL1    C3 6847   5.045   3.985  10.258  0.6293  0.1671  0.0429
   60CHL1    H3 6848   5.132   4.050  10.278 -1.3943  2.9491  0.3163
   60CHL1    O3 6849   5.006   3.955  10.389  0.5540 -0.0593 -0.2346
   60CHL1   H3' 6850   5.088   3.919  10.423  0.7523  1.5311  1.1176
   60CHL1    C4 6851   4.930   4.075  10.193 -1.1384  0.5197  0.4500
   60CHL1   H4A 6852   4.836   4.032  10.234  0.1758 -0.1700  2.9648
   60CHL1   H4B 6853   4.932   4.174  10.242  1.1998  0.3462  0.8068
   60CHL1    C5 6854   4.927   4.090  10.039 -0.8008  0.7466  0.2839
   60CHL1    C6 6855   4.923   4.210   9.985 -0.3046  0.9147 -0.1688
   60CHL1    H6 6856   4.906   4.294  10.053 -1.0029  0.0141  0.8008
   60CHL1    C7 6857   4.923   4.236   9.838  0.0546  0.3693 -0.4342
   60CHL1   H7A 6858   4.835   4.301   9.814  0.9714  1.5936 -0.5939
   60CHL1   H7B 6859   5.018   4.280   9.801 -0.4900  0.4122 -1.8684
   60CHL1    C8 6860   4.914   4.103   9.758 -0.8251  0.2107  0.2622
   60CHL1    H8 6861   4.810   4.064   9.759 -0.4502 -0.8166  0.4457
   60CHL1   C14 6862   4.955   4.130   9.608 -0.8871 -0.6923 -0.8270
   60CHL1   H14 6863   5.058   4.168   9.621 -1.9114  1.6586  1.2398
   60CHL1   C15 6864   4.879   4.232   9.523 -0.5537  0.7193  0.1429
   60CHL1  H15A 6865   4.773   4.198   9.531  0.1871 -2.0907 -0.9046
   60CHL1  H15B 6866   4.893   4.337   9.556  0.7591  0.3193  0.9620
   60CHL1   C16 6867   4.934   4.201   9.385 -0.0129  0.2290  0.2880
   60CHL1  H16A 6868   4.843   4.191   9.322  0.3071 -0.9215 -0.0122
   60CHL1  H16B 6869   5.002   4.281   9.348  0.2146  1.1294  2.4800
   60CHL1   C17 6870   5.010   4.065   9.399  0.4512  0.4036 -0.2892
   60CHL1   H17 6871   5.111   4.108   9.414  2.0817 -3.3693  0.5994
   60CHL1   C13 6872   4.959   4.002   9.528  0.0133 -0.7757 -0.3322
   60CHL1   C18 6873   4.820   3.934   9.516  0.6570  0.2664 -0.1692
   60CHL1  H18A 6874   4.835   3.860   9.434  1.4598  0.7974 -0.5177
   60CHL1  H18B 6875   4.768   3.895   9.606  0.2749 -2.9990 -1.6523
   60CHL1  H18C 6876   4.751   4.011   9.478  1.6964  1.4638  0.3127
   60CHL1   C12 6877   5.063   3.917   9.590 -0.6851  0.7801  0.3510
   60CHL1  H12A 6878   5.083   3.826   9.530  2.3384  1.3814  0.3306
   60CHL1  H12B 6879   5.157   3.976   9.586 -0.0601 -0.1560  0.8039
   60CHL1   C11 6880   5.021   3.875   9.729 -0.6037 -0.1558  0.6457
   60CHL1  H11A 6881   4.929   3.814   9.718  0.7322 -2.2464  0.2869
   60CHL1  H11B 6882   5.098   3.803   9.766 -1.0146 -0.3376  1.1580
   60CHL1    C9 6883   5.004   3.991   9.821 -0.5792 -0.1832  0.5374
   60CHL1    H9 6884   5.105   4.036   9.832 -0.5236 -0.0446 -0.4462
   60CHL1   C10 6885   4.952   3.950   9.963  0.1972 -0.0270  0.3825
   60CHL1   C19 6886   4.813   3.875   9.966  0.6895  0.9368  0.7506
   60CHL1  H19A 6887   4.747   3.885  10.056 -0.1026 -1.6991  0.5528
   60CHL1  H19B 6888   4.752   3.897   9.876 -0.3167 -1.8490  0.6451
   60CHL1  H19C 6889   4.832   3.766   9.957  1.9212  1.1543  0.5970
   60CHL1    C1 6890   5.065   3.870  10.035 -0.0578 -0.2449 -0.8673
   60CHL1   H1A 6891   5.056   3.766   9.996  1.3401 -1.2333  1.2833
   60CHL1   H1B 6892   5.168   3.904  10.010 -0.5103  0.1793 -2.2686
   60CHL1    C2 6893   5.049   3.854  10.183  0.0360  0.0150 -0.0544
   60CHL1   H2A 6894   5.144   3.805  10.214  1.8356  0.7593 -3.8258
   60CHL1   H2B 6895   4.961   3.794  10.216  1.5225 -2.8808 -1.0430
   60CHL1   C20 6896   5.021   3.967   9.280 -0.5472  0.0999 -0.3095
   60CHL1   H20 6897   4.963   3.875   9.303 -1.3152  0.3328 -1.2239
   60CHL1   C21 6898   5.168   3.919   9.266 -0.0681  0.0884  0.0359
   60CHL1  H21A 6899   5.177   3.857   9.174  2.4664  0.8187 -0.3072
   60CHL1  H21B 6900   5.215   3.875   9.357  0.6064  1.1605  0.2167
   60CHL1  H21C 6901   5.227   4.011   9.246 -0.0140  0.5320  2.0160
   60CHL1   C22 6902   4.968   4.025   9.151  0.1315  0.6718  0.2511
   60CHL1  H22A 6903   4.983   4.135   9.153  0.5469  0.6226  2.0670
   60CHL1  H22B 6904   5.040   3.975   9.083  0.4066 -0.1351  1.1146
   60CHL1   C23 6905   4.828   3.983   9.131 -0.1361 -0.4046 -0.4104
   60CHL1  H23A 6906   4.756   4.006   9.213 -1.5585 -0.3428 -1.6252
   60CHL1  H23B 6907   4.794   4.043   9.044 -1.8377 -0.5873  0.0839
   60CHL1   C24 6908   4.802   3.838   9.083  0.4216  0.3447 -0.5864
   60CHL1  H24A 6909   4.862   3.818   8.991  0.6794 -0.9193 -0.1600
   60CHL1  H24B 6910   4.834   3.756   9.150  0.7893 -0.1976 -1.4135
   60CHL1   C25 6911   4.650   3.809   9.063 -0.4351  0.1532 -0.4669
   60CHL1   H25 6912   4.589   3.822   9.155 -0.2111  0.2686 -0.3343
   60CHL1   C26 6913   4.582   3.901   8.957 -0.0199  0.0557  0.4706
   60CHL1  H26A 6914   4.562   4.003   8.994 -1.4133 -0.3885  0.9960
   60CHL1  H26B 6915   4.651   3.907   8.870 -1.2158  3.5795 -0.4012
   60CHL1  H26C 6916   4.483   3.857   8.934 -0.6108  0.1940  2.5704
   60CHL1   C27 6917   4.633   3.658   9.022  0.2242  0.2637  0.2659
   60CHL1  H27A 6918   4.675   3.584   9.093 -0.8357 -1.8343 -1.1792
   60CHL1  H27B 6919   4.523   3.650   9.007 -0.1155 -1.0145  2.7970
   60CHL1  H27C 6920   4.684   3.639   8.925 -1.2308  1.9015 -0.8957
   61CHL1    C3 6921   3.469   4.362  10.274  0.0909  0.0776  0.5024
   61CHL1    H3 6922   3.423   4.462  10.266  2.7657  1.3494 -0.0117
   61CHL1    O3 6923   3.494   4.346  10.410  0.0616  0.4179 -0.1539
   61CHL1   H3' 6924   3.558   4.416  10.429  1.8678 -0.7483 -1.5461
   61CHL1    C4 6925   3.363   4.263  10.225 -0.2069  0.8921 -0.1228
   61CHL1   H4A 6926   3.380   4.159  10.261 -0.2317  1.4565  1.6382
   61CHL1   H4B 6927   3.267   4.297  10.271  0.0896 -0.6502  1.7372
   61CHL1    C5 6928   3.353   4.279  10.071 -0.2449  0.8735  0.2310
   61CHL1    C6 6929   3.234   4.296  10.016 -0.0061 -0.7875 -0.5219
   61CHL1    H6 6930   3.146   4.304  10.081  0.9639 -1.5934  0.9465
   61CHL1    C7 6931   3.216   4.281   9.872  0.4368 -0.3449  0.3099
   61CHL1   H7A 6932   3.134   4.209   9.857  0.9535 -0.6378 -1.3152
   61CHL1   H7B 6933   3.184   4.379   9.830 -0.8927 -1.6607 -1.9519
   61CHL1    C8 6934   3.336   4.224   9.796  0.1154  0.8167 -0.2141
   61CHL1    H8 6935   3.337   4.114   9.816  2.8138  0.5601 -1.3762
   61CHL1   C14 6936   3.311   4.250   9.646  0.0515 -0.0136  0.5516
   61CHL1   H14 6937   3.293   4.359   9.634 -0.5958 -0.3540 -2.5198
   61CHL1   C15 6938   3.185   4.188   9.582 -0.1147 -0.2923  0.0772
   61CHL1  H15A 6939   3.196   4.078   9.577 -0.2955 -0.3039 -0.0899
   61CHL1  H15B 6940   3.089   4.222   9.627 -0.1298 -0.2141 -0.0126
   61CHL1   C16 6941   3.207   4.235   9.433  0.0125 -0.2758  0.3822
   61CHL1  H16A 6942   3.161   4.163   9.363  1.7847 -1.0670 -0.0097
   61CHL1  H16B 6943   3.146   4.328   9.420  0.2676  0.0328  1.2539
   61CHL1   C17 6944   3.365   4.276   9.422 -0.3929  0.8841 -0.3552
   61CHL1   H17 6945   3.374   4.386   9.434  2.0645  0.6936 -0.0238
   61CHL1   C13 6946   3.433   4.227   9.553 -0.1018 -0.2052  0.0276
   61CHL1   C18 6947   3.462   4.073   9.542 -0.1888 -0.2396  0.1657
   61CHL1  H18A 6948   3.389   4.027   9.472  0.5137 -2.2005  0.6600
   61CHL1  H18B 6949   3.565   4.064   9.502  0.1064 -3.0294  1.3364
   61CHL1  H18C 6950   3.453   4.012   9.635 -0.6238  1.2573  1.1560
   61CHL1   C12 6951   3.551   4.307   9.607 -1.2574 -0.1606 -0.2510
   61CHL1  H12A 6952   3.643   4.309   9.544  0.7166  0.3425  2.4437
   61CHL1  H12B 6953   3.523   4.414   9.623 -0.4461 -0.1055  0.9185
   61CHL1   C11 6954   3.580   4.258   9.755  0.1455  1.3880  0.4703
   61CHL1  H11A 6955   3.595   4.148   9.748  0.3308  1.1152  3.5681
   61CHL1  H11B 6956   3.669   4.314   9.790  0.8143  0.7485 -0.1869
   61CHL1    C9 6957   3.462   4.291   9.844 -1.1300 -0.2085 -0.0717
   61CHL1    H9 6958   3.440   4.399   9.834  0.6727  0.2431  0.5016
   61CHL1   C10 6959   3.487   4.266   9.996  0.4197 -0.0242 -0.8837
   61CHL1   C19 6960   3.548   4.125  10.016  0.0804  0.3074 -0.7184
   61CHL1  H19A 6961   3.645   4.115   9.964 -0.5087 -1.6584 -1.5096
   61CHL1  H19B 6962   3.576   4.113  10.123  2.1711 -1.7764 -1.4017
   61CHL1  H19C 6963   3.485   4.040   9.984 -0.0925  0.2989 -0.3679
   61CHL1    C1 6964   3.586   4.378  10.045  0.3798  0.2263  0.5101
   61CHL1   H1A 6965   3.684   4.371   9.992  1.1670  0.8191  1.8329
   61CHL1   H1B 6966   3.539   4.478  10.032 -1.1575 -0.4694  0.5285
   61CHL1    C2 6967   3.604   4.371  10.193 -0.6416 -0.1682 -0.5398
   61CHL1   H2A 6968   3.663   4.450  10.244 -0.2479 -1.0440  0.3950
   61CHL1   H2B 6969   3.660   4.280  10.221 -0.4799  0.2583  0.5930
   61CHL1   C20 6970   3.417   4.245   9.282  0.8763  0.4392 -0.4010
   61CHL1   H20 6971   3.406   4.136   9.267 -4.5064  0.7266 -0.2609
   61CHL1   C21 6972   3.557   4.303   9.274 -0.2093  0.2937 -0.4160
   61CHL1  H21A 6973   3.607   4.280   9.178  1.8716  1.3142  0.3648
   61CHL1  H21B 6974   3.613   4.250   9.353 -1.3946  1.5765  1.3741
   61CHL1  H21C 6975   3.573   4.409   9.305  1.2093 -0.1416  0.4096
   61CHL1   C22 6976   3.326   4.295   9.165 -0.5591  0.5364 -0.4548
   61CHL1  H22A 6977   3.219   4.269   9.179  0.0257 -1.1581  1.3528
   61CHL1  H22B 6978   3.332   4.406   9.167 -3.3249  0.7842  2.0390
   61CHL1   C23 6979   3.384   4.254   9.021 -0.0138 -0.3089  0.5165
   61CHL1  H23A 6980   3.488   4.289   9.009  0.1816 -1.6093 -2.2387
   61CHL1  H23B 6981   3.380   4.144   9.012 -3.0408 -0.2661  0.1506
   61CHL1   C24 6982   3.301   4.311   8.900  0.1689 -0.0016 -1.0088
   61CHL1  H24A 6983   3.201   4.262   8.900  1.1593 -2.1466  0.3606
   61CHL1  H24B 6984   3.284   4.420   8.919 -2.9983 -0.8994  2.6491
   61CHL1   C25 6985   3.346   4.294   8.755  0.0934 -0.4786 -0.0047
   61CHL1   H25 6986   3.383   4.191   8.736  3.9009  0.6745  0.1977
   61CHL1   C26 6987   3.241   4.335   8.655  0.3962 -0.0226  0.5779
   61CHL1  H26A 6988   3.267   4.292   8.555  0.6794 -1.5293  1.2758
   61CHL1  H26B 6989   3.141   4.302   8.688  0.6217 -0.2709  1.0204
   61CHL1  H26C 6990   3.234   4.445   8.640 -0.3936 -0.4332 -3.2982
   61CHL1   C27 6991   3.470   4.379   8.731 -0.6743  0.0264 -0.2245
   61CHL1  H27A 6992   3.546   4.337   8.800  0.3388  2.9167  0.5808
   61CHL1  H27B 6993   3.511   4.357   8.630  1.1899 -0.6114  0.6449
   61CHL1  H27C 6994   3.461   4.490   8.737 -0.5423  0.0436 -0.3178
   62CHL1    C3 6995   3.460   6.793  10.290  1.1493 -0.4578 -0.1864
   62CHL1    H3 6996   3.558   6.809  10.241  0.4048  3.2525 -0.7477
   62CHL1    O3 6997   3.485   6.798  10.430 -0.0082  0.3700  0.0824
   62CHL1   H3' 6998   3.431   6.727  10.467 -0.1586  0.7568  0.6235
   62CHL1    C4 6999   3.359   6.904  10.254 -0.3047 -0.7226 -0.6452
   62CHL1   H4A 7000   3.270   6.894  10.321  0.2191  1.6191  0.5001
   62CHL1   H4B 7001   3.414   6.998  10.273  0.2946 -1.2798  0.4710
   62CHL1    C5 7002   3.318   6.893  10.110  0.9526 -0.8164 -0.3998
   62CHL1    C6 7003   3.326   7.003  10.034  0.8193 -0.6764  0.2310
   62CHL1    H6 7004   3.355   7.097  10.082  2.5460 -0.6927 -0.6927
   62CHL1    C7 7005   3.294   7.008   9.886  0.0814 -0.5888 -0.5769
   62CHL1   H7A 7006   3.240   7.099   9.856 -2.6273 -2.3694 -1.4643
   62CHL1   H7B 7007   3.392   7.031   9.839  0.4039  1.2717  0.9102
   62CHL1    C8 7008   3.227   6.886   9.834  0.4080  0.4295  0.8377
   62CHL1    H8 7009   3.120   6.894   9.864  0.1247  0.6074 -0.1914
   62CHL1   C14 7010   3.231   6.882   9.681 -0.0333  0.0910 -0.0552
   62CHL1   H14 7011   3.339   6.872   9.658 -0.3546 -1.7373 -1.0020
   62CHL1   C15 7012   3.175   6.990   9.600  0.2104 -0.2265 -0.1255
   62CHL1  H15A 7013   3.067   7.003   9.626 -0.9675 -2.6972 -3.0945
   62CHL1  H15B 7014   3.240   7.079   9.607  0.6633 -0.5851  0.2971
   62CHL1   C16 7015   3.166   6.930   9.458  0.5976 -0.3218 -0.9506
   62CHL1  H16A 7016   3.062   6.945   9.420  0.6401 -0.4118 -1.1032
   62CHL1  H16B 7017   3.244   6.977   9.394  2.3590 -1.8323 -0.0107
   62CHL1   C17 7018   3.205   6.782   9.478 -0.5514  0.0414  0.4954
   62CHL1   H17 7019   3.316   6.788   9.470 -0.5423 -0.4300  0.2903
   62CHL1   C13 7020   3.172   6.748   9.625 -0.6023  0.2898 -0.8092
   62CHL1   C18 7021   3.018   6.735   9.639 -0.5681 -0.5161  0.3581
   62CHL1  H18A 7022   2.974   6.727   9.741  1.3226 -1.8070  1.1113
   62CHL1  H18B 7023   2.969   6.825   9.596  0.6820 -0.2788 -0.6166
   62CHL1  H18C 7024   2.990   6.647   9.578  1.3653 -0.3359 -0.8749
   62CHL1   C12 7025   3.245   6.632   9.681  0.3937  0.5902 -0.4101
   62CHL1  H12A 7026   3.223   6.531   9.640  1.0276  0.7038 -1.0567
   62CHL1  H12B 7027   3.354   6.645   9.665  0.2925  1.2465 -0.5946
   62CHL1   C11 7028   3.236   6.629   9.829 -0.0176 -0.3091  0.4024
   62CHL1  H11A 7029   3.129   6.616   9.856 -0.2919 -0.5498 -0.7330
   62CHL1  H11B 7030   3.288   6.539   9.871 -1.3423 -0.2883  2.1775
   62CHL1    C9 7031   3.283   6.759   9.899  0.6031 -0.2275  0.5292
   62CHL1    H9 7032   3.391   6.765   9.873  0.0753 -2.8901 -3.2166
   62CHL1   C10 7033   3.277   6.749  10.049  0.4880 -0.6470  0.0953
   62CHL1   C19 7034   3.131   6.723  10.094  0.9808  0.4607 -0.0948
   62CHL1  H19A 7035   3.123   6.737  10.204  1.2946 -0.6430  0.0789
   62CHL1  H19B 7036   3.055   6.791  10.050  0.7748 -0.0720 -0.5705
   62CHL1  H19C 7037   3.098   6.619  10.074  1.2784  0.3077  0.1907
   62CHL1    C1 7038   3.373   6.637  10.099 -0.2788  0.2984  0.1255
   62CHL1   H1A 7039   3.343   6.533  10.073 -0.7857  0.2179  1.0173
   62CHL1   H1B 7040   3.465   6.671  10.046 -0.1299  2.9550  1.9051
   62CHL1    C2 7041   3.421   6.649  10.248 -0.2570 -0.1309  0.5980
   62CHL1   H2A 7042   3.514   6.590  10.262  0.9240  1.4532 -0.2138
   62CHL1   H2B 7043   3.338   6.613  10.313 -0.1028  1.3502  1.6663
   62CHL1   C20 7044   3.165   6.683   9.368 -0.0058  0.0971  0.6214
   62CHL1   H20 7045   3.129   6.592   9.422 -3.5085  0.7014 -0.4273
   62CHL1   C21 7046   3.283   6.643   9.285  0.2873 -0.1373  0.5917
   62CHL1  H21A 7047   3.267   6.568   9.204 -1.0889  0.2927  0.4437
   62CHL1  H21B 7048   3.353   6.595   9.356  3.5976  0.2630 -2.1142
   62CHL1  H21C 7049   3.319   6.740   9.243  0.8311 -0.5644  0.0554
   62CHL1   C22 7050   3.033   6.726   9.287  0.5100  0.5369  0.5531
   62CHL1  H22A 7051   2.952   6.746   9.361 -1.2773 -1.1740 -0.8182
   62CHL1  H22B 7052   3.054   6.818   9.229 -1.1739  0.4977 -0.1883
   62CHL1   C23 7053   2.982   6.611   9.206 -1.2336 -0.2846 -0.8915
   62CHL1  H23A 7054   3.067   6.588   9.137 -1.2894  1.5254 -1.6109
   62CHL1  H23B 7055   2.956   6.523   9.269  2.4776 -0.0736  1.2115
   62CHL1   C24 7056   2.855   6.651   9.129  0.2338 -0.0466 -0.7612
   62CHL1  H24A 7057   2.780   6.663   9.210 -0.2499  0.6858 -1.3091
   62CHL1  H24B 7058   2.871   6.753   9.088 -3.4963  0.8814 -0.2789
   62CHL1   C25 7059   2.821   6.547   9.018  0.2304  0.5609 -0.4161
   62CHL1   H25 7060   2.806   6.446   9.062  1.4395 -0.2717 -1.8355
   62CHL1   C26 7061   2.697   6.602   8.948 -0.7371  0.2302  0.1696
   62CHL1  H26A 7062   2.623   6.631   9.025  0.0084  0.6558  0.7518
   62CHL1  H26B 7063   2.724   6.695   8.892  2.4774 -0.0009  1.1020
   62CHL1  H26C 7064   2.661   6.524   8.878 -0.6227 -0.4653  0.8756
   62CHL1   C27 7065   2.930   6.536   8.906 -0.2361 -0.0136 -0.0889
   62CHL1  H27A 7066   2.898   6.461   8.831 -0.6350  2.1452 -2.2395
   62CHL1  H27B 7067   2.960   6.635   8.863  0.1583 -0.4833 -0.9113
   62CHL1  H27C 7068   3.022   6.494   8.952  0.4920  1.0070 -0.5618
   63CHL1    C3 7069   4.371   3.514  10.450 -0.0859  0.4153  0.0634
   63CHL1    H3 7070   4.267   3.538  10.420  0.2337  1.1177 -0.5275
   63CHL1    O3 7071   4.376   3.511  10.589  0.0602 -0.3462 -0.3500
   63CHL1   H3' 7072   4.350   3.601  10.607  0.1853 -0.4789  0.5109
   63CHL1    C4 7073   4.417   3.373  10.395  0.7805  0.7716  0.0525
   63CHL1   H4A 7074   4.516   3.348  10.438 -0.7874 -2.9746  2.0376
   63CHL1   H4B 7075   4.343   3.303  10.441 -0.3222 -0.4014 -3.2051
   63CHL1    C5 7076   4.402   3.385  10.239 -1.2394  0.6380 -0.1778
   63CHL1    C6 7077   4.323   3.305  10.157  0.0757  0.0194 -0.6920
   63CHL1    H6 7078   4.265   3.224  10.203 -0.8617  0.2758 -1.3984
   63CHL1    C7 7079   4.305   3.316  10.011 -0.5685  0.1022 -0.0222
   63CHL1   H7A 7080   4.317   3.221   9.957 -2.1648  0.1499 -0.5311
   63CHL1   H7B 7081   4.200   3.346   9.990 -0.5211  2.4556  2.5097
   63CHL1    C8 7082   4.400   3.418   9.943 -0.0337 -0.1947  0.5308
   63CHL1    H8 7083   4.496   3.362   9.936 -0.8078 -1.4558 -0.5203
   63CHL1   C14 7084   4.344   3.471   9.810 -0.0359  0.1848 -0.1788
   63CHL1   H14 7085   4.249   3.519   9.843 -0.7670 -1.5289  0.3288
   63CHL1   C15 7086   4.313   3.357   9.713  0.0658  0.3040  0.0140
   63CHL1  H15A 7087   4.387   3.274   9.719 -0.1522  0.1916  1.7062
   63CHL1  H15B 7088   4.217   3.302   9.732 -1.6873  2.6846 -1.4215
   63CHL1   C16 7089   4.314   3.425   9.572  0.3790 -0.3716 -0.3469
   63CHL1  H16A 7090   4.385   3.369   9.508  1.2685 -0.6743  0.8740
   63CHL1  H16B 7091   4.210   3.418   9.535  0.5358  0.4645 -0.9735
   63CHL1   C17 7092   4.358   3.566   9.594  0.2003 -0.4701  0.7646
   63CHL1   H17 7093   4.261   3.618   9.612 -0.1963 -0.0851 -2.0523
   63CHL1   C13 7094   4.431   3.569   9.734  0.1147 -0.2535  0.1972
   63CHL1   C18 7095   4.571   3.517   9.715 -0.1305 -0.4952  0.2923
   63CHL1  H18A 7096   4.634   3.587   9.656 -0.3577 -0.5672 -0.0390
   63CHL1  H18B 7097   4.616   3.507   9.816 -2.2551  1.0824  1.4842
   63CHL1  H18C 7098   4.575   3.415   9.671 -1.0559 -0.1565 -0.6135
   63CHL1   C12 7099   4.426   3.692   9.825 -0.3012 -0.4341 -1.2188
   63CHL1  H12A 7100   4.471   3.782   9.777 -0.2502 -1.5100 -3.3112
   63CHL1  H12B 7101   4.321   3.718   9.848  0.3146  0.2671  1.0109
   63CHL1   C11 7102   4.486   3.667   9.963 -0.0968  0.1599 -0.0119
   63CHL1  H11A 7103   4.597   3.663   9.956 -0.1227 -2.3405  0.1255
   63CHL1  H11B 7104   4.453   3.755  10.023 -0.4865  0.2125 -0.2984
   63CHL1    C9 7105   4.415   3.542  10.031 -0.2376  1.0745 -0.4505
   63CHL1    H9 7106   4.312   3.583  10.042 -0.9254 -1.0434  1.8276
   63CHL1   C10 7107   4.471   3.505  10.172 -0.3872  0.4543  0.0268
   63CHL1   C19 7108   4.620   3.476  10.152 -0.2705 -0.0152 -0.5142
   63CHL1  H19A 7109   4.636   3.407  10.067 -1.1392  0.3388 -0.9847
   63CHL1  H19B 7110   4.674   3.562  10.105 -2.3314  0.9398 -1.2660
   63CHL1  H19C 7111   4.681   3.450  10.241  0.3582  2.9888  0.0532
   63CHL1    C1 7112   4.460   3.638  10.263 -0.4494  0.6378 -0.3887
   63CHL1   H1A 7113   4.549   3.697  10.231  1.2216 -1.2414  0.5197
   63CHL1   H1B 7114   4.365   3.692  10.246 -1.1159  0.0021  1.0917
   63CHL1    C2 7115   4.467   3.619  10.414  0.3275 -0.1433 -0.3807
   63CHL1   H2A 7116   4.445   3.711  10.472  0.8993 -0.6808  0.7105
   63CHL1   H2B 7117   4.569   3.592  10.448 -0.2899 -0.1838  1.5500
   63CHL1   C20 7118   4.428   3.639   9.481 -0.0152 -0.9379  0.3524
   63CHL1   H20 7119   4.524   3.593   9.452 -0.3286  0.4200 -3.4601
   63CHL1   C21 7120   4.477   3.783   9.525  0.3524  0.4112 -0.2970
   63CHL1  H21A 7121   4.567   3.779   9.590 -0.2929 -0.5459  0.5745
   63CHL1  H21B 7122   4.392   3.841   9.567 -0.3290 -1.9818  1.9558
   63CHL1  H21C 7123   4.531   3.832   9.442  2.7834  2.1742  2.1512
   63CHL1   C22 7124   4.351   3.652   9.347 -0.1952  0.0009 -1.1201
   63CHL1  H22A 7125   4.402   3.712   9.270 -1.5632  0.0782 -2.0004
   63CHL1  H22B 7126   4.330   3.548   9.315  2.5069 -0.7327 -0.7029
   63CHL1   C23 7127   4.208   3.710   9.356 -0.0233  0.1705 -0.5669
   63CHL1  H23A 7128   4.148   3.652   9.429  1.1228  0.0262  0.2851
   63CHL1  H23B 7129   4.207   3.818   9.384 -1.0140  0.6231 -2.2243
   63CHL1   C24 7130   4.135   3.713   9.220  0.4180 -0.7306 -0.5422
   63CHL1  H24A 7131   4.032   3.756   9.221 -0.2743 -2.1304  2.8134
   63CHL1  H24B 7132   4.188   3.791   9.161  1.4355 -0.8272  0.2222
   63CHL1   C25 7133   4.144   3.587   9.131  0.1905 -0.4699 -0.3373
   63CHL1   H25 7134   4.241   3.535   9.140  1.0252  1.2770  1.7380
   63CHL1   C26 7135   4.040   3.487   9.183  0.0424  0.0150 -0.2213
   63CHL1  H26A 7136   4.026   3.407   9.107  0.2356 -0.4715  0.2470
   63CHL1  H26B 7137   4.082   3.441   9.275  0.6142 -1.8508 -1.3717
   63CHL1  H26C 7138   3.935   3.522   9.195 -1.6653 -4.8218  1.5336
   63CHL1   C27 7139   4.122   3.626   8.982  0.2121  0.4160  0.1627
   63CHL1  H27A 7140   4.019   3.646   8.946  0.1513 -2.1872 -1.3319
   63CHL1  H27B 7141   4.194   3.702   8.947 -1.5428  1.2970 -1.7216
   63CHL1  H27C 7142   4.139   3.538   8.916  0.7785  1.7072 -1.4816
   64CHL1    C3 7143   4.681   0.416  10.121  0.1185 -0.1579  0.1870
   64CHL1    H3 7144   4.576   0.388  10.098  0.2627 -0.2083 -0.4183
   64CHL1    O3 7145   4.684   0.496  10.237 -0.5082  0.2129 -0.1021
   64CHL1   H3' 7146   4.756   0.467  10.293  0.5824 -0.7777 -1.9114
   64CHL1    C4 7147   4.755   0.283  10.148 -0.0717 -0.1023  0.8055
   64CHL1   H4A 7148   4.859   0.318  10.165 -0.6268  3.3222 -1.6947
   64CHL1   H4B 7149   4.730   0.246  10.250 -0.4874  0.8009  1.0427
   64CHL1    C5 7150   4.761   0.179  10.040  0.6714  0.3093  0.3510
   64CHL1    C6 7151   4.708   0.053  10.056 -0.2936  0.6183  0.4589
   64CHL1    H6 7152   4.667   0.010  10.149  1.1839 -2.4184 -0.1532
   64CHL1    C7 7153   4.725  -0.057   9.949  0.2822  0.1375 -0.6029
   64CHL1   H7A 7154   4.770  -0.142  10.003 -1.2538  0.5549  1.4607
   64CHL1   H7B 7155   4.620  -0.089   9.928  0.1393  1.1082 -1.4580
   64CHL1    C8 7156   4.801  -0.011   9.824  0.4769  0.1447  0.0432
   64CHL1    H8 7157   4.909  -0.028   9.844  1.0202  1.6325 -1.3815
   64CHL1   C14 7158   4.764  -0.093   9.701 -0.2770  0.7619 -0.4089
   64CHL1   H14 7159   4.656  -0.071   9.682 -0.3511  1.1733  0.4666
   64CHL1   C15 7160   4.778  -0.245   9.722  0.2809 -0.6537 -0.3829
   64CHL1  H15A 7161   4.879  -0.266   9.763  0.3134  0.0943 -0.0788
   64CHL1  H15B 7162   4.709  -0.289   9.797 -0.4745  2.5578  0.9349
   64CHL1   C16 7163   4.773  -0.304   9.577 -0.5844  0.5986 -0.0212
   64CHL1  H16A 7164   4.872  -0.350   9.558  0.2589  2.3012  0.0400
   64CHL1  H16B 7165   4.686  -0.372   9.576 -1.1624  1.1377  3.1963
   64CHL1   C17 7166   4.777  -0.181   9.476 -0.2329  0.4237  0.0581
   64CHL1   H17 7167   4.673  -0.162   9.441  0.9968  2.7540 -2.7801
   64CHL1   C13 7168   4.835  -0.066   9.568 -0.3817  0.0168 -0.9697
   64CHL1   C18 7169   4.994  -0.078   9.581  0.4798  1.0369 -0.3602
   64CHL1  H18A 7170   5.045  -0.008   9.651  1.1018  0.2191  0.0236
   64CHL1  H18B 7171   5.012  -0.175   9.631 -0.7456  0.9976  0.0265
   64CHL1  H18C 7172   5.048  -0.065   9.484  1.0898  3.9247  0.2729
   64CHL1   C12 7173   4.808   0.084   9.536  0.6862  0.5329  0.2349
   64CHL1  H12A 7174   4.864   0.119   9.447  0.0204 -0.4541 -0.5888
   64CHL1  H12B 7175   4.702   0.101   9.506  1.0751  1.4326 -0.6813
   64CHL1   C11 7176   4.845   0.180   9.654 -0.2527  0.5225 -0.2036
   64CHL1  H11A 7177   4.955   0.190   9.663 -0.2355 -0.7280  1.8141
   64CHL1  H11B 7178   4.798   0.274   9.620 -2.9658 -0.4596  0.5231
   64CHL1    C9 7179   4.781   0.139   9.788  0.4304 -0.3975  0.6408
   64CHL1    H9 7180   4.672   0.130   9.767  0.5790 -0.0609 -0.3379
   64CHL1   C10 7181   4.808   0.237   9.908 -0.0477  0.2880  0.1830
   64CHL1   C19 7182   4.964   0.258   9.919 -0.3174  0.0022 -0.0968
   64CHL1  H19A 7183   5.013   0.160   9.938 -0.7649 -0.5390 -1.6135
   64CHL1  H19B 7184   5.008   0.307   9.830 -2.0518  1.2787 -0.3029
   64CHL1  H19C 7185   4.990   0.318  10.008  3.1698 -2.5324  0.8396
   64CHL1    C1 7186   4.743   0.376   9.884 -0.2144  0.7655 -0.6423
   64CHL1   H1A 7187   4.807   0.429   9.810  0.3854 -0.0026 -0.6941
   64CHL1   H1B 7188   4.643   0.359   9.838  0.4265  1.6543 -2.4755
   64CHL1    C2 7189   4.732   0.475   9.993  0.2344  0.0996 -0.1257
   64CHL1   H2A 7190   4.671   0.564   9.967 -1.7364 -1.3646 -0.8067
   64CHL1   H2B 7191   4.833   0.519  10.011 -0.0655  0.3003  1.1288
   64CHL1   C20 7192   4.854  -0.213   9.351 -0.2044 -0.2466 -0.6596
   64CHL1   H20 7193   4.952  -0.251   9.386 -1.4028 -2.7205  0.2402
   64CHL1   C21 7194   4.866  -0.088   9.256 -0.8152  0.5812 -0.3838
   64CHL1  H21A 7195   4.929  -0.129   9.174 -0.5494 -3.6698  1.7197
   64CHL1  H21B 7196   4.930  -0.011   9.303  0.4384 -1.1381  0.8485
   64CHL1  H21C 7197   4.761  -0.061   9.230 -1.1657  0.3402  0.7187
   64CHL1   C22 7198   4.788  -0.339   9.282 -0.4642 -0.9633 -0.7464
   64CHL1  H22A 7199   4.778  -0.424   9.352 -0.5283 -0.8794 -0.6522
   64CHL1  H22B 7200   4.689  -0.293   9.258  0.4156  0.9551 -0.8658
   64CHL1   C23 7201   4.863  -0.398   9.162  0.4071  0.2700 -0.1865
   64CHL1  H23A 7202   4.885  -0.314   9.092  0.6989  0.2655 -0.1015
   64CHL1  H23B 7203   4.961  -0.436   9.196  0.9514  1.8473  0.1055
   64CHL1   C24 7204   4.792  -0.512   9.083 -0.4415  0.6718 -0.0134
   64CHL1  H24A 7205   4.795  -0.610   9.136 -1.7989  0.0910 -0.9493
   64CHL1  H24B 7206   4.685  -0.485   9.071 -0.5338  0.7788  1.0016
   64CHL1   C25 7207   4.843  -0.536   8.940 -0.3411 -0.2069  1.2092
   64CHL1   H25 7208   4.842  -0.441   8.883  0.9822  0.7436  2.6875
   64CHL1   C26 7209   4.983  -0.598   8.924 -1.1520 -0.1365 -0.5236
   64CHL1  H26A 7210   5.000  -0.703   8.958  3.4296  0.7291  0.5724
   64CHL1  H26B 7211   5.015  -0.598   8.817 -0.8629 -0.1888 -0.4381
   64CHL1  H26C 7212   5.059  -0.530   8.968  1.7904 -2.9488 -0.8009
   64CHL1   C27 7213   4.743  -0.637   8.872  0.6533  0.3398 -0.0286
   64CHL1  H27A 7214   4.756  -0.639   8.762  1.9084  1.4477  0.0709
   64CHL1  H27B 7215   4.770  -0.738   8.911  1.5231  0.2852 -0.7654
   64CHL1  H27C 7216   4.636  -0.612   8.891  0.0361 -2.3380  0.3928
   65CHL1    C3 7217   6.513   3.346  10.302  0.4151  0.5591 -0.0216
   65CHL1    H3 7218   6.420   3.285  10.304  1.0997 -0.4997  0.4817
   65CHL1    O3 7219   6.550   3.377  10.430 -0.0755 -0.1324  0.2280
   65CHL1   H3' 7220   6.613   3.307  10.450  0.0937  0.1579  0.7304
   65CHL1    C4 7221   6.635   3.286  10.226  0.4979 -1.4019 -0.4040
   65CHL1   H4A 7222   6.717   3.360  10.238  0.3748 -1.1226 -1.1978
   65CHL1   H4B 7223   6.655   3.187  10.272 -3.2149 -1.3078  1.8040
   65CHL1    C5 7224   6.597   3.282  10.074  0.3843 -0.7679  0.0906
   65CHL1    C6 7225   6.611   3.160  10.008 -0.3996 -0.3670  0.2529
   65CHL1    H6 7226   6.630   3.069  10.067 -4.6385 -0.6947  1.4458
   65CHL1    C7 7227   6.584   3.145   9.862 -0.0603 -0.2280  0.1751
   65CHL1   H7A 7228   6.643   3.065   9.813 -0.6394 -0.0069 -0.9361
   65CHL1   H7B 7229   6.477   3.114   9.854 -0.3707  1.1489 -1.9715
   65CHL1    C8 7230   6.594   3.286   9.786 -0.1312  0.5174 -0.0188
   65CHL1    H8 7231   6.700   3.320   9.781 -0.2374  0.7120 -1.2163
   65CHL1   C14 7232   6.553   3.264   9.646  0.2736  0.0837  0.3648
   65CHL1   H14 7233   6.461   3.202   9.651 -0.2462  0.8206  0.0208
   65CHL1   C15 7234   6.647   3.179   9.555 -0.1313 -0.2013  0.4137
   65CHL1  H15A 7235   6.755   3.203   9.568  0.5222 -2.3015 -0.6233
   65CHL1  H15B 7236   6.648   3.070   9.576  3.2929 -0.1441  1.1431
   65CHL1   C16 7237   6.618   3.222   9.410 -0.6385  0.1243  0.5153
   65CHL1  H16A 7238   6.713   3.257   9.364 -0.7634 -2.5434 -2.1318
   65CHL1  H16B 7239   6.589   3.124   9.367 -0.8430 -1.4240  3.8840
   65CHL1   C17 7240   6.507   3.326   9.432  0.3003  1.1382  0.2537
   65CHL1   H17 7241   6.415   3.264   9.442  1.5261 -0.5879  1.4605
   65CHL1   C13 7242   6.529   3.393   9.566 -0.0453  0.6870  0.2067
   65CHL1   C18 7243   6.664   3.474   9.553  0.0682 -0.9216 -1.0831
   65CHL1  H18A 7244   6.641   3.567   9.496  0.1075 -0.7362 -0.8001
   65CHL1  H18B 7245   6.706   3.511   9.649 -3.0978 -1.7172  0.7613
   65CHL1  H18C 7246   6.748   3.425   9.500  0.0664  0.6813 -2.6840
   65CHL1   C12 7247   6.409   3.475   9.634  0.0222 -0.1552 -0.5394
   65CHL1  H12A 7248   6.417   3.566   9.571 -1.2674  1.3461  1.3438
   65CHL1  H12B 7249   6.311   3.426   9.620 -0.6025  1.2626 -1.3859
   65CHL1   C11 7250   6.456   3.508   9.778 -0.2427  0.7277 -0.0280
   65CHL1  H11A 7251   6.543   3.574   9.760 -0.1545  0.4710 -0.5824
   65CHL1  H11B 7252   6.375   3.563   9.830 -0.5283  0.5459 -0.2753
   65CHL1    C9 7253   6.498   3.379   9.861 -0.1525  0.1846  0.1687
   65CHL1    H9 7254   6.404   3.320   9.868 -0.8677  1.2754 -0.1149
   65CHL1   C10 7255   6.546   3.407  10.003 -0.3883 -0.1871 -0.6343
   65CHL1   C19 7256   6.663   3.511   9.993 -0.3928  0.0341  0.2949
   65CHL1  H19A 7257   6.615   3.607   9.966 -1.0661 -0.5356 -0.5719
   65CHL1  H19B 7258   6.727   3.528  10.083  1.4158  0.5294 -1.0168
   65CHL1  H19C 7259   6.727   3.476   9.909 -0.6966 -0.9057  0.4423
   65CHL1    C1 7260   6.434   3.467  10.090  0.0067 -0.4829 -0.0728
   65CHL1   H1A 7261   6.414   3.571  10.057  0.7548  0.1241  1.2864
   65CHL1   H1B 7262   6.335   3.419  10.082  1.4215 -3.2745 -2.1500
   65CHL1    C2 7263   6.471   3.482  10.239  0.5521  0.1696  0.1804
   65CHL1   H2A 7264   6.390   3.538  10.289 -0.4251  1.3382 -2.5079
   65CHL1   H2B 7265   6.555   3.555  10.232  0.1312  0.4920 -3.5799
   65CHL1   C20 7266   6.479   3.417   9.307 -0.1585  0.3919 -0.0966
   65CHL1   H20 7267   6.566   3.484   9.294 -0.7646  1.1682 -0.2177
   65CHL1   C21 7268   6.339   3.487   9.327  0.6769 -0.2043  0.3404
   65CHL1  H21A 7269   6.352   3.589   9.368 -1.3830  0.1032  0.3661
   65CHL1  H21B 7270   6.282   3.419   9.395 -1.5572  0.9967 -0.2153
   65CHL1  H21C 7271   6.280   3.504   9.234  1.2924  0.1957  0.0209
   65CHL1   C22 7272   6.468   3.330   9.175 -0.0189 -0.2979  0.3692
   65CHL1  H22A 7273   6.443   3.406   9.098  0.5062  0.3132  0.7872
   65CHL1  H22B 7274   6.567   3.286   9.155  0.7862  2.0771 -1.3046
   65CHL1   C23 7275   6.344   3.232   9.176 -0.2748  0.7330  0.5683
   65CHL1  H23A 7276   6.348   3.157   9.258 -1.6795 -1.2457 -1.0628
   65CHL1  H23B 7277   6.246   3.282   9.182 -1.5348 -1.3552 -1.0302
   65CHL1   C24 7278   6.331   3.146   9.050 -0.6782 -0.7968  0.6768
   65CHL1  H24A 7279   6.336   3.208   8.958 -1.3566 -1.7512 -0.0299
   65CHL1  H24B 7280   6.418   3.079   9.036  0.1159  0.3477 -0.0277
   65CHL1   C25 7281   6.201   3.064   9.058 -0.0455 -0.2576  0.6391
   65CHL1   H25 7282   6.113   3.130   9.077 -0.9262 -1.1943 -0.1290
   65CHL1   C26 7283   6.178   3.013   8.923 -0.0153 -0.1828 -0.0433
   65CHL1  H26A 7284   6.091   2.943   8.929 -2.0794  2.1303 -1.1992
   65CHL1  H26B 7285   6.137   3.090   8.854  0.2619  0.0557  0.0627
   65CHL1  H26C 7286   6.262   2.957   8.877 -1.0618 -2.8070  1.0043
   65CHL1   C27 7287   6.193   2.959   9.174 -0.4647 -0.1087  0.8112
   65CHL1  H27A 7288   6.168   2.999   9.275 -1.2587  1.1711  0.1432
   65CHL1  H27B 7289   6.111   2.886   9.154 -0.5525  0.2932 -0.3473
   65CHL1  H27C 7290   6.290   2.906   9.165  0.6343  2.1227 -2.0006
   66CHL1    C3 7291   3.831   3.683  10.544  1.0589  0.6808 -0.2427
   66CHL1    H3 7292   3.888   3.588  10.534 -0.0676  0.1754 -2.9824
   66CHL1    O3 7293   3.814   3.720  10.686  0.6248 -0.2460  0.0424
   66CHL1   H3' 7294   3.837   3.813  10.685 -2.5962  0.6689  0.0971
   66CHL1    C4 7295   3.902   3.777  10.459  0.2653 -0.0692 -0.3385
   66CHL1   H4A 7296   3.851   3.876  10.465  0.3437  0.4265 -4.7606
   66CHL1   H4B 7297   4.007   3.790  10.493  0.8170 -1.3173 -1.4963
   66CHL1    C5 7298   3.904   3.724  10.315  0.2396  0.9359  0.6403
   66CHL1    C6 7299   4.017   3.709  10.252  0.6756  0.3076  0.7101
   66CHL1    H6 7300   4.112   3.730  10.303  0.8202 -0.7767  0.9317
   66CHL1    C7 7301   4.018   3.677  10.105 -0.3544  0.5849  0.1345
   66CHL1   H7A 7302   4.101   3.719  10.045  0.9641 -1.1937  0.6532
   66CHL1   H7B 7303   4.033   3.568  10.092 -0.4748  0.8519 -3.1124
   66CHL1    C8 7304   3.879   3.701  10.029  0.6194 -0.2352  0.0612
   66CHL1    H8 7305   3.859   3.810  10.017 -0.5933 -0.3546  0.8476
   66CHL1   C14 7306   3.880   3.632   9.893 -0.3958 -0.5717  0.5069
   66CHL1   H14 7307   3.886   3.523   9.911 -0.1268 -0.0499  4.6451
   66CHL1   C15 7308   3.986   3.677   9.790  0.0425  0.2699 -0.2133
   66CHL1  H15A 7309   4.002   3.787   9.798 -0.4888  0.3102  0.4506
   66CHL1  H15B 7310   4.083   3.627   9.812  0.4130  1.5235  1.2269
   66CHL1   C16 7311   3.923   3.628   9.659 -0.3058  0.4729 -0.1719
   66CHL1  H16A 7312   3.934   3.713   9.589 -2.5802  2.1953  1.4148
   66CHL1  H16B 7313   3.987   3.545   9.624  0.2753  0.2137  1.4078
   66CHL1   C17 7314   3.773   3.595   9.690  1.2059  0.6068 -0.7503
   66CHL1   H17 7315   3.789   3.488   9.715 -0.9780  0.9636  2.8546
   66CHL1   C13 7316   3.740   3.654   9.822 -0.5204  0.2619  0.2247
   66CHL1   C18 7317   3.713   3.801   9.801  0.3303  0.5409 -0.1419
   66CHL1  H18A 7318   3.792   3.852   9.741  0.8537  1.8220  1.5880
   66CHL1  H18B 7319   3.617   3.811   9.746 -0.0564  0.2598  0.4838
   66CHL1  H18C 7320   3.709   3.855   9.898  4.0145 -0.6187  0.8300
   66CHL1   C12 7321   3.636   3.579   9.904 -0.1395 -0.5883  0.1287
   66CHL1  H12A 7322   3.536   3.573   9.856 -0.0911 -3.3106  0.2088
   66CHL1  H12B 7323   3.673   3.475   9.920  1.5012  0.1372  1.3295
   66CHL1   C11 7324   3.626   3.643  10.040 -0.5928  0.3093 -0.0666
   66CHL1  H11A 7325   3.588   3.747  10.034  0.6367  0.6969 -2.2385
   66CHL1  H11B 7326   3.553   3.581  10.095 -0.0188 -1.2922 -1.0292
   66CHL1    C9 7327   3.761   3.645  10.116  0.1432 -0.2582 -0.6071
   66CHL1    H9 7328   3.775   3.536  10.134 -1.2379 -0.5191 -0.9584
   66CHL1   C10 7329   3.758   3.707  10.258 -0.4038 -0.4591  1.0036
   66CHL1   C19 7330   3.688   3.846  10.252 -0.0704 -0.8104 -0.4390
   66CHL1  H19A 7331   3.677   3.897  10.350 -2.0485 -2.9403  0.5462
   66CHL1  H19B 7332   3.733   3.916  10.179  0.3965 -0.2378  0.3885
   66CHL1  H19C 7333   3.583   3.825  10.224 -0.4562  0.7384 -0.2635
   66CHL1    C1 7334   3.684   3.616  10.350  0.0717  0.0896 -0.1921
   66CHL1   H1A 7335   3.581   3.601  10.311  0.8970  0.7860 -2.8698
   66CHL1   H1B 7336   3.738   3.519  10.354  0.8226  0.4911 -0.3819
   66CHL1    C2 7337   3.679   3.665  10.497 -0.5414  0.3451 -0.1441
   66CHL1   H2A 7338   3.650   3.576  10.557  1.7907 -1.5430 -1.6435
   66CHL1   H2B 7339   3.619   3.756  10.517  1.6642  1.5671  1.3140
   66CHL1   C20 7340   3.678   3.598   9.571  0.6605 -0.4320 -0.2817
   66CHL1   H20 7341   3.571   3.618   9.591 -0.4420 -3.3402 -2.6604
   66CHL1   C21 7342   3.690   3.462   9.510 -0.4629 -0.0790 -0.1069
   66CHL1  H21A 7343   3.674   3.384   9.587 -0.9397 -0.7263 -0.8431
   66CHL1  H21B 7344   3.793   3.451   9.469 -0.6200 -0.7730 -0.3284
   66CHL1  H21C 7345   3.628   3.442   9.420  1.6169  0.6792 -1.8188
   66CHL1   C22 7346   3.714   3.705   9.464 -0.2532  0.0306 -0.4397
   66CHL1  H22A 7347   3.743   3.804   9.505  1.4880 -1.0859  1.2149
   66CHL1  H22B 7348   3.807   3.663   9.420  1.9832  1.6750  2.3590
   66CHL1   C23 7349   3.606   3.736   9.362  0.9026  0.9211 -0.5845
   66CHL1  H23A 7350   3.565   3.640   9.324  1.1890 -0.0635  1.4404
   66CHL1  H23B 7351   3.514   3.779   9.407 -1.2909 -1.1004 -2.8215
   66CHL1   C24 7352   3.658   3.830   9.252  0.0246  0.0476 -0.1509
   66CHL1  H24A 7353   3.691   3.930   9.289  2.3549 -0.1410 -1.5287
   66CHL1  H24B 7354   3.741   3.777   9.202 -1.3240 -1.3280 -1.0202
   66CHL1   C25 7355   3.556   3.861   9.139  0.2394 -0.2627  0.4523
   66CHL1   H25 7356   3.458   3.891   9.180 -1.0685 -2.1219 -1.0815
   66CHL1   C26 7357   3.605   3.976   9.043 -0.2102  0.0281  1.1789
   66CHL1  H26A 7358   3.539   3.971   8.954 -0.1820 -1.4199  1.2076
   66CHL1  H26B 7359   3.612   4.080   9.081  0.7895  0.4676 -0.1470
   66CHL1  H26C 7360   3.709   3.952   9.013  0.1309  2.2129  0.4292
   66CHL1   C27 7361   3.523   3.742   9.049 -0.1632 -0.6835 -0.6335
   66CHL1  H27A 7362   3.463   3.667   9.104  1.6134 -0.7821  1.3232
   66CHL1  H27B 7363   3.470   3.761   8.954 -1.8210 -2.7963 -0.1955
   66CHL1  H27C 7364   3.616   3.691   9.016 -0.0689 -0.6775 -0.3796
   67CHL1    C3 7365   3.179   4.811  10.214 -0.6052  0.4543 -0.6495
   67CHL1    H3 7366   3.109   4.726  10.229  0.8495 -0.3442  2.5481
   67CHL1    O3 7367   3.253   4.823  10.340  0.1404  0.6539  0.4803
   67CHL1   H3' 7368   3.186   4.824  10.409 -0.9756  0.2005 -0.5499
   67CHL1    C4 7369   3.285   4.774  10.111  0.6568  0.1246  0.5165
   67CHL1   H4A 7370   3.368   4.848  10.116 -0.9023  1.9013  1.7168
   67CHL1   H4B 7371   3.326   4.674  10.136 -0.6487 -0.9989 -1.5366
   67CHL1    C5 7372   3.231   4.773   9.972 -0.0637  0.5737  0.6929
   67CHL1    C6 7373   3.236   4.661   9.902  0.1245 -0.2834 -0.4778
   67CHL1    H6 7374   3.300   4.588   9.955  1.5110  0.9358 -0.3923
   67CHL1    C7 7375   3.197   4.662   9.757 -0.6777  0.4960  0.0328
   67CHL1   H7A 7376   3.264   4.603   9.691 -0.7932  1.7432 -1.2416
   67CHL1   H7B 7377   3.093   4.623   9.760 -0.2478 -0.6589  0.3305
   67CHL1    C8 7378   3.178   4.804   9.698 -1.1606 -0.2121  0.1293
   67CHL1    H8 7379   3.282   4.837   9.682 -1.5298  1.1889  0.5118
   67CHL1   C14 7380   3.109   4.783   9.566  0.8676 -0.1302 -0.6948
   67CHL1   H14 7381   3.006   4.753   9.596  1.4725 -2.1983 -0.5045
   67CHL1   C15 7382   3.151   4.674   9.464  0.2043 -0.4903  0.1598
   67CHL1  H15A 7383   3.260   4.684   9.451  0.3125 -1.1184  0.5720
   67CHL1  H15B 7384   3.132   4.570   9.497  1.4129 -1.2301 -1.3661
   67CHL1   C16 7385   3.081   4.717   9.336 -0.9818 -0.6691 -0.7321
   67CHL1  H16A 7386   3.152   4.722   9.251  0.0632 -2.4549 -0.0258
   67CHL1  H16B 7387   3.011   4.634   9.315 -0.3019 -1.4479 -0.0403
   67CHL1   C17 7388   3.011   4.849   9.370  0.6294 -0.7245  0.2742
   67CHL1   H17 7389   2.912   4.816   9.408  1.4706 -2.5381  0.9883
   67CHL1   C13 7390   3.081   4.910   9.489 -0.5984  0.0206  0.3508
   67CHL1   C18 7391   3.213   4.982   9.448 -0.6757 -0.1205 -0.0327
   67CHL1  H18A 7392   3.196   5.074   9.388  0.8065  0.2957  0.1456
   67CHL1  H18B 7393   3.284   4.998   9.533 -0.1928 -0.5946 -0.3432
   67CHL1  H18C 7394   3.275   4.918   9.382 -0.5832 -0.2772  0.2042
   67CHL1   C12 7395   2.999   5.012   9.581  0.0568  0.1558  0.2896
   67CHL1  H12A 7396   2.975   5.109   9.532  0.6455  0.1504 -0.0169
   67CHL1  H12B 7397   2.897   4.969   9.596  0.3647 -1.0082 -0.7388
   67CHL1   C11 7398   3.065   5.037   9.720  0.2726 -1.3089 -0.2810
   67CHL1  H11A 7399   3.151   5.105   9.699  0.8528 -2.7004 -2.7692
   67CHL1  H11B 7400   2.990   5.091   9.781  1.8415 -0.3279  0.8625
   67CHL1    C9 7401   3.099   4.903   9.791  0.2918 -0.1342  0.0402
   67CHL1    H9 7402   2.996   4.862   9.801 -0.2877  1.0150 -0.9584
   67CHL1   C10 7403   3.165   4.905   9.931  0.4550 -0.6521  0.1173
   67CHL1   C19 7404   3.263   5.025   9.930 -0.1010 -1.1571 -0.4009
   67CHL1  H19A 7405   3.347   5.006   9.860  1.6756  1.9550  0.7065
   67CHL1  H19B 7406   3.209   5.119   9.907 -0.9500 -1.1159  1.4939
   67CHL1  H19C 7407   3.310   5.045  10.029 -0.2892 -1.3228 -0.2764
   67CHL1    C1 7408   3.048   4.922  10.035 -0.3624 -0.8782  0.2780
   67CHL1   H1A 7409   3.007   5.017   9.996 -0.9533 -1.3372 -0.2402
   67CHL1   H1B 7410   2.968   4.845  10.029  0.0938 -1.3365 -0.0389
   67CHL1    C2 7411   3.098   4.940  10.175  0.3441 -0.4002 -0.3620
   67CHL1   H2A 7412   3.008   4.943  10.240 -0.7732 -0.2277 -1.8544
   67CHL1   H2B 7413   3.147   5.037  10.197  0.4303 -0.1770 -1.4763
   67CHL1   C20 7414   2.973   4.942   9.254 -0.4976  0.2417 -0.5506
   67CHL1   H20 7415   3.056   5.009   9.221 -0.2564 -0.2473 -0.9558
   67CHL1   C21 7416   2.864   5.038   9.300 -0.2384  0.5477 -0.2526
   67CHL1  H21A 7417   2.812   5.076   9.210  0.2251  1.7736 -0.0147
   67CHL1  H21B 7418   2.908   5.134   9.334 -2.4238  1.5036  0.0032
   67CHL1  H21C 7419   2.803   4.993   9.381  0.9491  0.3004  0.5390
   67CHL1   C22 7420   2.916   4.855   9.137 -0.5135 -0.4432  0.1121
   67CHL1  H22A 7421   3.002   4.799   9.096 -1.8400 -0.4587 -2.8829
   67CHL1  H22B 7422   2.837   4.787   9.177  0.4501 -2.2283 -0.9177
   67CHL1   C23 7423   2.858   4.927   9.017 -0.0099 -0.7589 -0.4394
   67CHL1  H23A 7424   2.764   4.978   9.046  0.8633 -0.6189  2.4438
   67CHL1  H23B 7425   2.932   5.006   8.994  0.9484 -1.4595  0.1687
   67CHL1   C24 7426   2.831   4.820   8.913 -0.0870 -0.7980  0.4919
   67CHL1  H24A 7427   2.909   4.741   8.913  1.7329  0.9031 -0.2054
   67CHL1  H24B 7428   2.732   4.775   8.932  0.7292 -2.0491  1.9892
   67CHL1   C25 7429   2.830   4.886   8.768  1.1306 -0.2305  0.7383
   67CHL1   H25 7430   2.936   4.910   8.743  0.5353  0.7823 -0.9599
   67CHL1   C26 7431   2.774   4.776   8.671 -0.7210 -0.3076  0.1954
   67CHL1  H26A 7432   2.845   4.691   8.661 -0.5435 -0.7051  3.7724
   67CHL1  H26B 7433   2.671   4.744   8.696 -0.5275 -2.7070 -1.6640
   67CHL1  H26C 7434   2.768   4.818   8.568  1.5522  0.0091  0.1430
   67CHL1   C27 7435   2.741   5.011   8.775  0.5081  0.2135  0.2251
   67CHL1  H27A 7436   2.642   4.993   8.821  0.8301  0.5796  1.0716
   67CHL1  H27B 7437   2.791   5.096   8.826  2.0329 -0.9093  0.6751
   67CHL1  H27C 7438   2.713   5.052   8.675  1.5586 -2.2457 -1.1626
   68CHL1    C3 7439   0.511   4.531  10.157 -0.9889  0.2736  0.3298
   68CHL1    H3 7440   0.478   4.425  10.153  0.0585 -0.0307 -1.7668
   68CHL1    O3 7441   0.546   4.571  10.287  0.3944 -0.0563  0.2263
   68CHL1   H3' 7442   0.595   4.652  10.274 -0.8789  0.3417 -3.1122
   68CHL1    C4 7443   0.625   4.558  10.059  0.1048  0.9205 -0.1459
   68CHL1   H4A 7444   0.657   4.664  10.063  0.9533  0.6802 -0.4207
   68CHL1   H4B 7445   0.713   4.496  10.087  0.4633  1.4042 -0.2010
   68CHL1    C5 7446   0.584   4.515   9.919 -0.0033 -0.2934 -0.0827
   68CHL1    C6 7447   0.656   4.423   9.855 -0.2925  0.3516  0.0524
   68CHL1    H6 7448   0.741   4.382   9.912 -0.3295  3.0942  2.2834
   68CHL1    C7 7449   0.624   4.381   9.715  0.6069 -0.0634  0.1889
   68CHL1   H7A 7450   0.721   4.363   9.664  1.6865 -1.4898  2.5732
   68CHL1   H7B 7451   0.554   4.295   9.719  0.5219  0.0208  0.5699
   68CHL1    C8 7452   0.542   4.493   9.639 -0.3451 -1.1629  0.8476
   68CHL1    H8 7453   0.604   4.585   9.627 -1.4994 -0.3974  0.6174
   68CHL1   C14 7454   0.498   4.432   9.503 -0.1806  0.0092  0.0246
   68CHL1   H14 7455   0.432   4.350   9.540  1.1511 -2.1174 -2.0323
   68CHL1   C15 7456   0.601   4.359   9.412  0.4712  0.1751 -0.0350
   68CHL1  H15A 7457   0.698   4.413   9.413  2.0159 -2.4328 -0.4607
   68CHL1  H15B 7458   0.629   4.261   9.457  2.4564  0.5070 -0.4518
   68CHL1   C16 7459   0.533   4.338   9.280 -0.2713 -0.3452 -0.4965
   68CHL1  H16A 7460   0.587   4.392   9.199 -0.1221  0.3945  0.0833
   68CHL1  H16B 7461   0.518   4.239   9.233 -0.5281  0.5373 -2.4106
   68CHL1   C17 7462   0.400   4.416   9.297 -0.0115  1.1481  0.0335
   68CHL1   H17 7463   0.325   4.342   9.332  0.7807  0.4265  0.2364
   68CHL1   C13 7464   0.413   4.515   9.416 -0.1138 -0.3811 -0.5094
   68CHL1   C18 7465   0.489   4.649   9.372 -0.1985  0.3815 -0.7025
   68CHL1  H18A 7466   0.572   4.618   9.304 -0.6610 -1.3789 -0.5234
   68CHL1  H18B 7467   0.422   4.726   9.328 -0.3710 -0.3581 -1.7661
   68CHL1  H18C 7468   0.548   4.691   9.455  0.0995 -1.5576  0.1268
   68CHL1   C12 7469   0.290   4.553   9.501 -0.3349  0.0060  0.2788
   68CHL1  H12A 7470   0.233   4.625   9.438  0.2881 -1.5709 -2.2250
   68CHL1  H12B 7471   0.222   4.466   9.509  0.2324 -0.4824 -0.1483
   68CHL1   C11 7472   0.320   4.626   9.633 -0.1708 -0.7293 -0.1152
   68CHL1  H11A 7473   0.370   4.722   9.606 -0.3309 -0.9514 -1.2606
   68CHL1  H11B 7474   0.223   4.636   9.685 -0.8430 -2.1275 -1.0584
   68CHL1    C9 7475   0.421   4.540   9.722  0.7987 -0.2435 -0.2073
   68CHL1    H9 7476   0.365   4.446   9.736 -2.0862  1.0566 -2.0969
   68CHL1   C10 7477   0.468   4.593   9.860  0.3698  0.6109  0.3594
   68CHL1   C19 7478   0.512   4.737   9.845 -0.0279 -0.3597  0.4301
   68CHL1  H19A 7479   0.600   4.744   9.779  1.6542  1.0126  2.6870
   68CHL1  H19B 7480   0.429   4.797   9.802 -1.3496 -1.8842  0.7290
   68CHL1  H19C 7481   0.545   4.781   9.941  0.6089  1.6152 -0.6562
   68CHL1    C1 7482   0.350   4.580   9.965 -0.1380  0.3546  0.6247
   68CHL1   H1A 7483   0.277   4.651   9.921 -0.3907 -2.0003 -3.2044
   68CHL1   H1B 7484   0.310   4.477   9.962 -1.3989  0.8402 -1.7388
   68CHL1    C2 7485   0.392   4.611  10.106 -0.0066 -0.0630 -0.5542
   68CHL1   H2A 7486   0.304   4.599  10.173  1.1416 -0.8295  0.9013
   68CHL1   H2B 7487   0.409   4.719  10.125 -2.2293  0.3613 -0.6821
   68CHL1   C20 7488   0.342   4.473   9.163  0.8508 -0.9578 -0.3510
   68CHL1   H20 7489   0.382   4.575   9.145  2.8356 -1.5536  0.3102
   68CHL1   C21 7490   0.182   4.485   9.163  0.1958 -0.7584 -0.1483
   68CHL1  H21A 7491   0.142   4.550   9.083  0.7237  0.6560  0.7062
   68CHL1  H21B 7492   0.149   4.529   9.259 -1.3555  1.6152 -1.6872
   68CHL1  H21C 7493   0.146   4.380   9.156 -1.5461 -0.3589  1.8100
   68CHL1   C22 7494   0.380   4.391   9.039  0.1270 -0.1792  1.1156
   68CHL1  H22A 7495   0.488   4.374   9.025  0.2676  0.1313  1.7815
   68CHL1  H22B 7496   0.341   4.286   9.042 -2.1576  0.5817  0.4974
   68CHL1   C23 7497   0.341   4.464   8.902  0.4723 -0.0908  0.2137
   68CHL1  H23A 7498   0.232   4.486   8.900  0.7317  1.4600  1.3326
   68CHL1  H23B 7499   0.399   4.558   8.903 -1.8424  1.5985 -3.4192
   68CHL1   C24 7500   0.400   4.387   8.779  0.1617 -0.1578  0.4487
   68CHL1  H24A 7501   0.510   4.371   8.779  0.1758 -0.1289 -0.6668
   68CHL1  H24B 7502   0.350   4.288   8.780  2.3089 -1.3261 -0.5082
   68CHL1   C25 7503   0.366   4.452   8.637  0.4590  0.1499 -0.6430
   68CHL1   H25 7504   0.268   4.503   8.646 -0.2123 -1.4269  1.9329
   68CHL1   C26 7505   0.466   4.560   8.585 -0.4144 -0.2339 -0.2157
   68CHL1  H26A 7506   0.438   4.603   8.487  0.4960 -0.7724 -0.7186
   68CHL1  H26B 7507   0.469   4.645   8.657  0.5311 -2.0026  1.9508
   68CHL1  H26C 7508   0.567   4.514   8.585 -1.7789 -3.5102 -0.3199
   68CHL1   C27 7509   0.348   4.337   8.542 -0.1813 -0.7613  0.4035
   68CHL1  H27A 7510   0.263   4.272   8.569 -0.5711 -0.3978  0.0771
   68CHL1  H27B 7511   0.317   4.377   8.443 -1.5420 -1.1956  0.6388
   68CHL1  H27C 7512   0.444   4.282   8.530  1.5642  2.3899 -1.7833
   69CHL1    C3 7513   5.974   2.637   6.760  0.0115  0.0508 -0.1849
   69CHL1    H3 7514   5.874   2.589   6.763  0.8791 -1.8287  3.4784
   69CHL1    O3 7515   6.014   2.653   6.622 -0.0643  0.4073  0.1149
   69CHL1   H3' 7516   6.075   2.727   6.624 -1.4869  1.6786 -1.1462
   69CHL1    C4 7517   5.980   2.779   6.826 -0.4761 -0.5879  0.1654
   69CHL1   H4A 7518   6.083   2.817   6.807 -1.9354  2.6345 -2.2129
   69CHL1   H4B 7519   5.916   2.850   6.770  1.1315  1.1770  0.4936
   69CHL1    C5 7520   5.955   2.773   6.974  1.1723 -0.1666 -0.4450
   69CHL1    C6 7521   5.858   2.849   7.037  0.2952 -0.1708  0.6498
   69CHL1    H6 7522   5.801   2.913   6.968  2.6845 -1.4651 -2.8408
   69CHL1    C7 7523   5.836   2.852   7.186  1.1091 -0.1881  0.5708
   69CHL1   H7A 7524   5.830   2.958   7.220 -1.0470  0.1125 -0.5301
   69CHL1   H7B 7525   5.736   2.808   7.205  1.3510 -1.0942 -0.2213
   69CHL1    C8 7526   5.942   2.780   7.269 -0.3022 -0.8712  0.3465
   69CHL1    H8 7527   6.039   2.833   7.277 -0.2876 -0.8310 -0.1106
   69CHL1   C14 7528   5.893   2.747   7.408  0.2477  0.3193 -0.1838
   69CHL1   H14 7529   5.809   2.677   7.386 -0.7913  1.4150  0.1970
   69CHL1   C15 7530   5.833   2.861   7.495 -0.6995  0.4264 -0.0298
   69CHL1  H15A 7531   5.914   2.938   7.497 -1.2291  0.9840  0.1119
   69CHL1  H15B 7532   5.739   2.907   7.458 -0.4172 -0.5862 -2.2051
   69CHL1   C16 7533   5.822   2.789   7.635  0.3452 -0.3464 -0.0544
   69CHL1  H16A 7534   5.839   2.864   7.714 -0.3348  1.3392 -1.4280
   69CHL1  H16B 7535   5.717   2.755   7.653  0.0429 -0.2144 -1.4342
   69CHL1   C17 7536   5.905   2.663   7.633  0.0256 -0.4014  0.0684
   69CHL1   H17 7537   5.833   2.581   7.615 -0.8203  0.5176 -0.8958
   69CHL1   C13 7538   5.988   2.665   7.497 -0.3863 -0.5199 -0.1314
   69CHL1   C18 7539   6.122   2.741   7.527 -0.2510 -0.2029 -0.0495
   69CHL1  H18A 7540   6.200   2.672   7.564 -1.1406 -0.6948  0.9401
   69CHL1  H18B 7541   6.167   2.784   7.435 -1.7796  0.3638 -0.5773
   69CHL1  H18C 7542   6.100   2.821   7.601 -2.5010 -0.2959 -0.5490
   69CHL1   C12 7543   6.012   2.532   7.433 -0.0330 -0.7537  0.9337
   69CHL1  H12A 7544   6.075   2.459   7.488  1.0190  0.4436  1.3505
   69CHL1  H12B 7545   5.920   2.475   7.407  0.1773 -0.5572 -0.2967
   69CHL1   C11 7546   6.076   2.560   7.290  0.3631 -0.5650 -0.1652
   69CHL1  H11A 7547   6.179   2.593   7.313  0.8380 -0.2084 -2.4945
   69CHL1  H11B 7548   6.083   2.458   7.246 -0.3010 -1.4464  1.6774
   69CHL1    C9 7549   5.987   2.648   7.201  0.6060 -0.2567 -0.3274
   69CHL1    H9 7550   5.889   2.596   7.193 -0.3098  1.2265  0.8216
   69CHL1   C10 7551   6.032   2.668   7.061 -0.4984  0.4608  0.6685
   69CHL1   C19 7552   6.179   2.717   7.072  0.4659  0.1939 -0.5840
   69CHL1  H19A 7553   6.240   2.633   7.112  2.9187  1.2991 -1.7790
   69CHL1  H19B 7554   6.223   2.734   6.971 -1.2557 -0.6224 -1.5344
   69CHL1  H19C 7555   6.182   2.809   7.134 -0.5252 -1.0099  1.3379
   69CHL1    C1 7556   6.029   2.529   6.982  0.2713  0.0978  0.6964
   69CHL1   H1A 7557   6.103   2.462   7.030 -2.7568 -3.2819  1.0257
   69CHL1   H1B 7558   5.938   2.467   6.997  2.1376 -2.9906 -0.0145
   69CHL1    C2 7559   6.070   2.542   6.832  0.3142  0.4878 -0.4277
   69CHL1   H2A 7560   6.059   2.438   6.795 -0.3323  0.3178  0.2208
   69CHL1   H2B 7561   6.178   2.568   6.818  0.8383 -0.9925  0.6187
   69CHL1   C20 7562   5.987   2.638   7.761 -0.0675 -0.2139 -0.0011
   69CHL1   H20 7563   6.064   2.718   7.771 -1.4331  1.1976 -0.3957
   69CHL1   C21 7564   6.051   2.498   7.760 -0.0648  0.1139 -0.3758
   69CHL1  H21A 7565   6.126   2.494   7.678  1.3563 -2.1272  0.9057
   69CHL1  H21B 7566   5.961   2.435   7.748  0.7653 -1.1719 -0.1041
   69CHL1  H21C 7567   6.094   2.462   7.856  1.6251 -0.0516 -1.1537
   69CHL1   C22 7568   5.890   2.660   7.888  0.1158  0.4901  0.3010
   69CHL1  H22A 7569   5.837   2.757   7.880 -1.6284 -0.5210 -1.2995
   69CHL1  H22B 7570   5.799   2.597   7.887 -0.1625  0.8298  2.0650
   69CHL1   C23 7571   5.972   2.658   8.013  0.0410 -0.2991 -0.5504
   69CHL1  H23A 7572   6.024   2.560   8.029  2.0952  0.7068 -0.6979
   69CHL1  H23B 7573   6.056   2.731   8.010 -1.2785  1.4603  2.0724
   69CHL1   C24 7574   5.902   2.697   8.142  0.0984 -0.1684 -0.8951
   69CHL1  H24A 7575   5.815   2.764   8.132  0.4832  0.7203  1.2419
   69CHL1  H24B 7576   5.858   2.610   8.194  0.1459  0.7976  0.8174
   69CHL1   C25 7577   6.003   2.738   8.253 -0.0874  1.0100 -0.9177
   69CHL1   H25 7578   6.096   2.772   8.204  0.5115  1.7236  0.6639
   69CHL1   C26 7579   5.950   2.854   8.333  0.1794 -0.0057 -0.2965
   69CHL1  H26A 7580   6.036   2.910   8.375  0.8678 -0.8441 -0.5500
   69CHL1  H26B 7581   5.920   2.933   8.261 -1.4058  0.4792  0.8397
   69CHL1  H26C 7582   5.870   2.817   8.400 -0.6173 -2.2931 -2.3470
   69CHL1   C27 7583   6.035   2.612   8.347  0.0526 -0.2244  0.1935
   69CHL1  H27A 7584   6.076   2.539   8.274  0.2096 -0.2589  0.3150
   69CHL1  H27B 7585   6.125   2.624   8.410  0.1609 -1.0105  0.2039
   69CHL1  H27C 7586   5.948   2.581   8.408 -0.4669  3.1504  1.3541
   70CHL1    C3 7587   5.951   5.634   7.070 -0.7836 -0.8662 -0.8551
   70CHL1    H3 7588   5.904   5.535   7.087  3.3152 -2.6071  2.2517
   70CHL1    O3 7589   5.972   5.662   6.929 -0.6398  0.1355 -1.0206
   70CHL1   H3' 7590   6.019   5.745   6.922  1.5295 -0.9059  0.2751
   70CHL1    C4 7591   5.867   5.753   7.132 -0.6990 -0.0339  0.6456
   70CHL1   H4A 7592   5.905   5.852   7.101  1.4726 -0.4264  1.8760
   70CHL1   H4B 7593   5.770   5.740   7.079 -0.3762  0.3078 -0.0502
   70CHL1    C5 7594   5.857   5.752   7.281  0.3353 -0.4773  0.1360
   70CHL1    C6 7595   5.732   5.759   7.340 -0.3011  0.3470  0.0879
   70CHL1    H6 7596   5.648   5.768   7.270  0.5928 -2.0404 -1.4116
   70CHL1    C7 7597   5.717   5.780   7.493 -0.5658  0.4641  0.2651
   70CHL1   H7A 7598   5.672   5.879   7.513 -0.7422  0.5261 -0.4019
   70CHL1   H7B 7599   5.648   5.701   7.529 -0.0880 -0.7439 -1.3490
   70CHL1    C8 7600   5.850   5.796   7.576 -0.1411  0.4764  0.0713
   70CHL1    H8 7601   5.866   5.905   7.560  1.0162  0.0020 -2.3912
   70CHL1   C14 7602   5.828   5.762   7.722  0.3522  0.6428  0.4281
   70CHL1   H14 7603   5.825   5.652   7.730  0.6490  0.6066  0.0564
   70CHL1   C15 7604   5.692   5.812   7.784 -0.2284  0.6847 -0.5178
   70CHL1  H15A 7605   5.694   5.919   7.754  2.2078  0.5331 -1.0988
   70CHL1  H15B 7606   5.600   5.761   7.750  0.1315 -0.0008 -0.5010
   70CHL1   C16 7607   5.724   5.801   7.939  0.0587  0.3107 -0.1447
   70CHL1  H16A 7608   5.705   5.903   7.980 -1.5779  1.5491 -3.5219
   70CHL1  H16B 7609   5.655   5.733   7.994  0.5111 -0.2094 -0.2167
   70CHL1   C17 7610   5.877   5.765   7.949 -0.0392  0.6790  0.1996
   70CHL1   H17 7611   5.882   5.654   7.956  0.5716  0.4472 -2.5803
   70CHL1   C13 7612   5.941   5.799   7.817 -0.1983  0.7425  0.3024
   70CHL1   C18 7613   5.962   5.953   7.813 -1.1473 -0.5533  0.1152
   70CHL1  H18A 7614   5.986   5.988   7.710  0.2661  0.9891  0.9161
   70CHL1  H18B 7615   5.869   6.004   7.846 -0.5400  0.9367 -0.4298
   70CHL1  H18C 7616   6.055   5.987   7.864 -0.3409 -0.9193 -1.0708
   70CHL1   C12 7617   6.066   5.720   7.774  0.2182 -0.1223 -1.1092
   70CHL1  H12A 7618   6.161   5.756   7.818 -0.0938 -0.6797  0.0679
   70CHL1  H12B 7619   6.061   5.612   7.802 -0.2564  0.1919  0.0668
   70CHL1   C11 7620   6.096   5.740   7.619 -0.6594  0.1624 -0.4392
   70CHL1  H11A 7621   6.150   5.835   7.603  0.9592 -0.3162  1.6648
   70CHL1  H11B 7622   6.169   5.659   7.599  0.4769 -0.1305  3.8679
   70CHL1    C9 7623   5.971   5.720   7.515 -0.2228 -0.4679  0.4327
   70CHL1    H9 7624   5.947   5.612   7.525  0.5158 -0.6986 -0.2076
   70CHL1   C10 7625   5.989   5.745   7.359 -0.3640  0.1507 -0.1428
   70CHL1   C19 7626   6.066   5.880   7.334 -0.0367  0.0882 -0.3773
   70CHL1  H19A 7627   6.025   5.961   7.397 -4.6003 -2.9696  1.1277
   70CHL1  H19B 7628   6.172   5.862   7.361  0.1224 -0.7224 -1.4322
   70CHL1  H19C 7629   6.071   5.914   7.228  2.0433  0.6494 -0.1267
   70CHL1    C1 7630   6.066   5.625   7.297 -0.0479  0.3007 -0.3413
   70CHL1   H1A 7631   6.165   5.632   7.346  0.2197  0.4767 -0.8897
   70CHL1   H1B 7632   6.024   5.528   7.331  0.3092  1.1111  2.7098
   70CHL1    C2 7633   6.087   5.625   7.143 -0.2795  0.1202 -0.0191
   70CHL1   H2A 7634   6.137   5.533   7.107 -0.6356 -0.1998  0.2881
   70CHL1   H2B 7635   6.146   5.717   7.124 -1.3201  0.7243 -0.4208
   70CHL1   C20 7636   5.939   5.824   8.075 -0.5054  0.0458 -0.3883
   70CHL1   H20 7637   5.931   5.935   8.070 -0.8763  0.3200  3.4315
   70CHL1   C21 7638   6.092   5.802   8.098 -0.0000  0.1067  0.7063
   70CHL1  H21A 7639   6.131   5.839   8.196  0.1522 -1.5978  1.3357
   70CHL1  H21B 7640   6.152   5.852   8.020  1.8347 -0.9037  1.3852
   70CHL1  H21C 7641   6.114   5.693   8.109 -1.0868 -0.0365  1.6452
   70CHL1   C22 7642   5.864   5.784   8.206 -0.1783  0.2578  0.2008
   70CHL1  H22A 7643   5.755   5.782   8.184  0.2137 -0.2327 -1.8390
   70CHL1  H22B 7644   5.890   5.679   8.232 -4.0324 -1.1874 -1.1984
   70CHL1   C23 7645   5.880   5.879   8.328 -0.1538 -0.1219 -0.5325
   70CHL1  H23A 7646   5.987   5.885   8.356  0.0383  1.4992 -1.4744
   70CHL1  H23B 7647   5.843   5.980   8.298  0.0519 -0.3683 -1.6580
   70CHL1   C24 7648   5.803   5.826   8.453  0.5580  0.1958  0.2192
   70CHL1  H24A 7649   5.694   5.831   8.432  0.6600 -1.8822 -1.1975
   70CHL1  H24B 7650   5.835   5.720   8.467  1.6853  0.5716  0.6145
   70CHL1   C25 7651   5.835   5.898   8.588 -0.4806 -0.3761 -0.0736
   70CHL1   H25 7652   5.845   6.005   8.560 -0.7933 -0.9258 -2.5169
   70CHL1   C26 7653   5.735   5.874   8.698 -0.0952  0.6241  0.6781
   70CHL1  H26A 7654   5.783   5.918   8.789  1.3557 -0.9474  0.7185
   70CHL1  H26B 7655   5.641   5.931   8.681  0.8946  1.8906 -0.7546
   70CHL1  H26C 7656   5.715   5.767   8.719  0.8192  0.1165 -0.9612
   70CHL1   C27 7657   5.984   5.856   8.628  0.3015 -0.2214 -0.4283
   70CHL1  H27A 7658   6.040   5.854   8.532 -1.6012 -1.4403 -1.5829
   70CHL1  H27B 7659   6.042   5.924   8.693 -0.7374  2.4830 -2.1298
   70CHL1  H27C 7660   5.978   5.752   8.666 -2.1477 -0.4938 -1.3368
   71CHL1    C3 7661   4.698   0.874   6.844  0.7904 -0.2795  0.7789
   71CHL1    H3 7662   4.768   0.799   6.802 -0.2287  0.8540 -3.4546
   71CHL1    O3 7663   4.612   0.911   6.733  0.5053 -0.2300 -0.5870
   71CHL1   H3' 7664   4.675   0.964   6.683  0.6482  0.9644  0.7747
   71CHL1    C4 7665   4.609   0.809   6.951 -0.2241 -0.2769 -0.1197
   71CHL1   H4A 7666   4.517   0.870   6.966 -0.6399 -0.8097 -0.4925
   71CHL1   H4B 7667   4.568   0.717   6.906  0.1926  0.1088 -1.3179
   71CHL1    C5 7668   4.673   0.792   7.089  0.0966 -0.0312  0.1452
   71CHL1    C6 7669   4.683   0.676   7.149 -0.2134 -0.0450  0.3426
   71CHL1    H6 7670   4.642   0.592   7.091  1.7522 -0.0795 -1.1195
   71CHL1    C7 7671   4.745   0.651   7.286  0.2944 -0.4303  0.0666
   71CHL1   H7A 7672   4.665   0.596   7.341 -1.1779  2.0256  0.5395
   71CHL1   H7B 7673   4.836   0.589   7.276  0.2414 -0.7640  1.4498
   71CHL1    C8 7674   4.774   0.783   7.361  0.8224 -0.6783  0.2809
   71CHL1    H8 7675   4.677   0.824   7.399  0.6379 -2.1939  1.5388
   71CHL1   C14 7676   4.859   0.762   7.480 -0.9466 -0.1988 -0.2896
   71CHL1   H14 7677   4.952   0.719   7.438 -1.3062 -0.5704 -0.7156
   71CHL1   C15 7678   4.810   0.680   7.595 -0.4527  0.5268  0.0651
   71CHL1  H15A 7679   4.707   0.718   7.611 -0.7560 -0.0644 -0.4605
   71CHL1  H15B 7680   4.789   0.574   7.570  1.5924 -0.0740  0.6303
   71CHL1   C16 7681   4.902   0.703   7.713 -0.2817  0.2490  0.3988
   71CHL1  H16A 7682   4.835   0.708   7.802 -0.1892 -0.2007  0.4992
   71CHL1  H16B 7683   4.972   0.618   7.727  2.3436  1.9265 -1.6341
   71CHL1   C17 7684   4.978   0.831   7.671  0.0705  0.5667 -0.4778
   71CHL1   H17 7685   5.078   0.808   7.629  0.5919 -0.0900  1.0614
   71CHL1   C13 7686   4.902   0.893   7.548  0.0126 -0.1024  0.0182
   71CHL1   C18 7687   4.777   0.974   7.601  0.0700  0.7476 -0.3735
   71CHL1  H18A 7688   4.715   1.011   7.517  1.0009  0.1465 -1.3388
   71CHL1  H18B 7689   4.718   0.910   7.670  1.1785 -0.3854 -0.4516
   71CHL1  H18C 7690   4.808   1.066   7.656  0.3329  0.3515  0.1477
   71CHL1   C12 7691   4.985   0.976   7.450 -0.5344 -0.2472 -0.5089
   71CHL1  H12A 7692   5.020   1.071   7.496  0.0858 -0.4886 -0.4693
   71CHL1  H12B 7693   5.078   0.927   7.415  0.0378  0.7696 -0.4360
   71CHL1   C11 7694   4.903   1.011   7.329 -0.4398 -0.5518  0.1615
   71CHL1  H11A 7695   4.836   1.096   7.355 -0.8940 -0.2761 -1.7727
   71CHL1  H11B 7696   4.975   1.055   7.257 -0.4701 -0.6429  0.0748
   71CHL1    C9 7697   4.844   0.885   7.263 -0.2003 -0.6618 -0.1759
   71CHL1    H9 7698   4.930   0.830   7.220  0.8177 -0.8830  2.0035
   71CHL1   C10 7699   4.745   0.920   7.143  0.2592 -0.6224 -0.2748
   71CHL1   C19 7700   4.642   1.029   7.191  0.4876  0.3433  0.8409
   71CHL1  H19A 7701   4.582   0.986   7.274  1.4156  0.9109  1.8234
   71CHL1  H19B 7702   4.688   1.127   7.215  1.7871  0.5118 -1.9605
   71CHL1  H19C 7703   4.571   1.046   7.107  1.8906  0.5333 -0.3437
   71CHL1    C1 7704   4.830   0.979   7.027  0.1512 -0.1297  0.4234
   71CHL1   H1A 7705   4.863   1.078   7.067  1.4748 -0.4474  0.1877
   71CHL1   H1B 7706   4.922   0.919   7.010 -0.5468 -0.7727 -1.2997
   71CHL1    C2 7707   4.762   0.997   6.893  0.7901 -0.1697  0.7727
   71CHL1   H2A 7708   4.844   1.031   6.825 -0.8935 -0.7617 -1.6830
   71CHL1   H2B 7709   4.695   1.084   6.904  3.2538  1.8119  1.1506
   71CHL1   C20 7710   4.995   0.919   7.805  1.2535 -0.9252  0.8168
   71CHL1   H20 7711   4.889   0.939   7.833  1.8520  1.8212  1.4244
   71CHL1   C21 7712   5.057   1.062   7.778 -0.1400  0.0642 -0.3162
   71CHL1  H21A 7713   5.168   1.061   7.783 -0.0985  1.2401 -0.5903
   71CHL1  H21B 7714   5.026   1.121   7.867 -0.4871 -0.8786  0.1973
   71CHL1  H21C 7715   5.023   1.127   7.694 -2.2147 -1.9660 -1.1463
   71CHL1   C22 7716   5.055   0.850   7.932 -0.0637  0.4159  0.4560
   71CHL1  H22A 7717   5.023   0.744   7.940  1.2828  0.0040  0.7351
   71CHL1  H22B 7718   5.166   0.843   7.925  0.2423  3.5877  0.9538
   71CHL1   C23 7719   5.024   0.910   8.062 -0.1557 -0.1813 -0.8908
   71CHL1  H23A 7720   5.064   1.014   8.068  0.2798 -0.1486 -3.3060
   71CHL1  H23B 7721   4.914   0.914   8.068 -0.1708  0.5313 -1.5222
   71CHL1   C24 7722   5.097   0.835   8.179  0.0898 -0.2060 -0.8888
   71CHL1  H24A 7723   5.072   0.726   8.180  0.4383 -0.2876 -0.8087
   71CHL1  H24B 7724   5.204   0.823   8.153  0.1062  0.6318 -1.2411
   71CHL1   C25 7725   5.070   0.878   8.329  0.1050  0.5899  0.1358
   71CHL1   H25 7726   5.139   0.959   8.359 -0.5271 -0.3794  4.9424
   71CHL1   C26 7727   4.926   0.911   8.361  0.2460  0.6042  0.1478
   71CHL1  H26A 7728   4.890   1.001   8.307 -1.0590  0.9894  1.6043
   71CHL1  H26B 7729   4.859   0.825   8.341 -1.4463  2.0068 -0.4941
   71CHL1  H26C 7730   4.910   0.939   8.467 -1.0043 -0.6071  0.2969
   71CHL1   C27 7731   5.115   0.760   8.430  0.4400  0.0851  1.0418
   71CHL1  H27A 7732   5.222   0.739   8.411  0.4559 -2.1329  3.2247
   71CHL1  H27B 7733   5.079   0.791   8.530 -2.4614  1.1873 -0.2335
   71CHL1  H27C 7734   5.062   0.665   8.408 -0.4481  0.9768 -0.9093
   72CHL1    C3 7735   6.029   5.182   6.976  0.4215 -0.3376 -0.2297
   72CHL1    H3 7736   6.073   5.283   6.963  1.4842 -0.4842  1.7896
   72CHL1    O3 7737   5.973   5.114   6.863 -0.0798 -0.4179  0.0052
   72CHL1   H3' 7738   5.914   5.051   6.904  0.6193 -0.3065  1.2401
   72CHL1    C4 7739   6.147   5.113   7.045 -0.0370  0.1663  0.0908
   72CHL1   H4A 7740   6.133   5.003   7.039 -0.5428  0.1879  0.7776
   72CHL1   H4B 7741   6.234   5.134   6.979 -1.0623  2.7389 -0.5369
   72CHL1    C5 7742   6.168   5.176   7.187  0.6247 -0.0207  0.3218
   72CHL1    C6 7743   6.287   5.222   7.222 -0.3174  0.3100  0.2137
   72CHL1    H6 7744   6.373   5.225   7.153 -1.0882  1.1033 -0.7495
   72CHL1    C7 7745   6.311   5.263   7.361  0.6321  0.3973 -0.0023
   72CHL1   H7A 7746   6.414   5.229   7.386 -0.1180  0.0577  3.0936
   72CHL1   H7B 7747   6.319   5.374   7.363  1.4585  0.3417  0.2938
   72CHL1    C8 7748   6.218   5.213   7.469 -0.6448  0.1308  0.2430
   72CHL1    H8 7749   6.242   5.104   7.467 -0.2324  0.2251 -0.5051
   72CHL1   C14 7750   6.251   5.290   7.592 -0.5860 -0.2920 -0.2150
   72CHL1   H14 7751   6.213   5.394   7.584 -0.1988  0.0612  2.0178
   72CHL1   C15 7752   6.396   5.309   7.634 -0.2283  0.2217 -0.9824
   72CHL1  H15A 7753   6.441   5.207   7.627 -2.8838 -1.3025  1.9734
   72CHL1  H15B 7754   6.449   5.382   7.569 -0.9328 -0.8160 -2.8058
   72CHL1   C16 7755   6.377   5.338   7.784 -0.1409 -0.2743  0.5102
   72CHL1  H16A 7756   6.437   5.263   7.841 -2.3459 -0.0364  3.3736
   72CHL1  H16B 7757   6.405   5.442   7.812 -0.8708 -0.3705  1.6398
   72CHL1   C17 7758   6.226   5.327   7.822 -0.9063 -0.0627  0.1379
   72CHL1   H17 7759   6.188   5.430   7.804  0.4939  0.4114 -0.2250
   72CHL1   C13 7760   6.172   5.238   7.713  0.5039 -0.2428  0.2644
   72CHL1   C18 7761   6.194   5.084   7.741  0.4064  0.1420 -0.6547
   72CHL1  H18A 7762   6.299   5.063   7.767  0.3648  1.0285  0.2926
   72CHL1  H18B 7763   6.122   5.041   7.814  0.5670  1.2477  0.1849
   72CHL1  H18C 7764   6.179   5.015   7.656  0.6251 -0.9463  0.1748
   72CHL1   C12 7765   6.018   5.263   7.675 -0.3273 -0.0015  0.5565
   72CHL1  H12A 7766   5.958   5.208   7.752 -0.0931 -0.7448  0.2111
   72CHL1  H12B 7767   6.001   5.373   7.679 -1.2245 -0.1131  0.0744
   72CHL1   C11 7768   5.975   5.199   7.536  0.3196  0.2620 -0.1513
   72CHL1  H11A 7769   5.968   5.090   7.556 -0.5564  0.6761  2.1070
   72CHL1  H11B 7770   5.875   5.240   7.507  0.4976 -0.7233 -2.3399
   72CHL1    C9 7771   6.072   5.237   7.423 -0.5202  0.3848  0.3343
   72CHL1    H9 7772   6.061   5.348   7.413 -1.5817  0.2855  0.2874
   72CHL1   C10 7773   6.048   5.167   7.285 -0.6024  0.6470 -0.3668
   72CHL1   C19 7774   6.012   5.020   7.314  0.4636 -0.5552 -0.1192
   72CHL1  H19A 7775   6.073   4.979   7.397  0.3319  0.0549  0.2842
   72CHL1  H19B 7776   5.906   5.019   7.347  0.5179 -1.3360  0.0543
   72CHL1  H19C 7777   6.011   4.951   7.227  1.8398  1.3294 -1.7351
   72CHL1    C1 7778   5.940   5.250   7.210  0.5544  0.2196 -0.0003
   72CHL1   H1A 7779   5.847   5.252   7.271 -0.3370  1.3945 -1.3383
   72CHL1   H1B 7780   5.970   5.357   7.214  1.4416  0.0209 -0.7649
   72CHL1    C2 7781   5.907   5.196   7.067  0.8230  0.1830 -0.3299
   72CHL1   H2A 7782   5.821   5.254   7.028  1.2877  0.4920 -0.9133
   72CHL1   H2B 7783   5.869   5.093   7.086 -0.5871  0.4908 -1.3538
   72CHL1   C20 7784   6.198   5.284   7.970 -0.0194 -0.1477  0.0051
   72CHL1   H20 7785   6.272   5.204   7.990  2.6019  1.5662 -2.0762
   72CHL1   C21 7786   6.056   5.256   8.008 -1.4539 -0.2771  0.4923
   72CHL1  H21A 7787   6.048   5.245   8.118 -2.9940  0.8511  0.5265
   72CHL1  H21B 7788   6.023   5.169   7.947  2.4278  0.1160 -2.6272
   72CHL1  H21C 7789   5.995   5.342   7.974 -0.5808 -0.9078 -3.0907
   72CHL1   C22 7790   6.267   5.398   8.059 -0.7502 -0.3910 -0.2425
   72CHL1  H22A 7791   6.364   5.434   8.018 -0.7550  1.4949  1.2399
   72CHL1  H22B 7792   6.196   5.484   8.052 -0.5222 -0.1375  0.4534
   72CHL1   C23 7793   6.293   5.355   8.204 -0.3240 -0.0193  0.7854
   72CHL1  H23A 7794   6.328   5.448   8.254  1.4558  1.1308 -2.3739
   72CHL1  H23B 7795   6.198   5.322   8.253 -1.0836  1.5553  0.4387
   72CHL1   C24 7796   6.410   5.252   8.223  0.1141  0.1890  0.1192
   72CHL1  H24A 7797   6.379   5.161   8.167  3.8691  0.9102 -3.7582
   72CHL1  H24B 7798   6.507   5.273   8.173  0.4864 -1.1766  0.2125
   72CHL1   C25 7799   6.442   5.235   8.375 -0.6541  0.6270 -0.4611
   72CHL1   H25 7800   6.343   5.215   8.420 -0.7767 -1.0995 -1.4088
   72CHL1   C26 7801   6.524   5.110   8.404 -0.3045  0.1086  0.0976
   72CHL1  H26A 7802   6.572   5.110   8.505  0.8254 -0.4283 -0.4187
   72CHL1  H26B 7803   6.467   5.015   8.396  0.2353 -0.0885 -2.0726
   72CHL1  H26C 7804   6.605   5.098   8.329 -1.1345  0.0097 -0.8033
   72CHL1   C27 7805   6.503   5.363   8.441  0.1500 -0.3229  0.5546
   72CHL1  H27A 7806   6.535   5.336   8.544 -0.5987  1.1643  1.2084
   72CHL1  H27B 7807   6.592   5.403   8.388 -1.0664  0.6511 -0.8004
   72CHL1  H27C 7808   6.437   5.451   8.450 -1.5077 -1.2050 -2.0164
   73CHL1    C3 7809   5.518   3.688   6.981  0.4703 -0.4579  0.4648
   73CHL1    H3 7810   5.567   3.588   6.986 -0.0635 -0.7419  0.0712
   73CHL1    O3 7811   5.484   3.709   6.847  0.2528  0.1716 -0.7449
   73CHL1   H3' 7812   5.558   3.686   6.789  1.3071 -1.4512  1.1192
   73CHL1    C4 7813   5.393   3.695   7.068  0.3433  0.4499  0.4919
   73CHL1   H4A 7814   5.330   3.780   7.036  0.2476 -0.5244 -2.1783
   73CHL1   H4B 7815   5.339   3.602   7.040 -0.1888  1.1306 -0.8006
   73CHL1    C5 7816   5.432   3.694   7.217  0.1055 -0.3521  0.2875
   73CHL1    C6 7817   5.382   3.599   7.299  0.6046  0.3242  0.0437
   73CHL1    H6 7818   5.309   3.523   7.266  1.3955 -0.7293  0.6572
   73CHL1    C7 7819   5.407   3.605   7.445  0.3018  0.5716  0.1905
   73CHL1   H7A 7820   5.311   3.578   7.496 -0.4728  3.1114  0.1992
   73CHL1   H7B 7821   5.480   3.529   7.479 -0.4723  0.3617  1.4748
   73CHL1    C8 7822   5.452   3.744   7.496  0.4558 -0.4943 -0.1774
   73CHL1    H8 7823   5.365   3.813   7.503  0.2361 -0.9078  1.9489
   73CHL1   C14 7824   5.502   3.738   7.634  0.0882 -0.2080  0.2118
   73CHL1   H14 7825   5.595   3.677   7.637  0.6730  0.6122 -0.6637
   73CHL1   C15 7826   5.406   3.663   7.735 -0.0476 -0.1676 -1.3586
   73CHL1  H15A 7827   5.304   3.708   7.729  0.8921  2.1737 -0.5530
   73CHL1  H15B 7828   5.396   3.554   7.715 -0.2667 -0.1062 -1.5878
   73CHL1   C16 7829   5.463   3.710   7.874 -0.1665 -0.0370  0.2647
   73CHL1  H16A 7830   5.375   3.724   7.940 -1.7853 -2.4525 -1.2094
   73CHL1  H16B 7831   5.517   3.626   7.923 -2.2292 -3.3150 -2.5592
   73CHL1   C17 7832   5.563   3.827   7.844  0.4218 -0.3653 -0.8192
   73CHL1   H17 7833   5.665   3.781   7.843 -0.1272 -1.7301  0.8510
   73CHL1   C13 7834   5.533   3.873   7.700  0.3745  0.2774  0.1555
   73CHL1   C18 7835   5.405   3.968   7.704 -0.4613 -0.0635 -0.0436
   73CHL1  H18A 7836   5.330   3.918   7.769 -1.1200  1.0227  0.0597
   73CHL1  H18B 7837   5.444   4.064   7.744  1.9924 -0.8907 -0.2350
   73CHL1  H18C 7838   5.364   3.983   7.602  1.3743  0.4785 -0.7416
   73CHL1   C12 7839   5.654   3.928   7.617  0.2940  0.1502  0.2682
   73CHL1  H12A 7840   5.690   4.026   7.655  2.9930  0.0979 -1.8562
   73CHL1  H12B 7841   5.734   3.854   7.637 -0.2691 -0.3606  0.6785
   73CHL1   C11 7842   5.600   3.937   7.474  0.3267 -0.0129  0.1006
   73CHL1  H11A 7843   5.524   4.019   7.473 -1.5528 -1.6807 -1.8313
   73CHL1  H11B 7844   5.682   3.967   7.406 -0.6851 -1.1322 -1.6788
   73CHL1    C9 7845   5.561   3.802   7.414  0.0266 -0.9437  0.4939
   73CHL1    H9 7846   5.650   3.735   7.413 -0.9264 -2.2595 -0.5691
   73CHL1   C10 7847   5.525   3.816   7.254  0.7014 -0.0189 -1.0487
   73CHL1   C19 7848   5.452   3.951   7.229  0.1135  0.1694  0.1982
   73CHL1  H19A 7849   5.415   3.960   7.125  0.9554 -1.6407 -0.3107
   73CHL1  H19B 7850   5.363   3.959   7.295 -0.0816  0.1941 -0.0634
   73CHL1  H19C 7851   5.518   4.040   7.232  1.5081 -0.8348  0.2430
   73CHL1    C1 7852   5.650   3.811   7.168 -0.0185  0.4957  0.0994
   73CHL1   H1A 7853   5.723   3.888   7.199  0.9436 -1.0048  1.7569
   73CHL1   H1B 7854   5.703   3.715   7.189  0.2202 -0.4344 -3.8404
   73CHL1    C2 7855   5.622   3.803   7.017  0.3712  0.3244  0.5464
   73CHL1   H2A 7856   5.717   3.780   6.965 -0.9907 -1.3768 -1.3359
   73CHL1   H2B 7857   5.583   3.904   6.994 -0.1099  0.5728  2.2979
   73CHL1   C20 7858   5.579   3.930   7.963 -0.3127  1.0046 -0.0163
   73CHL1   H20 7859   5.606   4.028   7.918 -2.3285  1.2213 -0.8625
   73CHL1   C21 7860   5.699   3.890   8.051  0.3740 -0.0422 -0.0953
   73CHL1  H21A 7861   5.677   3.787   8.087 -0.1734 -0.9837 -2.8990
   73CHL1  H21B 7862   5.709   3.952   8.143  1.4946 -0.1241 -0.1497
   73CHL1  H21C 7863   5.794   3.899   7.994 -0.3133 -1.9634 -1.6853
   73CHL1   C22 7864   5.453   3.952   8.047 -0.0200 -0.3568  0.0674
   73CHL1  H22A 7865   5.372   3.996   7.984  0.9091  1.5309  0.1073
   73CHL1  H22B 7866   5.425   3.862   8.105  3.2307  0.0481  2.5317
   73CHL1   C23 7867   5.467   4.060   8.158  0.2041 -0.6175 -0.1081
   73CHL1  H23A 7868   5.548   4.034   8.230  0.3479 -2.4128 -0.8657
   73CHL1  H23B 7869   5.489   4.160   8.115  0.3400 -0.5922  0.0212
   73CHL1   C24 7870   5.330   4.066   8.227  0.4865 -0.3679 -0.3813
   73CHL1  H24A 7871   5.255   4.112   8.160  0.5392  1.8497  0.9871
   73CHL1  H24B 7872   5.292   3.965   8.254  3.0903 -0.6326  3.1468
   73CHL1   C25 7873   5.325   4.159   8.358 -0.5843  0.9825 -1.1092
   73CHL1   H25 7874   5.400   4.240   8.346  2.4031 -1.1427  1.5229
   73CHL1   C26 7875   5.182   4.216   8.375  0.3391 -0.5645  0.1555
   73CHL1  H26A 7876   5.114   4.130   8.388  2.0755 -1.8308  1.4227
   73CHL1  H26B 7877   5.177   4.286   8.460 -0.8109 -0.1599 -0.2319
   73CHL1  H26C 7878   5.157   4.272   8.282 -0.2238  1.0902  1.2709
   73CHL1   C27 7879   5.363   4.084   8.483  0.0937  0.8049 -0.7382
   73CHL1  H27A 7880   5.288   4.011   8.519  0.6031 -0.1419 -1.5521
   73CHL1  H27B 7881   5.451   4.020   8.466  0.2800  0.0717  2.3880
   73CHL1  H27C 7882   5.379   4.152   8.569  4.3317 -0.7531 -0.0785
   74CHL1    C3 7883   4.990   2.144   7.019 -0.0695  0.8474  0.4586
   74CHL1    H3 7884   5.070   2.071   7.045  0.9165  1.3563 -1.0359
   74CHL1    O3 7885   4.981   2.139   6.881 -0.1897  0.0013  0.0879
   74CHL1   H3' 7886   4.891   2.160   6.857  0.3217  1.2408 -0.8864
   74CHL1    C4 7887   4.852   2.094   7.078 -0.0214  0.6196  0.1089
   74CHL1   H4A 7888   4.766   2.151   7.037  1.1103  0.4612 -2.7588
   74CHL1   H4B 7889   4.828   1.995   7.034 -0.8759  1.5891 -1.7010
   74CHL1    C5 7890   4.857   2.098   7.229  0.1534  0.0726 -0.2505
   74CHL1    C6 7891   4.839   1.985   7.303  0.2668  0.4007  0.5369
   74CHL1    H6 7892   4.815   1.890   7.254 -1.3257  1.2721 -0.4425
   74CHL1    C7 7893   4.852   1.976   7.450  0.1187  0.5163 -0.2092
   74CHL1   H7A 7894   4.768   1.913   7.487  1.4394 -1.4034 -0.3005
   74CHL1   H7B 7895   4.942   1.913   7.469  0.1021  0.2646 -0.9389
   74CHL1    C8 7896   4.854   2.118   7.517  0.4098  0.7049 -0.1852
   74CHL1    H8 7897   4.752   2.162   7.506 -1.3828 -3.0634 -0.1910
   74CHL1   C14 7898   4.902   2.095   7.658  0.0673  0.2340 -0.7984
   74CHL1   H14 7899   5.006   2.056   7.654  0.3353  0.8236  0.0410
   74CHL1   C15 7900   4.830   1.989   7.743  0.2530  0.1216  0.2006
   74CHL1  H15A 7901   4.720   1.993   7.725 -0.2159 -2.8528  1.7768
   74CHL1  H15B 7902   4.852   1.884   7.717  0.0070  0.4276 -1.3210
   74CHL1   C16 7903   4.857   2.033   7.893  0.7085 -0.2819 -0.3299
   74CHL1  H16A 7904   4.767   2.053   7.956  0.0462  0.2982 -1.4377
   74CHL1  H16B 7905   4.912   1.951   7.943 -0.6439  0.0476  1.8362
   74CHL1   C17 7906   4.957   2.150   7.878 -0.1907 -0.1677 -0.1467
   74CHL1   H17 7907   5.052   2.095   7.861 -0.3545 -0.6415  0.4411
   74CHL1   C13 7908   4.914   2.224   7.747  0.6880 -0.6369  0.3989
   74CHL1   C18 7909   4.776   2.291   7.768  0.4865  0.3494  0.2950
   74CHL1  H18A 7910   4.780   2.399   7.794  0.2556  0.6516 -0.8701
   74CHL1  H18B 7911   4.733   2.279   7.666  0.4450  0.1273  0.3391
   74CHL1  H18C 7912   4.715   2.236   7.842  1.1478 -2.4749 -1.1405
   74CHL1   C12 7913   5.016   2.313   7.676 -0.5423  0.0566 -0.2402
   74CHL1  H12A 7914   5.024   2.415   7.719 -0.3277 -0.3012  0.5874
   74CHL1  H12B 7915   5.113   2.259   7.681  1.3521  2.9820 -2.2948
   74CHL1   C11 7916   4.973   2.339   7.531 -0.3146 -0.2938  0.0480
   74CHL1  H11A 7917   4.877   2.394   7.534  0.6321  1.4080  0.1659
   74CHL1  H11B 7918   5.049   2.410   7.493 -0.8145  0.6356  0.7306
   74CHL1    C9 7919   4.951   2.208   7.447 -0.4368 -0.0252  0.5569
   74CHL1    H9 7920   5.049   2.156   7.451 -0.6568 -0.3751  1.6541
   74CHL1   C10 7921   4.906   2.233   7.301 -0.2234  0.1958 -0.4310
   74CHL1   C19 7922   4.799   2.339   7.303 -0.0109 -0.0095  0.1189
   74CHL1  H19A 7923   4.840   2.442   7.313 -1.3757  0.7142 -1.3298
   74CHL1  H19B 7924   4.759   2.353   7.200 -3.0326 -0.6184  1.1004
   74CHL1  H19C 7925   4.717   2.312   7.374  0.6427 -2.3723  0.0497
   74CHL1    C1 7926   5.024   2.290   7.219 -0.1916  0.2004 -0.2358
   74CHL1   H1A 7927   5.046   2.395   7.248  0.2152  0.2101 -0.5805
   74CHL1   H1B 7928   5.112   2.224   7.236 -1.9277 -1.8992  1.1097
   74CHL1    C2 7929   5.014   2.280   7.067  0.7550 -0.5670  0.5038
   74CHL1   H2A 7930   5.103   2.320   7.016 -0.4236  1.6911  0.1033
   74CHL1   H2B 7931   4.928   2.348   7.049  0.3789 -0.9440  0.8393
   74CHL1   C20 7932   4.972   2.239   8.005  0.5016 -0.4135 -0.3407
   74CHL1   H20 7933   4.870   2.271   8.036  1.6877  3.2809  0.2535
   74CHL1   C21 7934   5.065   2.367   7.989  0.4391 -0.3998 -0.0178
   74CHL1  H21A 7935   5.006   2.439   7.929 -2.1225 -3.5239 -1.5178
   74CHL1  H21B 7936   5.157   2.356   7.927  0.1710  3.8037 -1.5417
   74CHL1  H21C 7937   5.081   2.422   8.085 -0.3394  1.8093 -1.0801
   74CHL1   C22 7938   5.038   2.164   8.114  0.5675  0.4919 -0.7724
   74CHL1  H22A 7939   5.020   2.054   8.111  1.9179  0.2631 -1.7831
   74CHL1  H22B 7940   5.147   2.170   8.091  1.4877 -0.5473  2.7268
   74CHL1   C23 7941   5.001   2.216   8.256  0.1564  0.0667  0.1750
   74CHL1  H23A 7942   5.031   2.320   8.278  1.3733 -0.5470  1.6365
   74CHL1  H23B 7943   4.892   2.228   8.272  0.6072  0.9567  3.1632
   74CHL1   C24 7944   5.059   2.118   8.357  0.6912  0.0819  0.5973
   74CHL1  H24A 7945   5.055   2.014   8.316  0.6060  0.4404 -0.3414
   74CHL1  H24B 7946   5.169   2.129   8.363  0.7944  0.1249 -1.0009
   74CHL1   C25 7947   4.995   2.122   8.502 -0.2465 -0.1673 -0.0305
   74CHL1   H25 7948   4.890   2.086   8.491  0.0818 -0.4794 -2.5609
   74CHL1   C26 7949   5.072   2.022   8.591 -0.0673 -0.1054  0.0232
   74CHL1  H26A 7950   5.172   2.068   8.598 -0.5452  1.1051 -0.7839
   74CHL1  H26B 7951   5.037   2.001   8.695  2.5921 -1.6432  0.7067
   74CHL1  H26C 7952   5.054   1.924   8.542 -2.2646  0.2735 -0.0380
   74CHL1   C27 7953   5.001   2.262   8.571  0.5108  0.3139 -0.2276
   74CHL1  H27A 7954   4.984   2.249   8.680 -0.5490  1.8256 -0.1807
   74CHL1  H27B 7955   5.101   2.309   8.554 -0.0901  0.8244 -2.6684
   74CHL1  H27C 7956   4.929   2.326   8.515  1.2984 -0.6347 -2.4430
   75CHL1    C3 7957   0.920   4.018   6.681  0.1389  0.4766 -0.6783
   75CHL1    H3 7958   0.950   3.919   6.640  0.2778 -0.5172  1.6660
   75CHL1    O3 7959   0.884   4.108   6.576 -0.3435 -0.2446  0.0350
   75CHL1   H3' 7960   0.813   4.063   6.529  0.7300 -2.9868  0.8292
   75CHL1    C4 7961   0.791   4.007   6.772 -0.1049  0.5227  0.2047
   75CHL1   H4A 7962   0.749   4.104   6.805 -1.4811 -0.2797  0.8968
   75CHL1   H4B 7963   0.719   3.948   6.711 -0.7439 -3.3163  4.1234
   75CHL1    C5 7964   0.818   3.926   6.896  0.3888 -0.2174  0.4481
   75CHL1    C6 7965   0.728   3.824   6.934 -0.2714 -0.4495 -0.8696
   75CHL1    H6 7966   0.645   3.799   6.867 -0.2632 -0.5561 -0.8391
   75CHL1    C7 7967   0.740   3.739   7.062  0.1651  0.3424  0.0862
   75CHL1   H7A 7968   0.643   3.717   7.111  0.3569  0.4310  0.5113
   75CHL1   H7B 7969   0.798   3.647   7.041  0.0919  0.1271  0.8033
   75CHL1    C8 7970   0.831   3.818   7.168 -0.7879 -0.8506 -0.6376
   75CHL1    H8 7971   0.772   3.906   7.199  0.7890 -0.1102  0.4111
   75CHL1   C14 7972   0.866   3.747   7.294 -0.3580 -0.2924 -0.4719
   75CHL1   H14 7973   0.925   3.658   7.264  1.8917  0.9162  0.1840
   75CHL1   C15 7974   0.753   3.693   7.374 -0.1758 -0.2091 -0.6776
   75CHL1  H15A 7975   0.674   3.764   7.405  1.7159  0.8311  2.2487
   75CHL1  H15B 7976   0.699   3.617   7.313 -0.4167 -0.9421  0.4083
   75CHL1   C16 7977   0.824   3.649   7.502 -0.1424 -0.0892  0.2212
   75CHL1  H16A 7978   0.768   3.687   7.589 -1.3186  4.1991 -2.1351
   75CHL1  H16B 7979   0.845   3.540   7.508 -0.4184 -0.3092 -1.8304
   75CHL1   C17 7980   0.961   3.727   7.511 -0.0436 -0.2687  0.3876
   75CHL1   H17 7981   1.044   3.657   7.489  1.4247  1.3124  0.7474
   75CHL1   C13 7982   0.958   3.824   7.384  0.3657  0.0465  0.1169
   75CHL1   C18 7983   0.888   3.957   7.427  0.5656 -0.6804 -0.0266
   75CHL1  H18A 7984   0.795   3.941   7.486 -0.2481  0.8236 -0.8406
   75CHL1  H18B 7985   0.953   4.013   7.497  0.0335  0.8355 -0.7090
   75CHL1  H18C 7986   0.868   4.024   7.341 -0.6266  1.4092  1.7888
   75CHL1   C12 7987   1.092   3.846   7.321  0.0189 -0.1105  0.0021
   75CHL1  H12A 7988   1.158   3.898   7.393  1.3291 -4.0447  1.9049
   75CHL1  H12B 7989   1.133   3.747   7.290 -2.5907 -1.6264  0.9827
   75CHL1   C11 7990   1.077   3.922   7.186 -0.8274 -0.0365  0.2568
   75CHL1  H11A 7991   1.071   4.026   7.224  1.1950 -0.7565  2.9000
   75CHL1  H11B 7992   1.177   3.915   7.138 -0.2443  0.0899  1.4223
   75CHL1    C9 7993   0.963   3.876   7.094 -0.1875 -0.4327 -0.0704
   75CHL1    H9 7994   0.995   3.782   7.044 -1.0204  0.2828 -2.0293
   75CHL1   C10 7995   0.932   3.982   6.986  0.1523  0.7214 -0.4045
   75CHL1   C19 7996   0.897   4.116   7.054  0.0460 -0.6879  0.5321
   75CHL1  H19A 7997   0.813   4.110   7.127  0.2945 -1.4942  0.7592
   75CHL1  H19B 7998   0.977   4.159   7.119  1.8282 -1.5703 -0.9948
   75CHL1  H19C 7999   0.875   4.189   6.973 -0.0571 -1.0230  0.2604
   75CHL1    C1 8000   1.060   3.997   6.893 -0.0966 -0.2489 -0.0815
   75CHL1   H1A 8001   1.147   4.035   6.950  1.2028 -1.4886 -1.1469
   75CHL1   H1B 8002   1.091   3.893   6.869  0.1227 -1.0406  3.1812
   75CHL1    C2 8003   1.038   4.077   6.761  0.0422  0.3211 -1.3229
   75CHL1   H2A 8004   1.126   4.072   6.693  1.7014 -0.3000  0.7695
   75CHL1   H2B 8005   1.005   4.181   6.783 -2.0335 -0.6932  0.8525
   75CHL1   C20 8006   0.992   3.778   7.655 -0.3681  1.0490 -0.8064
   75CHL1   H20 8007   0.912   3.849   7.686 -1.6217  0.4436 -2.4719
   75CHL1   C21 8008   1.126   3.852   7.654  0.1994 -0.2050  0.2592
   75CHL1  H21A 8009   1.124   3.943   7.590  0.9595 -0.2721  0.1331
   75CHL1  H21B 8010   1.211   3.787   7.626  1.3649  1.8797 -1.3665
   75CHL1  H21C 8011   1.134   3.885   7.760 -1.9853  0.5780  0.2416
   75CHL1   C22 8012   0.976   3.666   7.766 -0.8727  0.0967  0.8963
   75CHL1  H22A 8013   1.006   3.715   7.861  0.3181 -1.4921  1.3800
   75CHL1  H22B 8014   0.869   3.638   7.773 -0.8574 -0.1353  0.2033
   75CHL1   C23 8015   1.074   3.550   7.746  0.2446  0.2552 -0.0485
   75CHL1  H23A 8016   1.064   3.512   7.642  0.5306  0.4923 -0.1627
   75CHL1  H23B 8017   1.176   3.593   7.748 -0.0282  0.9195 -0.3224
   75CHL1   C24 8018   1.066   3.441   7.859  0.4784  0.5087 -0.0601
   75CHL1  H24A 8019   1.156   3.377   7.858  0.8782  0.9651 -3.3839
   75CHL1  H24B 8020   1.058   3.506   7.949 -1.0887 -3.1807  2.7111
   75CHL1   C25 8021   0.937   3.356   7.856 -0.0560 -0.1635 -0.9877
   75CHL1   H25 8022   0.844   3.413   7.837 -1.9820 -2.2658  1.4870
   75CHL1   C26 8023   0.941   3.239   7.757 -0.1261  0.2874 -0.1126
   75CHL1  H26A 8024   0.845   3.183   7.761  0.1593 -0.1952  0.1512
   75CHL1  H26B 8025   0.948   3.276   7.652  0.2796 -1.2256 -0.6557
   75CHL1  H26C 8026   1.028   3.174   7.784 -0.7440  0.0665  1.4322
   75CHL1   C27 8027   0.909   3.310   7.996  0.1900  0.5965  0.3743
   75CHL1  H27A 8028   0.822   3.242   7.988  0.5547 -0.0182  1.4108
   75CHL1  H27B 8029   0.985   3.242   8.040 -1.2282 -0.9597  0.5045
   75CHL1  H27C 8030   0.885   3.386   8.073  1.1612  0.7900  0.5021
   76CHL1    C3 8031   5.021   4.767   7.273  0.4133  0.1477  0.3855
   76CHL1    H3 8032   5.079   4.682   7.317 -1.4637 -0.4269  1.9208
   76CHL1    O3 8033   5.040   4.766   7.128 -0.3600  0.4725 -0.0435
   76CHL1   H3' 8034   5.135   4.772   7.115 -0.5050  1.6233 -0.7189
   76CHL1    C4 8035   4.870   4.744   7.296  0.5744  0.5263 -0.2551
   76CHL1   H4A 8036   4.819   4.812   7.224  1.7178 -1.0587 -2.6999
   76CHL1   H4B 8037   4.847   4.638   7.270  0.4375  0.4246  0.2616
   76CHL1    C5 8038   4.813   4.777   7.439 -0.3365 -0.5033  0.4327
   76CHL1    C6 8039   4.732   4.695   7.509  0.2022  0.6148 -0.4366
   76CHL1    H6 8040   4.694   4.601   7.466  1.8147  0.4418 -1.6306
   76CHL1    C7 8041   4.695   4.718   7.651 -0.0593  0.5609  0.2273
   76CHL1   H7A 8042   4.594   4.681   7.679  0.1586 -0.5195 -0.3510
   76CHL1   H7B 8043   4.749   4.656   7.726 -0.7249  0.1654  0.3907
   76CHL1    C8 8044   4.716   4.861   7.698  0.4260  0.0524 -0.7905
   76CHL1    H8 8045   4.638   4.920   7.646 -1.8349 -1.7242  0.3972
   76CHL1   C14 8046   4.685   4.867   7.849  0.0148 -0.4341 -0.5997
   76CHL1   H14 8047   4.760   4.804   7.901  0.2904  2.0229  2.2381
   76CHL1   C15 8048   4.540   4.825   7.897  0.2456  0.0895 -0.2167
   76CHL1  H15A 8049   4.469   4.881   7.832 -1.6159 -0.0381  1.5867
   76CHL1  H15B 8050   4.527   4.714   7.895  2.6331 -0.2416  0.4663
   76CHL1   C16 8051   4.521   4.870   8.038 -0.2342 -0.3886 -0.2978
   76CHL1  H16A 8052   4.427   4.926   8.053 -0.7460 -1.0121 -1.1113
   76CHL1  H16B 8053   4.506   4.784   8.106 -0.3590 -1.1823 -1.3172
   76CHL1   C17 8054   4.651   4.959   8.060 -0.0368 -0.9082 -0.4838
   76CHL1   H17 8055   4.720   4.881   8.098  2.2661  1.9816  1.6002
   76CHL1   C13 8056   4.702   4.998   7.917  0.0315 -0.2271 -0.9422
   76CHL1   C18 8057   4.611   5.112   7.870  0.7487  0.4875  0.7959
   76CHL1  H18A 8058   4.508   5.111   7.911  1.1590  0.3325  1.8422
   76CHL1  H18B 8059   4.653   5.212   7.892  1.0815  0.8489 -1.2374
   76CHL1  H18C 8060   4.604   5.098   7.760 -2.8367  0.5348  0.9284
   76CHL1   C12 8061   4.848   5.032   7.890  0.2692 -0.5995  0.0206
   76CHL1  H12A 8062   4.879   5.131   7.929 -0.5908  1.0525 -3.1706
   76CHL1  H12B 8063   4.913   4.953   7.933 -0.6048 -1.4796 -0.2362
   76CHL1   C11 8064   4.877   5.048   7.736 -0.4197  0.9049 -0.6727
   76CHL1  H11A 8065   4.806   5.119   7.689 -0.9096 -0.6283 -2.3266
   76CHL1  H11B 8066   4.983   5.080   7.725 -0.9753  4.2054  2.0131
   76CHL1    C9 8067   4.858   4.910   7.657 -1.0526  0.2705  0.1019
   76CHL1    H9 8068   4.937   4.855   7.712  2.3483 -0.2963 -4.7377
   76CHL1   C10 8069   4.883   4.903   7.499  0.1038  0.3464 -0.9512
   76CHL1   C19 8070   4.829   5.031   7.438  0.1586 -0.4768 -0.0214
   76CHL1  H19A 8071   4.842   5.037   7.328  0.9202  0.9910  0.1200
   76CHL1  H19B 8072   4.720   5.035   7.458  0.2323 -0.4750  0.3712
   76CHL1  H19C 8073   4.874   5.124   7.478 -0.2499  0.2290 -1.1654
   76CHL1    C1 8074   5.032   4.901   7.479 -0.4149  0.1740  0.0043
   76CHL1   H1A 8075   5.089   4.985   7.524  0.8804 -0.7026  0.0793
   76CHL1   H1B 8076   5.079   4.809   7.521  0.0402  0.0678 -0.7179
   76CHL1    C2 8077   5.067   4.899   7.331 -0.2080  0.2804  0.0297
   76CHL1   H2A 8078   5.177   4.904   7.312 -0.6507  1.4905 -2.7612
   76CHL1   H2B 8079   5.006   4.972   7.273 -2.3265 -0.5437  1.1160
   76CHL1   C20 8080   4.638   5.071   8.172 -0.4469  0.6305  0.0518
   76CHL1   H20 8081   4.596   5.162   8.123 -2.6661 -1.1408 -1.5520
   76CHL1   C21 8082   4.777   5.094   8.234 -0.2535  0.1346  0.3038
   76CHL1  H21A 8083   4.758   5.149   8.328 -2.1527 -0.9046  0.5897
   76CHL1  H21B 8084   4.835   5.152   8.158 -0.9396 -0.3063 -0.5819
   76CHL1  H21C 8085   4.840   5.011   8.271  2.8598  1.3031 -1.9833
   76CHL1   C22 8086   4.546   5.033   8.290  0.2353 -0.1000 -0.4516
   76CHL1  H22A 8087   4.513   5.121   8.350  0.3861 -0.5758  0.3473
   76CHL1  H22B 8088   4.452   4.979   8.265 -0.5044  0.6233  0.6380
   76CHL1   C23 8089   4.603   4.948   8.407 -0.5853  0.0780  0.1444
   76CHL1  H23A 8090   4.661   4.862   8.370  0.3334 -0.5147  2.7604
   76CHL1  H23B 8091   4.678   5.000   8.471  0.3611 -2.7780  1.4957
   76CHL1   C24 8092   4.486   4.894   8.489 -0.2578  0.7009  0.3623
   76CHL1  H24A 8093   4.436   4.977   8.542  2.0549 -0.1280  4.3065
   76CHL1  H24B 8094   4.417   4.834   8.426  0.2423 -0.7542  1.1310
   76CHL1   C25 8095   4.548   4.797   8.596  0.0569 -0.5724  0.4382
   76CHL1   H25 8096   4.614   4.847   8.670 -1.8246  0.3588  1.6027
   76CHL1   C26 8097   4.426   4.750   8.677  0.7071  0.1221 -0.0107
   76CHL1  H26A 8098   4.452   4.666   8.745 -1.7943  2.0186  3.6386
   76CHL1  H26B 8099   4.400   4.835   8.744 -0.2239 -0.6938  0.6914
   76CHL1  H26C 8100   4.338   4.729   8.612  1.1946 -0.5273 -0.4778
   76CHL1   C27 8101   4.615   4.674   8.536  0.1367  0.0183  0.2028
   76CHL1  H27A 8102   4.542   4.621   8.472  0.4050  0.9577 -0.9109
   76CHL1  H27B 8103   4.702   4.695   8.470 -0.6624 -0.2799 -0.9621
   76CHL1  H27C 8104   4.637   4.607   8.622 -0.1369 -0.2039  0.1008
   77CHL1    C3 8105   5.518   2.623   6.866  0.6743 -0.0208 -0.6007
   77CHL1    H3 8106   5.622   2.661   6.871  0.2213  1.0945  1.3896
   77CHL1    O3 8107   5.484   2.623   6.732  0.0328 -0.1343 -0.0553
   77CHL1   H3' 8108   5.393   2.654   6.724  0.9827  2.5153 -1.9921
   77CHL1    C4 8109   5.500   2.478   6.912  0.3611 -0.0246 -0.4416
   77CHL1   H4A 8110   5.404   2.430   6.883 -0.5539  1.3373  0.2157
   77CHL1   H4B 8111   5.580   2.418   6.865  0.2922 -1.1372  0.7982
   77CHL1    C5 8112   5.511   2.469   7.059 -0.6599  0.1738 -0.1221
   77CHL1    C6 8113   5.613   2.394   7.114  0.2586 -0.3741  0.0304
   77CHL1    H6 8114   5.673   2.333   7.045  0.4153 -1.5388  1.1710
   77CHL1    C7 8115   5.630   2.365   7.258  0.3431  0.2360  0.8086
   77CHL1   H7A 8116   5.648   2.257   7.277  1.8039  0.5442  1.2778
   77CHL1   H7B 8117   5.719   2.427   7.278  1.2410  0.1628 -2.4275
   77CHL1    C8 8118   5.514   2.423   7.343 -0.3006 -0.0130  0.1935
   77CHL1    H8 8119   5.431   2.350   7.333  0.5986 -1.2074  1.1446
   77CHL1   C14 8120   5.562   2.424   7.486 -0.3632 -0.0147  0.0470
   77CHL1   H14 8121   5.638   2.505   7.488 -0.5348  0.1518  2.0623
   77CHL1   C15 8122   5.626   2.301   7.557 -0.1921 -0.3559  0.2723
   77CHL1  H15A 8123   5.559   2.217   7.530 -0.5816  0.0616 -0.0693
   77CHL1  H15B 8124   5.734   2.295   7.531  0.2836  0.0785  2.0454
   77CHL1   C16 8125   5.625   2.331   7.704  0.1819 -0.5275  0.7404
   77CHL1  H16A 8126   5.606   2.233   7.755  1.5126 -0.4212  1.4804
   77CHL1  H16B 8127   5.726   2.359   7.740  0.0111  0.3147  0.5680
   77CHL1   C17 8128   5.536   2.453   7.726 -0.1038 -0.1289  0.3224
   77CHL1   H17 8129   5.602   2.543   7.725 -0.3697  0.0792 -1.2829
   77CHL1   C13 8130   5.459   2.475   7.591 -1.2920  0.3582  0.4006
   77CHL1   C18 8131   5.338   2.378   7.588  0.3395  0.9983 -0.1533
   77CHL1  H18A 8132   5.360   2.280   7.635 -0.1364  1.0037  0.0907
   77CHL1  H18B 8133   5.251   2.425   7.638 -0.4592 -0.7117  0.1433
   77CHL1  H18C 8134   5.301   2.355   7.485  0.4185 -1.0760  0.2346
   77CHL1   C12 8135   5.421   2.618   7.551  0.4633  0.2589 -0.0849
   77CHL1  H12A 8136   5.342   2.669   7.610 -1.3658  0.6450 -2.7384
   77CHL1  H12B 8137   5.512   2.682   7.559  0.2054  0.7164 -0.7959
   77CHL1   C11 8138   5.374   2.626   7.406 -0.5971 -0.0092 -0.0957
   77CHL1  H11A 8139   5.281   2.567   7.393 -0.6059  0.4556 -2.5367
   77CHL1  H11B 8140   5.354   2.734   7.389 -1.2851 -0.1524 -0.2201
   77CHL1    C9 8141   5.468   2.564   7.302 -0.0887  0.3924  0.5829
   77CHL1    H9 8142   5.563   2.621   7.300  0.6915 -0.8468  1.0192
   77CHL1   C10 8143   5.425   2.560   7.155 -0.1438  0.5084  0.5303
   77CHL1   C19 8144   5.282   2.516   7.146 -1.1155 -0.3660  0.4508
   77CHL1  H19A 8145   5.216   2.584   7.204  0.3883 -0.9151  2.9311
   77CHL1  H19B 8146   5.250   2.518   7.039  1.0816 -1.6811 -0.3024
   77CHL1  H19C 8147   5.268   2.413   7.185  0.4784 -1.1311 -0.8672
   77CHL1    C1 8148   5.438   2.702   7.097 -0.8435  0.0698 -0.3764
   77CHL1   H1A 8149   5.354   2.759   7.142 -0.2754  0.8592 -0.3025
   77CHL1   H1B 8150   5.541   2.733   7.123 -0.7903 -0.1948 -0.2649
   77CHL1    C2 8151   5.418   2.713   6.943 -0.7320  0.5856 -0.5109
   77CHL1   H2A 8152   5.426   2.819   6.912  1.1924  0.4746 -0.5032
   77CHL1   H2B 8153   5.311   2.688   6.930 -1.4834  3.3346 -0.1045
   77CHL1   C20 8154   5.457   2.453   7.862  0.0127  0.1953  0.8550
   77CHL1   H20 8155   5.386   2.369   7.844  0.9776 -0.2893 -0.9593
   77CHL1   C21 8156   5.394   2.590   7.886 -0.6847  0.2515  0.1817
   77CHL1  H21A 8157   5.470   2.672   7.884 -0.5357  0.1054 -0.3165
   77CHL1  H21B 8158   5.344   2.601   7.984 -0.8151 -0.1768  0.1643
   77CHL1  H21C 8159   5.305   2.600   7.821 -0.2475 -2.9035 -1.0406
   77CHL1   C22 8160   5.534   2.408   7.986 -0.0719 -0.7002 -0.3996
   77CHL1  H22A 8161   5.599   2.319   7.974 -1.0869 -1.4906 -0.1319
   77CHL1  H22B 8162   5.600   2.495   8.008 -1.7112  0.1849  1.3357
   77CHL1   C23 8163   5.456   2.388   8.107 -0.0887 -0.3615 -0.4599
   77CHL1  H23A 8164   5.347   2.395   8.089  0.0116  1.0534 -0.6149
   77CHL1  H23B 8165   5.480   2.286   8.144  0.6068  0.2577  0.8538
   77CHL1   C24 8166   5.503   2.488   8.213  0.8365  0.0635  0.2962
   77CHL1  H24A 8167   5.613   2.476   8.220  0.9490  1.2059  0.6603
   77CHL1  H24B 8168   5.480   2.587   8.168  1.1260 -0.4240 -0.9798
   77CHL1   C25 8169   5.422   2.472   8.341 -0.3129 -0.5290 -0.2852
   77CHL1   H25 8170   5.318   2.438   8.323 -0.2080 -0.0294 -2.0172
   77CHL1   C26 8171   5.487   2.359   8.419  0.1580 -0.1010 -0.1466
   77CHL1  H26A 8172   5.588   2.388   8.453 -0.1667  0.0605  0.7052
   77CHL1  H26B 8173   5.421   2.325   8.502  0.1898 -0.1823 -0.1543
   77CHL1  H26C 8174   5.494   2.267   8.357  1.1451  1.9041 -3.2585
   77CHL1   C27 8175   5.430   2.604   8.428  0.0955  0.1667  0.6451
   77CHL1  H27A 8176   5.382   2.689   8.374 -1.9814  0.0357  2.1240
   77CHL1  H27B 8177   5.373   2.591   8.523 -0.9568 -0.8412 -0.1007
   77CHL1  H27C 8178   5.537   2.624   8.448  0.3697 -0.7501  0.1463
   78CHL1    C3 8179   1.271   4.987   6.870  0.2085  0.6233  0.5761
   78CHL1    H3 8180   1.354   5.060   6.880 -1.0692  2.6907 -2.6514
   78CHL1    O3 8181   1.262   4.958   6.730  0.0945  0.8592 -0.3092
   78CHL1   H3' 8182   1.204   4.881   6.726 -2.7270  2.8453 -0.2165
   78CHL1    C4 8183   1.302   4.866   6.948 -0.9384  0.2683 -0.1759
   78CHL1   H4A 8184   1.236   4.785   6.913  0.2426 -0.3971 -0.9317
   78CHL1   H4B 8185   1.398   4.831   6.904 -1.9288 -0.2737 -1.9945
   78CHL1    C5 8186   1.295   4.889   7.099 -0.0781 -0.1551  0.0340
   78CHL1    C6 8187   1.399   4.879   7.186 -0.1315  0.2447  0.3752
   78CHL1    H6 8188   1.494   4.835   7.154 -0.5772 -0.3656 -0.1333
   78CHL1    C7 8189   1.386   4.886   7.331 -0.6003 -0.2095 -0.7704
   78CHL1   H7A 8190   1.445   4.809   7.384 -0.8786  0.7188  1.0098
   78CHL1   H7B 8191   1.431   4.984   7.359  0.3417 -0.6623 -0.6769
   78CHL1    C8 8192   1.236   4.880   7.388 -0.5133  0.6278 -0.2210
   78CHL1    H8 8193   1.200   4.775   7.378  0.2818  0.2571  0.6349
   78CHL1   C14 8194   1.219   4.918   7.531  0.0120  0.7752  0.3016
   78CHL1   H14 8195   1.259   5.022   7.527  0.3412  0.6108 -1.1307
   78CHL1   C15 8196   1.304   4.846   7.642  0.0769 -0.0650  0.1027
   78CHL1  H15A 8197   1.312   4.742   7.606 -1.9033 -0.4602  0.6909
   78CHL1  H15B 8198   1.408   4.885   7.641 -0.0714  0.3381 -0.6905
   78CHL1   C16 8199   1.233   4.880   7.774 -0.1951 -0.5474  0.3788
   78CHL1  H16A 8200   1.205   4.787   7.826 -0.1885 -0.2390  0.9396
   78CHL1  H16B 8201   1.291   4.941   7.847 -0.5345  0.6902 -0.3409
   78CHL1   C17 8202   1.110   4.953   7.734  0.4911 -0.2046 -0.0727
   78CHL1   H17 8203   1.135   5.061   7.723  2.4285 -0.5997  0.1521
   78CHL1   C13 8204   1.082   4.920   7.580  1.1819 -0.1252  0.0830
   78CHL1   C18 8205   1.011   4.788   7.572 -0.0787  0.0288  0.1407
   78CHL1  H18A 8206   1.067   4.705   7.620  2.2127  0.1788 -2.0137
   78CHL1  H18B 8207   0.905   4.788   7.605 -1.3369  0.6896 -3.4283
   78CHL1  H18C 8208   0.994   4.770   7.463 -3.8499  2.2781  0.1548
   78CHL1   C12 8209   1.001   5.022   7.497 -0.6801  0.4176  0.5382
   78CHL1  H12A 8210   0.892   5.016   7.519 -0.5929 -2.0319  0.5132
   78CHL1  H12B 8211   1.037   5.124   7.524  0.5091  0.3328 -0.6409
   78CHL1   C11 8212   1.004   4.997   7.341  0.3123 -0.0142  0.2948
   78CHL1  H11A 8213   0.938   4.910   7.322  0.2853 -0.1263  0.8646
   78CHL1  H11B 8214   0.956   5.086   7.296 -3.0123 -0.3978  2.6893
   78CHL1    C9 8215   1.146   4.969   7.291  0.0594 -0.4977  0.1777
   78CHL1    H9 8216   1.201   5.065   7.304  0.4462 -0.6540 -0.2453
   78CHL1   C10 8217   1.151   4.936   7.145  0.2131  0.1085  0.1260
   78CHL1   C19 8218   1.043   4.827   7.105  0.1006  0.0632 -0.0311
   78CHL1  H19A 8219   0.941   4.867   7.124  0.4268  0.6409  0.5266
   78CHL1  H19B 8220   1.055   4.794   6.999  1.1231 -1.3463  0.4968
   78CHL1  H19C 8221   1.059   4.736   7.167 -1.4953  0.7384  1.4687
   78CHL1    C1 8222   1.123   5.063   7.061  0.2048 -0.4389 -0.1908
   78CHL1   H1A 8223   1.029   5.115   7.087 -0.1012 -1.3339  0.5607
   78CHL1   H1B 8224   1.209   5.133   7.072  0.8663 -0.9869 -1.5336
   78CHL1    C2 8225   1.136   5.048   6.905  0.6144  0.3497 -1.3121
   78CHL1   H2A 8226   1.126   5.142   6.848 -1.7923  0.6487 -0.4777
   78CHL1   H2B 8227   1.054   4.981   6.870 -0.9830  2.6278 -2.1163
   78CHL1   C20 8228   0.994   4.933   7.840  0.5593  0.8233  0.6021
   78CHL1   H20 8229   0.964   4.826   7.834 -1.8776  1.3641  1.9203
   78CHL1   C21 8230   0.877   5.014   7.804  0.3807  0.1617  0.0060
   78CHL1  H21A 8231   0.803   5.015   7.887  0.1509  2.2899 -0.1624
   78CHL1  H21B 8232   0.822   4.982   7.713 -2.1825  1.6614  0.9267
   78CHL1  H21C 8233   0.908   5.120   7.790 -0.1967  0.3289 -0.0327
   78CHL1   C22 8234   1.027   4.959   7.990 -0.3254 -0.1695  0.4371
   78CHL1  H22A 8235   0.942   4.955   8.061 -0.3167 -1.1461  0.4007
   78CHL1  H22B 8236   1.091   4.871   8.013 -1.3237 -0.9941  0.0938
   78CHL1   C23 8237   1.102   5.087   8.021 -0.1264 -0.2084  0.0344
   78CHL1  H23A 8238   1.182   5.101   7.945 -2.6806 -0.1561 -2.8732
   78CHL1  H23B 8239   1.031   5.169   7.999 -1.7568 -1.8556 -1.2004
   78CHL1   C24 8240   1.158   5.094   8.161  0.5825  0.9511  0.0879
   78CHL1  H24A 8241   1.078   5.065   8.233 -0.6833 -2.8759 -2.5427
   78CHL1  H24B 8242   1.225   5.006   8.163 -2.1451 -1.3032 -0.9952
   78CHL1   C25 8243   1.230   5.226   8.203  0.3854 -0.5250  1.1553
   78CHL1   H25 8244   1.296   5.264   8.122 -0.9894  0.5159  0.4710
   78CHL1   C26 8245   1.130   5.333   8.210  0.0042 -0.3327 -0.1083
   78CHL1  H26A 8246   1.187   5.428   8.223 -1.0326  0.3281 -0.2912
   78CHL1  H26B 8247   1.077   5.342   8.112 -0.5527 -1.3274  0.0868
   78CHL1  H26C 8248   1.055   5.323   8.291 -0.5018  1.2448 -0.3299
   78CHL1   C27 8249   1.303   5.210   8.334  0.5464  0.5217 -0.2754
   78CHL1  H27A 8250   1.232   5.177   8.412 -1.3669  0.3494 -1.9986
   78CHL1  H27B 8251   1.389   5.139   8.327 -0.7227 -1.1428  0.2709
   78CHL1  H27C 8252   1.342   5.307   8.371  0.3718 -0.2188  1.9654
   79CHL1    C3 8253   6.775   4.605   7.042 -0.7273 -0.1492 -0.2895
   79CHL1    H3 8254   6.790   4.714   7.057  0.2790 -0.0685 -1.6766
   79CHL1    O3 8255   6.788   4.561   6.905  0.4574 -0.7380 -0.1300
   79CHL1   H3' 8256   6.784   4.465   6.905 -1.4480 -0.7061  0.1009
   79CHL1    C4 8257   6.914   4.552   7.109  0.2366  0.0233  0.0657
   79CHL1   H4A 8258   6.914   4.447   7.074 -0.0285 -0.0298  0.2240
   79CHL1   H4B 8259   6.996   4.605   7.056 -0.1919 -0.3755 -1.0303
   79CHL1    C5 8260   6.921   4.570   7.260  0.2259  0.6082 -0.4471
   79CHL1    C6 8261   7.011   4.638   7.330  0.0312  0.4891 -0.1272
   79CHL1    H6 8262   7.091   4.685   7.270  0.5075 -0.8962 -0.6192
   79CHL1    C7 8263   7.018   4.634   7.479  0.0812  0.8165  0.7138
   79CHL1   H7A 8264   7.122   4.606   7.509  0.6675  1.7183 -0.3920
   79CHL1   H7B 8265   6.997   4.733   7.524 -1.7476 -0.0340  1.8511
   79CHL1    C8 8266   6.932   4.527   7.551  1.1661 -0.0178  1.1070
   79CHL1    H8 8267   6.983   4.429   7.540 -1.2893 -1.0425 -3.3540
   79CHL1   C14 8268   6.910   4.569   7.695  0.1029 -0.1185  0.5821
   79CHL1   H14 8269   6.871   4.673   7.686 -1.7730 -0.8466 -0.1959
   79CHL1   C15 8270   7.035   4.584   7.787  0.2439 -0.3457  0.3616
   79CHL1  H15A 8271   7.094   4.492   7.768  0.1384 -0.0858 -1.3837
   79CHL1  H15B 8272   7.094   4.675   7.763  0.5358  0.0382  2.3655
   79CHL1   C16 8273   6.982   4.587   7.932  0.5571  0.1054  0.3271
   79CHL1  H16A 8274   7.034   4.503   7.984 -0.6804 -1.3333 -0.6725
   79CHL1  H16B 8275   7.015   4.683   7.977  1.3899  0.5944 -1.2409
   79CHL1   C17 8276   6.829   4.550   7.924  0.1766 -0.0971  0.4335
   79CHL1   H17 8277   6.762   4.638   7.917 -1.0363 -1.1475 -3.2755
   79CHL1   C13 8278   6.805   4.492   7.777  0.3527 -0.5799  0.3177
   79CHL1   C18 8279   6.853   4.339   7.775  0.6178  0.6900  0.0244
   79CHL1  H18A 8280   6.876   4.306   7.671  1.5324 -0.8528  0.6796
   79CHL1  H18B 8281   6.946   4.334   7.836 -1.5261  1.9898  3.6680
   79CHL1  H18C 8282   6.778   4.275   7.825  2.5076 -0.6620  1.2531
   79CHL1   C12 8283   6.677   4.511   7.710  0.1539 -0.4930 -0.4605
   79CHL1  H12A 8284   6.603   4.453   7.769  0.8575 -1.3957 -0.4516
   79CHL1  H12B 8285   6.654   4.620   7.711 -1.0949 -0.7128 -1.7301
   79CHL1   C11 8286   6.678   4.465   7.559 -0.2236  0.4271  0.6244
   79CHL1  H11A 8287   6.669   4.355   7.548 -2.8087  0.7511 -1.9073
   79CHL1  H11B 8288   6.578   4.500   7.523  0.2093  0.7113 -0.3191
   79CHL1    C9 8289   6.791   4.539   7.482 -0.1675 -0.2828  0.2315
   79CHL1    H9 8290   6.781   4.649   7.492 -2.1614 -0.4826  0.8592
   79CHL1   C10 8291   6.800   4.507   7.332 -0.7808  0.2992 -0.5893
   79CHL1   C19 8292   6.807   4.346   7.325  0.1371  0.1071  0.4105
   79CHL1  H19A 8293   6.703   4.317   7.351 -0.3463  1.1644 -0.2975
   79CHL1  H19B 8294   6.822   4.310   7.221 -0.7058 -1.1639  0.7008
   79CHL1  H19C 8295   6.887   4.299   7.386 -0.1075  1.9266  2.2331
   79CHL1    C1 8296   6.666   4.551   7.269 -0.3709 -0.2010  0.0455
   79CHL1   H1A 8297   6.587   4.489   7.316  0.0262 -1.5421 -0.9837
   79CHL1   H1B 8298   6.640   4.654   7.302 -0.5412 -0.1164 -0.3561
   79CHL1    C2 8299   6.651   4.538   7.115 -0.2341  0.4920  0.0457
   79CHL1   H2A 8300   6.565   4.595   7.073  0.0322 -0.6352 -2.2188
   79CHL1   H2B 8301   6.646   4.432   7.083 -1.4598  0.6278 -0.2871
   79CHL1   C20 8302   6.780   4.446   8.039 -0.1098  0.0511 -0.1314
   79CHL1   H20 8303   6.841   4.354   8.032 -0.5372 -0.2395 -0.0465
   79CHL1   C21 8304   6.635   4.416   8.022 -0.2255  0.1942  0.0790
   79CHL1  H21A 8305   6.586   4.511   7.994  0.4999 -0.2190 -2.9580
   79CHL1  H21B 8306   6.587   4.364   8.108 -1.5800  1.9713  0.4381
   79CHL1  H21C 8307   6.630   4.341   7.940  1.5724  0.6866 -0.5402
   79CHL1   C22 8308   6.810   4.498   8.184  0.3207  0.1829 -0.6227
   79CHL1  H22A 8309   6.780   4.414   8.250  0.1990 -0.0411 -0.9569
   79CHL1  H22B 8310   6.917   4.524   8.179  0.7721 -0.9730  1.6907
   79CHL1   C23 8311   6.733   4.619   8.240 -0.6627 -0.5696  0.5825
   79CHL1  H23A 8312   6.743   4.713   8.181  0.1823 -0.3671  1.0196
   79CHL1  H23B 8313   6.628   4.586   8.232 -1.4560  1.2452  2.5599
   79CHL1   C24 8314   6.769   4.652   8.391 -0.7996 -0.2208 -0.0444
   79CHL1  H24A 8315   6.695   4.730   8.420 -2.5333 -2.3704  1.6541
   79CHL1  H24B 8316   6.751   4.559   8.448  3.7315 -1.0746  0.3469
   79CHL1   C25 8317   6.900   4.719   8.421 -0.5227 -0.2083  0.3078
   79CHL1   H25 8318   6.976   4.639   8.404  0.1113  0.4458  0.0169
   79CHL1   C26 8319   6.908   4.842   8.337 -0.3342  0.2337 -0.0989
   79CHL1  H26A 8320   7.004   4.892   8.362 -1.3779  1.3624  1.9538
   79CHL1  H26B 8321   6.921   4.813   8.231 -2.6020 -1.0843 -0.0733
   79CHL1  H26C 8322   6.826   4.916   8.349  1.1545  2.5761 -3.0903
   79CHL1   C27 8323   6.909   4.755   8.570  0.6236  0.2238 -0.5487
   79CHL1  H27A 8324   7.002   4.814   8.582 -0.3047  1.7528 -0.6258
   79CHL1  H27B 8325   6.814   4.804   8.600  0.7843  0.0278  0.3112
   79CHL1  H27C 8326   6.913   4.666   8.637  1.1238  1.4621  1.1247
   80CHL1    C3 8327   4.451   1.953   7.011  0.2952  0.1300 -0.7846
   80CHL1    H3 8328   4.541   1.891   7.030 -0.6728 -1.1369 -0.2247
   80CHL1    O3 8329   4.428   1.968   6.873 -0.1740  0.2407  0.6616
   80CHL1   H3' 8330   4.351   2.025   6.870 -3.5896 -3.9037  0.8006
   80CHL1    C4 8331   4.334   1.886   7.074 -0.3632 -0.6031  0.2291
   80CHL1   H4A 8332   4.246   1.947   7.044  1.4879  0.7940 -2.8412
   80CHL1   H4B 8333   4.318   1.787   7.027  4.0176 -0.7641 -1.3211
   80CHL1    C5 8334   4.356   1.872   7.222  0.3453  0.6190 -0.5782
   80CHL1    C6 8335   4.363   1.751   7.272  0.6758 -0.8668  0.3257
   80CHL1    H6 8336   4.364   1.668   7.200  1.2890  0.0155 -0.7161
   80CHL1    C7 8337   4.382   1.730   7.421  0.1652 -0.5157 -0.4792
   80CHL1   H7A 8338   4.319   1.648   7.463  0.5202 -0.4608  0.1643
   80CHL1   H7B 8339   4.489   1.706   7.433  0.3703  1.2087  1.8741
   80CHL1    C8 8340   4.347   1.858   7.510  0.3086 -0.3535  0.8664
   80CHL1    H8 8341   4.237   1.866   7.517  0.3748  0.8556  0.7218
   80CHL1   C14 8342   4.402   1.838   7.647 -0.2556 -1.1147 -0.2980
   80CHL1   H14 8343   4.513   1.844   7.637 -0.2253 -0.4943  0.3831
   80CHL1   C15 8344   4.376   1.701   7.719  0.0937  0.5803  0.4363
   80CHL1  H15A 8345   4.273   1.660   7.703 -0.3224  0.1684  3.4620
   80CHL1  H15B 8346   4.456   1.632   7.685  0.6648  1.0140  0.8887
   80CHL1   C16 8347   4.398   1.739   7.867 -0.3299  0.6153 -0.1548
   80CHL1  H16A 8348   4.310   1.723   7.933 -0.1268  0.9698  0.2036
   80CHL1  H16B 8349   4.478   1.671   7.904 -0.6150  0.7142  0.6673
   80CHL1   C17 8350   4.435   1.895   7.873  0.1542 -0.7215 -0.4331
   80CHL1   H17 8351   4.544   1.907   7.855  0.2788 -1.1692  0.0280
   80CHL1   C13 8352   4.365   1.948   7.745 -0.3703 -0.8942 -0.8165
   80CHL1   C18 8353   4.207   1.954   7.764 -0.1994 -0.0052  0.2000
   80CHL1  H18A 8354   4.156   1.982   7.669 -0.3999 -0.3280  0.2128
   80CHL1  H18B 8355   4.166   1.853   7.784 -2.2580  0.9860  1.3057
   80CHL1  H18C 8356   4.182   2.030   7.842 -4.3499 -0.0395 -0.8664
   80CHL1   C12 8357   4.424   2.082   7.685 -0.5127  0.2909 -0.1665
   80CHL1  H12A 8358   4.417   2.177   7.742 -0.2327  0.8405 -1.0185
   80CHL1  H12B 8359   4.534   2.075   7.672 -0.4162  2.2078 -0.6516
   80CHL1   C11 8360   4.368   2.110   7.544  0.3607  0.1091 -0.2474
   80CHL1  H11A 8361   4.258   2.122   7.546  0.2232 -1.0839  0.9147
   80CHL1  H11B 8362   4.413   2.202   7.501 -0.1601 -0.6121 -2.4272
   80CHL1    C9 8363   4.399   1.988   7.451  0.6157  0.1760 -0.5787
   80CHL1    H9 8364   4.509   1.979   7.454  0.5992  0.0102 -0.4672
   80CHL1   C10 8365   4.365   2.007   7.300 -0.4671 -0.1734 -0.1637
   80CHL1   C19 8366   4.225   2.080   7.282  0.3908  0.1381 -0.1441
   80CHL1  H19A 8367   4.140   2.021   7.321  0.7283 -0.2159  0.0666
   80CHL1  H19B 8368   4.228   2.173   7.343 -0.9499 -0.1798  0.4384
   80CHL1  H19C 8369   4.202   2.103   7.176 -1.8869  1.5323  0.5795
   80CHL1    C1 8370   4.483   2.087   7.225 -0.3095  0.1587 -0.6670
   80CHL1   H1A 8371   4.474   2.188   7.269 -0.1698  0.6486 -1.7458
   80CHL1   H1B 8372   4.577   2.031   7.244 -0.1366  0.1963 -1.3959
   80CHL1    C2 8373   4.459   2.092   7.070 -0.6677  0.3180 -0.4594
   80CHL1   H2A 8374   4.544   2.150   7.025 -0.2411  0.8582  0.9970
   80CHL1   H2B 8375   4.368   2.150   7.047 -1.8203 -0.8890  0.8965
   80CHL1   C20 8376   4.395   1.962   8.003  0.0997 -0.2710  0.2862
   80CHL1   H20 8377   4.285   1.970   8.013 -0.0198  0.2526 -1.2835
   80CHL1   C21 8378   4.440   2.112   8.018 -0.0787 -0.2357  0.2623
   80CHL1  H21A 8379   4.405   2.148   8.117 -0.8074  2.9594 -1.0439
   80CHL1  H21B 8380   4.386   2.165   7.936  0.6784 -0.2820 -0.2719
   80CHL1  H21C 8381   4.549   2.129   8.005  0.2075 -1.7530  0.4936
   80CHL1   C22 8382   4.447   1.879   8.123  0.0975  0.4145 -0.2024
   80CHL1  H22A 8383   4.434   1.927   8.222  0.2730 -1.3706  0.7313
   80CHL1  H22B 8384   4.393   1.782   8.123  0.3290  0.2445  1.8951
   80CHL1   C23 8385   4.597   1.863   8.143  0.2435  0.3425  0.0970
   80CHL1  H23A 8386   4.646   1.814   8.056  1.3904  0.5447  0.6084
   80CHL1  H23B 8387   4.646   1.961   8.161  1.4032  0.0077 -1.0974
   80CHL1   C24 8388   4.634   1.774   8.264  0.2395  0.1360 -0.4927
   80CHL1  H24A 8389   4.745   1.765   8.263  0.1822 -0.6245 -0.7265
   80CHL1  H24B 8390   4.598   1.810   8.362 -2.1009  3.6035 -2.4408
   80CHL1   C25 8391   4.587   1.626   8.250  0.3956 -0.3591  0.4765
   80CHL1   H25 8392   4.478   1.634   8.230  0.6007  0.8328 -0.2927
   80CHL1   C26 8393   4.645   1.542   8.132  0.8532 -0.3598  0.4851
   80CHL1  H26A 8394   4.573   1.461   8.107  0.0062  0.8589 -1.2343
   80CHL1  H26B 8395   4.678   1.602   8.044 -2.0142  0.9196  0.1838
   80CHL1  H26C 8396   4.738   1.494   8.168  0.6756 -0.4504  0.8281
   80CHL1   C27 8397   4.600   1.555   8.383 -0.1085 -0.3457 -0.3933
   80CHL1  H27A 8398   4.709   1.544   8.403 -0.1419 -0.0210 -0.0147
   80CHL1  H27B 8399   4.569   1.618   8.469 -1.8275  2.2622 -2.7753
   80CHL1  H27C 8400   4.557   1.453   8.395  2.6952 -1.7425 -1.2893
   81CHL1    C3 8401   2.410   0.245   6.760 -0.3123 -0.9653  0.4058
   81CHL1    H3 8402   2.391   0.149   6.709  0.6459 -0.7541 -0.3694
   81CHL1    O3 8403   2.484   0.320   6.664  0.4040  0.2825  0.2803
   81CHL1   H3' 8404   2.570   0.279   6.665 -0.0798 -1.5606 -4.7041
   81CHL1    C4 8405   2.278   0.307   6.814  0.3194 -0.5772 -0.1892
   81CHL1   H4A 8406   2.300   0.415   6.828  0.0552 -0.3814 -1.1765
   81CHL1   H4B 8407   2.213   0.306   6.723  0.2729 -3.2846 -0.2124
   81CHL1    C5 8408   2.206   0.261   6.936 -0.0717  0.7569 -0.4256
   81CHL1    C6 8409   2.072   0.229   6.947 -0.9256  0.3651  0.1657
   81CHL1    H6 8410   2.002   0.228   6.862 -0.5226 -1.0058 -0.1709
   81CHL1    C7 8411   1.997   0.204   7.074 -0.7815 -0.6507  0.5113
   81CHL1   H7A 8412   1.902   0.261   7.068 -0.4270 -0.1498 -0.3595
   81CHL1   H7B 8413   1.966   0.097   7.080  0.5255 -1.0857 -0.2249
   81CHL1    C8 8414   2.072   0.243   7.199 -0.4697 -0.4390  0.6909
   81CHL1    H8 8415   2.065   0.353   7.208 -0.3045 -0.4474  0.9325
   81CHL1   C14 8416   2.023   0.177   7.328  0.1572 -0.3131 -0.9649
   81CHL1   H14 8417   2.030   0.068   7.308 -0.0172 -0.2610 -1.3182
   81CHL1   C15 8418   1.876   0.196   7.364 -0.7316  0.0598  0.2353
   81CHL1  H15A 8419   1.845   0.299   7.338 -0.4924 -0.0747 -0.5925
   81CHL1  H15B 8420   1.806   0.135   7.303 -2.4039 -0.0398  2.1553
   81CHL1   C16 8421   1.866   0.172   7.512  0.4720  0.0934 -0.8556
   81CHL1  H16A 8422   1.828   0.267   7.557 -0.6976 -0.5093 -0.5421
   81CHL1  H16B 8423   1.791   0.093   7.529 -0.8747  1.3853 -0.6264
   81CHL1   C17 8424   2.009   0.136   7.560 -0.1879 -0.5494 -0.2827
   81CHL1   H17 8425   2.028   0.029   7.534 -0.7385 -0.7847  0.2437
   81CHL1   C13 8426   2.103   0.200   7.459  0.3225  0.0468 -0.4003
   81CHL1   C18 8427   2.105   0.352   7.482 -0.8510 -0.2282 -0.0260
   81CHL1  H18A 8428   2.004   0.396   7.496 -1.0485 -0.3180 -1.0713
   81CHL1  H18B 8429   2.164   0.373   7.574  1.5728  0.0591 -1.5661
   81CHL1  H18C 8430   2.146   0.408   7.395  0.2984  0.7521  1.1102
   81CHL1   C12 8431   2.242   0.144   7.435 -0.2973 -0.6666  1.2212
   81CHL1  H12A 8432   2.309   0.156   7.523 -1.5481 -0.8602  2.2218
   81CHL1  H12B 8433   2.245   0.037   7.406  0.1925 -0.5563  0.8555
   81CHL1   C11 8434   2.308   0.224   7.314 -0.0511 -0.0527  0.4452
   81CHL1  H11A 8435   2.331   0.329   7.343 -2.5678  0.7107 -0.1036
   81CHL1  H11B 8436   2.408   0.176   7.303 -0.7600 -1.6935  0.8054
   81CHL1    C9 8437   2.222   0.205   7.186  0.1698  0.1124  0.2703
   81CHL1    H9 8438   2.225   0.095   7.169  1.3614  0.4858 -2.6155
   81CHL1   C10 8439   2.294   0.266   7.059 -0.5299  0.6646  0.0296
   81CHL1   C19 8440   2.327   0.412   7.094  0.5856 -0.0469 -0.3142
   81CHL1  H19A 8441   2.233   0.442   7.145 -0.1173 -0.8625 -1.1050
   81CHL1  H19B 8442   2.405   0.414   7.173  1.2270  1.9075 -0.9466
   81CHL1  H19C 8443   2.361   0.478   7.012  0.0326  0.2614 -0.2975
   81CHL1    C1 8444   2.418   0.183   7.013  0.3313 -0.2203 -0.0921
   81CHL1   H1A 8445   2.499   0.179   7.089  0.7714 -0.6330 -0.5750
   81CHL1   H1B 8446   2.388   0.077   6.997 -0.5001  0.3480 -2.7333
   81CHL1    C2 8447   2.502   0.235   6.886 -0.2391 -0.4486  0.1733
   81CHL1   H2A 8448   2.581   0.160   6.867 -0.3973 -0.6359  0.2591
   81CHL1   H2B 8449   2.549   0.334   6.908 -1.2405 -0.3777  2.2470
   81CHL1   C20 8450   2.025   0.144   7.713  0.9311  0.4127  0.3720
   81CHL1   H20 8451   2.048   0.250   7.735 -1.7509  1.2225 -0.3678
   81CHL1   C21 8452   2.143   0.056   7.749 -0.0231 -0.5845  0.2002
   81CHL1  H21A 8453   2.240   0.094   7.712  0.1359  0.7002  1.8073
   81CHL1  H21B 8454   2.122  -0.048   7.717 -1.7760 -0.5997  1.2610
   81CHL1  H21C 8455   2.150   0.052   7.860 -1.6280  2.2751  0.4990
   81CHL1   C22 8456   1.895   0.100   7.794  0.1260 -0.0377  0.2985
   81CHL1  H22A 8457   1.805   0.140   7.743  0.7147 -0.3068 -1.0171
   81CHL1  H22B 8458   1.884  -0.009   7.812 -2.3762  0.2069  0.5623
   81CHL1   C23 8459   1.907   0.158   7.933 -0.0744  0.1818 -0.0147
   81CHL1  H23A 8460   1.997   0.117   7.983 -1.9236 -2.1276  1.6576
   81CHL1  H23B 8461   1.922   0.268   7.927 -0.1336  0.1737 -0.3571
   81CHL1   C24 8462   1.788   0.124   8.027  0.3277 -0.4172  0.4018
   81CHL1  H24A 8463   1.696   0.146   7.969  0.7999 -0.4605 -0.3646
   81CHL1  H24B 8464   1.794   0.016   8.056  1.5891 -0.6501 -0.6470
   81CHL1   C25 8465   1.800   0.183   8.166 -0.0766  0.4634 -0.3542
   81CHL1   H25 8466   1.885   0.135   8.219 -1.6825 -0.3499  1.6235
   81CHL1   C26 8467   1.827   0.335   8.166  0.2290  0.0672  0.1401
   81CHL1  H26A 8468   1.775   0.391   8.085 -0.7090 -1.3293 -0.2593
   81CHL1  H26B 8469   1.804   0.379   8.265  0.3207 -0.8868  0.5906
   81CHL1  H26C 8470   1.933   0.349   8.136  0.1119 -1.3498 -1.0482
   81CHL1   C27 8471   1.674   0.154   8.243 -0.0619  0.1790 -0.5875
   81CHL1  H27A 8472   1.590   0.205   8.191  0.7571  2.8343  0.5260
   81CHL1  H27B 8473   1.636   0.051   8.254  0.3329  0.2383  1.7160
   81CHL1  H27C 8474   1.691   0.183   8.349  2.9554  1.7967 -1.3815
   82CHL1    C3 8475   3.286   1.783   6.937 -0.0202 -0.1061 -0.5885
   82CHL1    H3 8476   3.327   1.885   6.955  1.0178 -0.6510  0.3078
   82CHL1    O3 8477   3.305   1.751   6.802  0.1922 -0.2398 -0.0128
   82CHL1   H3' 8478   3.288   1.660   6.776  5.4799 -1.3609 -0.6952
   82CHL1    C4 8479   3.372   1.683   7.019  0.0106  0.3406  0.1411
   82CHL1   H4A 8480   3.335   1.583   6.988 -0.9098  1.0061 -1.0004
   82CHL1   H4B 8481   3.475   1.685   6.977 -0.2734 -0.7242 -0.6579
   82CHL1    C5 8482   3.357   1.694   7.167 -0.0639  0.4500  0.1739
   82CHL1    C6 8483   3.466   1.685   7.247 -0.1281 -0.7131  0.1765
   82CHL1    H6 8484   3.567   1.674   7.204  0.2599 -1.5420  1.2476
   82CHL1    C7 8485   3.459   1.684   7.398  0.1758 -0.1792 -0.5267
   82CHL1   H7A 8486   3.517   1.602   7.446 -0.2472  0.3012  0.8527
   82CHL1   H7B 8487   3.505   1.773   7.445 -0.7074 -0.2227  0.4834
   82CHL1    C8 8488   3.311   1.668   7.456  0.2220 -0.4522  0.0913
   82CHL1    H8 8489   3.284   1.561   7.469 -1.9562 -0.0944 -1.0215
   82CHL1   C14 8490   3.308   1.718   7.604 -0.0462 -0.2601 -0.0222
   82CHL1   H14 8491   3.334   1.826   7.596 -2.7621  0.3910 -1.4993
   82CHL1   C15 8492   3.405   1.653   7.707 -0.6974  0.3786 -0.2650
   82CHL1  H15A 8493   3.415   1.544   7.691 -0.1403  0.4499 -0.4504
   82CHL1  H15B 8494   3.505   1.702   7.708  1.2204 -3.1157 -2.1130
   82CHL1   C16 8495   3.335   1.669   7.848  0.1899  0.0407  0.2224
   82CHL1  H16A 8496   3.311   1.573   7.898  0.7519  0.5979  1.6102
   82CHL1  H16B 8497   3.406   1.729   7.909  1.3521 -0.7593 -0.3028
   82CHL1   C17 8498   3.214   1.753   7.813 -0.0449 -0.1149 -0.5537
   82CHL1   H17 8499   3.250   1.858   7.807  0.1020 -0.2351 -2.2736
   82CHL1   C13 8500   3.169   1.712   7.674 -0.3937  0.2132 -0.3829
   82CHL1   C18 8501   3.104   1.568   7.670  0.3695 -0.0609  0.1000
   82CHL1  H18A 8502   3.088   1.520   7.571  0.0044 -1.4152  0.7799
   82CHL1  H18B 8503   3.147   1.493   7.741  1.8800 -0.7118 -1.4328
   82CHL1  H18C 8504   3.000   1.577   7.708  1.0050 -0.1087  2.0030
   82CHL1   C12 8505   3.087   1.809   7.587 -0.5868  0.5993 -0.2958
   82CHL1  H12A 8506   2.982   1.811   7.623 -1.2869 -1.8214 -1.9318
   82CHL1  H12B 8507   3.130   1.911   7.601  3.6604 -1.1956  1.2916
   82CHL1   C11 8508   3.075   1.771   7.441 -0.3638  0.4687  0.8697
   82CHL1  H11A 8509   3.017   1.677   7.428  0.7328 -0.1558  0.4242
   82CHL1  H11B 8510   3.023   1.844   7.376  0.7646 -1.3395 -2.2660
   82CHL1    C9 8511   3.215   1.752   7.374 -0.6256  0.0060  0.7322
   82CHL1    H9 8512   3.255   1.856   7.373 -1.4866  0.4185 -3.1008
   82CHL1   C10 8513   3.214   1.700   7.226 -0.3461  0.2444  0.0458
   82CHL1   C19 8514   3.158   1.558   7.225 -0.2453 -0.7057 -0.0791
   82CHL1  H19A 8515   3.150   1.515   7.123 -1.4906  1.7713 -1.0986
   82CHL1  H19B 8516   3.228   1.498   7.288 -0.2086  0.6285  1.2211
   82CHL1  H19C 8517   3.055   1.549   7.264 -0.1930 -0.1899  0.1892
   82CHL1    C1 8518   3.132   1.796   7.128 -0.5132  0.9518 -0.8959
   82CHL1   H1A 8519   3.029   1.805   7.168  0.2305  0.2653  1.2910
   82CHL1   H1B 8520   3.188   1.889   7.150  1.6936  0.5023 -3.8596
   82CHL1    C2 8521   3.139   1.773   6.976 -0.4916  0.1235  0.0020
   82CHL1   H2A 8522   3.078   1.840   6.911 -0.2077  0.9466  0.5747
   82CHL1   H2B 8523   3.112   1.667   6.954  0.6546 -0.5261  1.5330
   82CHL1   C20 8524   3.106   1.753   7.916 -0.2669 -0.1408 -0.5738
   82CHL1   H20 8525   3.029   1.675   7.895  1.6104 -1.6870 -2.1353
   82CHL1   C21 8526   3.030   1.892   7.915  0.6106 -0.0500  0.2213
   82CHL1  H21A 8527   3.002   1.932   7.816  1.6342  0.1987  0.0146
   82CHL1  H21B 8528   3.091   1.969   7.966  1.1715  0.8611 -1.7334
   82CHL1  H21C 8529   2.932   1.871   7.962  0.2390 -1.5467 -1.1531
   82CHL1   C22 8530   3.152   1.725   8.059  0.2416  0.3578 -0.2763
   82CHL1  H22A 8531   3.211   1.631   8.071 -2.2853 -1.1749  1.1652
   82CHL1  H22B 8532   3.208   1.810   8.103  0.5961  0.3928 -0.7891
   82CHL1   C23 8533   3.025   1.701   8.143  0.4162 -0.4821 -0.4045
   82CHL1  H23A 8534   2.952   1.784   8.152  0.5846 -0.1773 -1.7031
   82CHL1  H23B 8535   2.978   1.606   8.111  0.2934 -0.8354  0.7680
   82CHL1   C24 8536   3.052   1.663   8.290 -0.6385  0.0742  0.1150
   82CHL1  H24A 8537   2.959   1.642   8.347  0.1460 -2.0499  0.7126
   82CHL1  H24B 8538   3.101   1.563   8.289 -3.3049 -1.3621  1.3319
   82CHL1   C25 8539   3.132   1.765   8.361 -0.0445 -0.3842 -0.2793
   82CHL1   H25 8540   3.217   1.805   8.302  0.4623  0.1369  0.7618
   82CHL1   C26 8541   3.044   1.885   8.395  0.1370 -0.7092  0.2973
   82CHL1  H26A 8542   3.104   1.960   8.451 -1.0970 -0.1208  0.8734
   82CHL1  H26B 8543   3.005   1.935   8.303  3.6163  0.0772 -0.9060
   82CHL1  H26C 8544   2.956   1.874   8.463 -0.9593 -1.4912 -1.1746
   82CHL1   C27 8545   3.190   1.707   8.494  0.6086  0.1180 -0.4142
   82CHL1  H27A 8546   3.104   1.665   8.551  0.3286 -0.2249 -1.0801
   82CHL1  H27B 8547   3.260   1.623   8.477 -1.0702 -1.1141 -1.6209
   82CHL1  H27C 8548   3.231   1.785   8.561  0.2045 -0.2947  0.3331
   83CHL1    C3 8549   5.991   3.309   6.936  0.4547 -0.3352  0.5943
   83CHL1    H3 8550   5.895   3.253   6.936  0.1684  0.0799 -1.2736
   83CHL1    O3 8551   6.015   3.355   6.801 -0.2459  0.2655 -0.5052
   83CHL1   H3' 8552   6.077   3.426   6.819 -0.8917  1.0850 -1.4180
   83CHL1    C4 8553   5.977   3.439   7.016 -0.7108  0.5726 -0.3304
   83CHL1   H4A 8554   6.061   3.509   6.996 -0.7507  0.8878  0.5766
   83CHL1   H4B 8555   5.897   3.490   6.957 -0.8954 -0.7590 -1.2632
   83CHL1    C5 8556   5.945   3.407   7.163  0.3719 -0.0319 -0.3543
   83CHL1    C6 8557   5.840   3.455   7.223  0.2458  0.0375  0.0999
   83CHL1    H6 8558   5.764   3.509   7.166  1.1819  1.7127  0.3782
   83CHL1    C7 8559   5.813   3.428   7.371 -0.1469  0.0887  0.3622
   83CHL1   H7A 8560   5.780   3.522   7.420  0.9720 -0.1465  1.6536
   83CHL1   H7B 8561   5.725   3.362   7.375 -1.5304  1.4332 -3.2958
   83CHL1    C8 8562   5.941   3.389   7.451 -0.2044  0.4084 -0.7736
   83CHL1    H8 8563   6.001   3.480   7.473 -2.6426  1.8460  0.3251
   83CHL1   C14 8564   5.905   3.325   7.591 -0.2130 -0.5796 -0.1013
   83CHL1   H14 8565   5.852   3.230   7.571 -0.8785 -0.0879 -0.6990
   83CHL1   C15 8566   5.822   3.413   7.692  0.0463 -0.2023 -0.0256
   83CHL1  H15A 8567   5.853   3.518   7.672  2.0879 -0.5415  1.1451
   83CHL1  H15B 8568   5.712   3.408   7.673  0.4592  0.7065 -3.1052
   83CHL1   C16 8569   5.854   3.365   7.831  0.1493 -0.4943 -0.0570
   83CHL1  H16A 8570   5.912   3.445   7.882  0.2975 -0.4902 -0.2335
   83CHL1  H16B 8571   5.765   3.333   7.890 -0.2637 -0.2233 -0.5213
   83CHL1   C17 8572   5.956   3.241   7.805  0.1659 -0.2029 -0.1205
   83CHL1   H17 8573   5.881   3.164   7.777 -1.2561  0.3916  1.8079
   83CHL1   C13 8574   6.027   3.283   7.674 -0.0940  0.0758  0.3477
   83CHL1   C18 8575   6.127   3.395   7.695 -0.0996 -0.4872  0.5210
   83CHL1  H18A 8576   6.203   3.347   7.761  2.2984 -0.2436 -1.8475
   83CHL1  H18B 8577   6.174   3.433   7.601  1.8088  0.6143  1.8484
   83CHL1  H18C 8578   6.080   3.487   7.734  1.8367 -0.0017  1.8586
   83CHL1   C12 8579   6.102   3.162   7.605  0.9547 -0.9768 -0.1126
   83CHL1  H12A 8580   6.186   3.136   7.673  1.0297  1.6254  0.8996
   83CHL1  H12B 8581   6.032   3.076   7.597  0.3250 -0.5382  0.4861
   83CHL1   C11 8582   6.136   3.205   7.460  0.2060  0.1205  0.1925
   83CHL1  H11A 8583   6.229   3.266   7.462 -0.2864  0.8806  0.5089
   83CHL1  H11B 8584   6.167   3.109   7.414 -0.0098  0.4160 -0.5905
   83CHL1    C9 8585   6.021   3.279   7.379 -1.0354 -0.1559  0.1803
   83CHL1    H9 8586   5.944   3.199   7.370 -0.0747 -0.8804 -2.7429
   83CHL1   C10 8587   6.055   3.325   7.236 -0.8105 -0.3983 -0.1693
   83CHL1   C19 8588   6.180   3.412   7.232 -0.1151  0.4737 -0.2197
   83CHL1  H19A 8589   6.261   3.371   7.295 -2.0195 -0.4496  1.7648
   83CHL1  H19B 8590   6.223   3.420   7.130  1.4724  1.8175  0.5068
   83CHL1  H19C 8591   6.153   3.512   7.274  0.0229  0.9298 -1.1882
   83CHL1    C1 8592   6.070   3.199   7.149 -0.1509  0.2002 -0.3399
   83CHL1   H1A 8593   6.140   3.130   7.201 -0.2035  0.9386  0.7581
   83CHL1   H1B 8594   5.973   3.144   7.152 -0.6286  1.0077  2.4809
   83CHL1    C2 8595   6.105   3.226   6.996  0.2021 -0.7229 -0.9032
   83CHL1   H2A 8596   6.112   3.131   6.938  2.7765 -0.7553 -0.6742
   83CHL1   H2B 8597   6.200   3.283   6.988 -0.0563 -0.2604 -0.6905
   83CHL1   C20 8598   6.036   3.194   7.925  0.4990 -0.0342 -0.4421
   83CHL1   H20 8599   6.145   3.207   7.907  1.0203 -2.3351  0.6338
   83CHL1   C21 8600   5.999   3.044   7.939  0.3644 -0.6278  0.1304
   83CHL1  H21A 8601   6.013   3.002   7.837  0.8004  1.9812 -0.9667
   83CHL1  H21B 8602   5.899   3.023   7.982 -0.3989 -1.1659 -1.8276
   83CHL1  H21C 8603   6.078   2.997   8.001  2.2317  1.2422 -0.6966
   83CHL1   C22 8604   6.014   3.272   8.055  0.5090  0.2597 -0.0824
   83CHL1  H22A 8605   6.036   3.379   8.037  0.3788  0.1048 -1.2077
   83CHL1  H22B 8606   5.907   3.264   8.087  1.1269 -0.1454  2.0437
   83CHL1   C23 8607   6.096   3.210   8.168  0.4830  1.2896  0.5037
   83CHL1  H23A 8608   6.059   3.109   8.193 -0.4782  1.4013 -0.4143
   83CHL1  H23B 8609   6.198   3.201   8.125 -1.1430  1.4123 -3.8425
   83CHL1   C24 8610   6.082   3.299   8.287 -0.1841 -1.3090  0.5560
   83CHL1  H24A 8611   6.136   3.395   8.278  1.1891 -2.1110 -0.0822
   83CHL1  H24B 8612   5.975   3.317   8.307 -0.2991 -1.9831  0.5833
   83CHL1   C25 8613   6.126   3.226   8.415 -0.0979  0.4408 -0.2629
   83CHL1   H25 8614   6.079   3.125   8.417  0.3260  0.2461  1.6884
   83CHL1   C26 8615   6.281   3.203   8.423 -0.4360 -0.2838 -0.8109
   83CHL1  H26A 8616   6.308   3.112   8.480  2.7400  0.0803 -1.5171
   83CHL1  H26B 8617   6.329   3.181   8.325  0.7025 -0.2977 -0.2761
   83CHL1  H26C 8618   6.331   3.292   8.468 -3.1829  1.9771 -1.9064
   83CHL1   C27 8619   6.084   3.307   8.538 -0.6538  0.3177 -0.4060
   83CHL1  H27A 8620   6.125   3.254   8.627 -0.9404  0.5910 -0.1052
   83CHL1  H27B 8621   6.124   3.410   8.526 -1.1640  0.5833  0.1403
   83CHL1  H27C 8622   5.974   3.318   8.543 -0.5117  1.4746  0.7933
   84CHL1    C3 8623   1.419   6.676   6.917  0.1045 -0.3261 -0.4108
   84CHL1    H3 8624   1.310   6.689   6.934  0.1602  0.4466 -0.5999
   84CHL1    O3 8625   1.428   6.697   6.779  0.3753 -0.4811 -0.4164
   84CHL1   H3' 8626   1.522   6.717   6.767  0.0260  0.3022 -2.1058
   84CHL1    C4 8627   1.494   6.789   6.987 -0.9343 -0.1795  0.0943
   84CHL1   H4A 8628   1.605   6.795   6.978 -0.8768  2.0195  1.5482
   84CHL1   H4B 8629   1.464   6.886   6.942 -1.8517 -0.2399  0.5443
   84CHL1    C5 8630   1.481   6.779   7.137 -0.1463  1.0736 -0.1329
   84CHL1    C6 8631   1.431   6.884   7.207 -0.4977 -0.3901 -0.0263
   84CHL1    H6 8632   1.399   6.970   7.146 -0.0424 -1.4275 -1.8256
   84CHL1    C7 8633   1.410   6.882   7.355 -0.4416  0.3269  0.4461
   84CHL1   H7A 8634   1.446   6.978   7.396  1.6103 -0.4808  0.6772
   84CHL1   H7B 8635   1.302   6.869   7.376 -0.1542  1.1912  2.6505
   84CHL1    C8 8636   1.491   6.770   7.424 -0.1962  0.4952  0.4306
   84CHL1    H8 8637   1.597   6.803   7.435  0.4343 -1.7405  1.9636
   84CHL1   C14 8638   1.445   6.757   7.562  0.8710  0.0863  0.2030
   84CHL1   H14 8639   1.336   6.738   7.561  0.6406  1.2928  1.0142
   84CHL1   C15 8640   1.452   6.883   7.649 -0.2479 -0.0206  0.2314
   84CHL1  H15A 8641   1.555   6.918   7.624  0.1369 -2.5050 -2.1940
   84CHL1  H15B 8642   1.372   6.957   7.627  0.2785  0.6099  0.3790
   84CHL1   C16 8643   1.449   6.830   7.785  0.0124 -0.0335  0.0347
   84CHL1  H16A 8644   1.534   6.870   7.845  0.3071  1.3262 -1.2397
   84CHL1  H16B 8645   1.364   6.858   7.851  1.6270 -0.3212  2.3702
   84CHL1   C17 8646   1.442   6.677   7.788 -0.2641 -0.0845 -0.2554
   84CHL1   H17 8647   1.340   6.636   7.777  0.8658 -3.5474  1.0007
   84CHL1   C13 8648   1.502   6.641   7.649  0.2444  0.1052  0.2018
   84CHL1   C18 8649   1.661   6.658   7.657 -0.7919  0.5767  0.5446
   84CHL1  H18A 8650   1.707   6.563   7.690 -2.3799 -0.3140  0.2941
   84CHL1  H18B 8651   1.710   6.690   7.562  1.7830 -0.1221  1.5802
   84CHL1  H18C 8652   1.684   6.744   7.723  2.2061 -1.3791  2.2780
   84CHL1   C12 8653   1.467   6.512   7.569 -0.0586 -0.6830 -0.4510
   84CHL1  H12A 8654   1.510   6.425   7.623  1.4126  1.1554  1.4864
   84CHL1  H12B 8655   1.357   6.496   7.568  0.1216 -2.0413 -0.7741
   84CHL1   C11 8656   1.526   6.516   7.433 -0.1786  0.5409  0.5695
   84CHL1  H11A 8657   1.637   6.519   7.443 -0.0892 -0.2144 -0.0967
   84CHL1  H11B 8658   1.497   6.418   7.390 -0.1280  0.3969  0.8625
   84CHL1    C9 8659   1.472   6.638   7.350  0.4751 -0.2275 -0.1320
   84CHL1    H9 8660   1.362   6.625   7.345  0.3240  1.4799 -2.2701
   84CHL1   C10 8661   1.520   6.644   7.198 -0.1307  0.1705 -0.6273
   84CHL1   C19 8662   1.678   6.638   7.203  0.0601 -0.0414 -0.1985
   84CHL1  H19A 8663   1.710   6.733   7.250 -0.4157 -0.5036  1.1129
   84CHL1  H19B 8664   1.717   6.554   7.266 -0.3771 -0.1089 -0.0167
   84CHL1  H19C 8665   1.715   6.629   7.098 -0.8396  0.6443 -0.5878
   84CHL1    C1 8666   1.463   6.526   7.116 -0.4689 -0.0984 -1.1910
   84CHL1   H1A 8667   1.518   6.430   7.130 -1.8611 -0.7374  0.1637
   84CHL1   H1B 8668   1.356   6.515   7.142 -0.1307  2.0116  1.5684
   84CHL1    C2 8669   1.475   6.540   6.966 -0.2887  0.4239  0.0833
   84CHL1   H2A 8670   1.418   6.462   6.912 -0.6807 -0.2122  1.3708
   84CHL1   H2B 8671   1.582   6.536   6.936 -0.8425  0.6056 -2.0904
   84CHL1   C20 8672   1.496   6.618   7.922  0.0755 -0.2573 -0.1040
   84CHL1   H20 8673   1.606   6.621   7.937  0.1227  0.4485 -0.5638
   84CHL1   C21 8674   1.450   6.471   7.908 -0.7309 -0.4476  0.1432
   84CHL1  H21A 8675   1.491   6.435   7.812 -2.3774  2.2583 -1.6993
   84CHL1  H21B 8676   1.341   6.463   7.890 -0.2512 -0.7874 -3.1129
   84CHL1  H21C 8677   1.480   6.397   7.985  1.8596 -0.0381 -0.3818
   84CHL1   C22 8678   1.427   6.683   8.044  0.3326 -0.1841  0.6556
   84CHL1  H22A 8679   1.429   6.793   8.056  1.9930 -0.1735  0.5469
   84CHL1  H22B 8680   1.318   6.661   8.037  0.4827 -0.5636 -0.6979
   84CHL1   C23 8681   1.479   6.625   8.178  0.0046 -0.3231  0.3202
   84CHL1  H23A 8682   1.452   6.517   8.186 -1.0933  0.0347  2.1695
   84CHL1  H23B 8683   1.589   6.640   8.182 -0.1039  1.0790 -1.0920
   84CHL1   C24 8684   1.423   6.697   8.298  0.2785  0.5796 -0.2420
   84CHL1  H24A 8685   1.431   6.805   8.274  0.7378  0.7839  0.7699
   84CHL1  H24B 8686   1.317   6.666   8.304  0.5725 -0.2671  0.9855
   84CHL1   C25 8687   1.501   6.672   8.431 -0.1376  0.1449  0.4302
   84CHL1   H25 8688   1.606   6.696   8.407 -0.1743  1.4936  1.5250
   84CHL1   C26 8689   1.443   6.764   8.528  0.8276 -0.4261 -0.3438
   84CHL1  H26A 8690   1.342   6.726   8.557  1.2068 -0.8121  0.5338
   84CHL1  H26B 8691   1.495   6.761   8.627  0.6623  0.3963 -0.2243
   84CHL1  H26C 8692   1.437   6.867   8.489 -0.5784  0.0811  1.0831
   84CHL1   C27 8693   1.497   6.523   8.477  0.4094 -0.6388 -0.2765
   84CHL1  H27A 8694   1.534   6.523   8.582 -1.4033  1.2303  0.4225
   84CHL1  H27B 8695   1.392   6.492   8.494  1.6406 -3.5861  3.2259
   84CHL1  H27C 8696   1.539   6.453   8.402 -1.4741  0.1465 -2.1727
   85CHL1    C3 8697   0.623   5.066   6.627  1.2978  0.7202 -0.0486
   85CHL1    H3 8698   0.569   5.161   6.608 -2.2940 -1.4538 -1.7411
   85CHL1    O3 8699   0.668   5.019   6.506  0.6817 -0.1796  0.5785
   85CHL1   H3' 8700   0.593   5.010   6.446  0.9564  0.4637  0.1227
   85CHL1    C4 8701   0.739   5.081   6.724  0.0224  0.2996  0.1835
   85CHL1   H4A 8702   0.805   4.993   6.708  0.7575  1.3462 -3.1432
   85CHL1   H4B 8703   0.802   5.165   6.689  0.8210 -0.6979 -0.8419
   85CHL1    C5 8704   0.698   5.106   6.870 -0.0674  0.1659 -0.0043
   85CHL1    C6 8705   0.752   5.210   6.934 -0.2631 -0.1003 -0.6363
   85CHL1    H6 8706   0.832   5.271   6.889 -0.0532 -0.0601 -0.2187
   85CHL1    C7 8707   0.715   5.246   7.075  0.7499 -0.3224 -0.0786
   85CHL1   H7A 8708   0.801   5.279   7.138  0.4000 -0.3075  0.3929
   85CHL1   H7B 8709   0.637   5.325   7.076  0.1223 -0.9430  0.6532
   85CHL1    C8 8710   0.647   5.127   7.145  0.4266  0.4856  0.4116
   85CHL1    H8 8711   0.718   5.044   7.163  0.3236  0.2751 -0.1327
   85CHL1   C14 8712   0.588   5.174   7.279  0.6094  0.2111 -0.0514
   85CHL1   H14 8713   0.513   5.253   7.258 -0.2536 -0.4599  0.4355
   85CHL1   C15 8714   0.681   5.248   7.379  0.2478  0.6156 -0.1305
   85CHL1  H15A 8715   0.773   5.188   7.392 -0.0378  0.0300 -0.7650
   85CHL1  H15B 8716   0.706   5.354   7.357  1.1549  0.7279  1.3284
   85CHL1   C16 8717   0.589   5.255   7.500  0.0484  0.1456 -0.9989
   85CHL1  H16A 8718   0.652   5.233   7.589  2.1861 -5.0681 -3.3600
   85CHL1  H16B 8719   0.533   5.350   7.518 -0.1393  0.0851 -1.2572
   85CHL1   C17 8720   0.482   5.138   7.496  0.0766 -0.8631 -0.9605
   85CHL1   H17 8721   0.389   5.194   7.473  1.1588  1.5067  0.0019
   85CHL1   C13 8722   0.512   5.067   7.366  0.0525 -0.7219  0.2465
   85CHL1   C18 8723   0.616   4.950   7.398 -0.0953  0.9097 -0.0025
   85CHL1  H18A 8724   0.695   4.972   7.472 -0.0102 -2.6374  1.1272
   85CHL1  H18B 8725   0.551   4.869   7.437 -1.0645  2.9103  2.8552
   85CHL1  H18C 8726   0.649   4.913   7.298 -1.1119 -0.4537  0.1295
   85CHL1   C12 8727   0.396   5.015   7.279 -0.0494  0.2859  1.5830
   85CHL1  H12A 8728   0.354   4.928   7.333  1.8481 -1.2584  0.6940
   85CHL1  H12B 8729   0.315   5.089   7.261  0.7188  1.0175  1.0849
   85CHL1   C11 8730   0.444   4.961   7.140  0.4398 -0.6532  0.3321
   85CHL1  H11A 8731   0.498   4.864   7.151  0.0726 -0.7717  1.1561
   85CHL1  H11B 8732   0.358   4.929   7.077 -0.4987 -0.2109  1.3484
   85CHL1    C9 8733   0.531   5.064   7.061 -0.1312  0.6073  0.7019
   85CHL1    H9 8734   0.470   5.154   7.038  1.6756  1.1100 -2.8047
   85CHL1   C10 8735   0.585   5.015   6.923  0.4492  0.0320  0.2746
   85CHL1   C19 8736   0.651   4.871   6.943 -0.0638  0.0192  0.3819
   85CHL1  H19A 8737   0.568   4.800   6.964 -1.6430  1.0203 -2.0043
   85CHL1  H19B 8738   0.709   4.838   6.854  0.0998  1.6554 -0.1499
   85CHL1  H19C 8739   0.719   4.878   7.030 -0.2630  0.8312  0.4813
   85CHL1    C1 8740   0.476   5.003   6.822 -0.6324  0.2896  0.1488
   85CHL1   H1A 8741   0.402   4.928   6.857  1.0140 -1.0397  0.9088
   85CHL1   H1B 8742   0.412   5.093   6.814  1.7500  1.8974 -2.6856
   85CHL1    C2 8743   0.523   4.963   6.681 -0.0379  0.1281 -0.2065
   85CHL1   H2A 8744   0.442   4.967   6.605 -1.0871 -1.2383  0.7890
   85CHL1   H2B 8745   0.567   4.861   6.678  0.1850  0.2357 -0.8217
   85CHL1   C20 8746   0.463   5.052   7.624 -0.3690 -0.0781  0.7485
   85CHL1   H20 8747   0.554   4.998   7.656  0.8021  1.6923  0.5834
   85CHL1   C21 8748   0.352   4.944   7.595  0.0520 -0.4451  0.1071
   85CHL1  H21A 8749   0.319   4.899   7.690 -0.5762 -0.3528 -0.0649
   85CHL1  H21B 8750   0.395   4.857   7.539  1.1969  0.4987 -0.5339
   85CHL1  H21C 8751   0.264   4.979   7.536  0.4337 -0.4125 -0.4542
   85CHL1   C22 8752   0.414   5.141   7.742  0.3786 -0.1090 -0.0094
   85CHL1  H22A 8753   0.498   5.207   7.772 -1.3717  1.3522  2.0745
   85CHL1  H22B 8754   0.332   5.206   7.705  0.5753  0.1722  0.0430
   85CHL1   C23 8755   0.380   5.063   7.876  0.5654 -0.0658 -0.4037
   85CHL1  H23A 8756   0.354   5.140   7.952 -3.0688 -1.6856  0.2534
   85CHL1  H23B 8757   0.289   4.999   7.868  0.2463  0.3331 -0.0767
   85CHL1   C24 8758   0.492   4.977   7.922 -0.4706  0.0392 -0.1077
   85CHL1  H24A 8759   0.479   4.885   7.860 -0.8839 -0.1217  0.2097
   85CHL1  H24B 8760   0.583   5.025   7.881  0.3736 -1.1094  0.3439
   85CHL1   C25 8761   0.499   4.958   8.074 -0.2339  0.4187 -0.3695
   85CHL1   H25 8762   0.470   5.057   8.117 -1.6732 -0.2794  0.3516
   85CHL1   C26 8763   0.397   4.859   8.132 -0.3263  0.0975  0.5746
   85CHL1  H26A 8764   0.293   4.899   8.124 -0.9547 -1.7935 -1.6440
   85CHL1  H26B 8765   0.412   4.763   8.078 -0.1694  0.0319  0.7389
   85CHL1  H26C 8766   0.409   4.832   8.239 -0.6422 -1.1492  0.3162
   85CHL1   C27 8767   0.646   4.930   8.126 -0.5688 -0.4700  0.0831
   85CHL1  H27A 8768   0.715   5.008   8.089 -0.9116  0.1037  0.6241
   85CHL1  H27B 8769   0.637   4.940   8.237  0.2823 -0.1862  0.1346
   85CHL1  H27C 8770   0.677   4.828   8.093 -1.6222 -1.1370  1.0632
   86CHL1    C3 8771   4.150   1.385   6.985 -0.6557 -0.2128  0.7929
   86CHL1    H3 8772   4.206   1.481   6.990  1.4475 -1.2386 -0.9032
   86CHL1    O3 8773   4.144   1.357   6.845 -0.3284  0.1252 -0.0367
   86CHL1   H3' 8774   4.083   1.284   6.835 -2.1738  1.7261 -1.1321
   86CHL1    C4 8775   4.230   1.276   7.058 -0.8606  0.0602  0.1529
   86CHL1   H4A 8776   4.189   1.179   7.023 -0.2428  0.6238 -2.3383
   86CHL1   H4B 8777   4.324   1.289   6.999  0.6363 -0.3223  2.3215
   86CHL1    C5 8778   4.247   1.301   7.205  0.2736  0.1758  0.0633
   86CHL1    C6 8779   4.365   1.302   7.266 -0.5135 -0.3444 -0.7038
   86CHL1    H6 8780   4.455   1.284   7.205 -0.4234 -0.5987 -0.4957
   86CHL1    C7 8781   4.394   1.315   7.412  0.3884  0.3710  0.1218
   86CHL1   H7A 8782   4.459   1.230   7.440 -0.1844 -0.0203  0.2854
   86CHL1   H7B 8783   4.436   1.416   7.432 -1.3965  1.1595  0.0688
   86CHL1    C8 8784   4.258   1.298   7.491 -0.0255  0.2368  0.2930
   86CHL1    H8 8785   4.245   1.188   7.489  0.0478  0.2358 -0.6900
   86CHL1   C14 8786   4.283   1.349   7.632 -0.5756  0.4059  0.5208
   86CHL1   H14 8787   4.296   1.459   7.621  0.1409  0.2607 -0.1573
   86CHL1   C15 8788   4.396   1.310   7.727 -0.1698  0.3300  0.5371
   86CHL1  H15A 8789   4.396   1.199   7.724  1.7138  0.2145 -4.3042
   86CHL1  H15B 8790   4.498   1.345   7.699  0.6502 -0.3952  2.4394
   86CHL1   C16 8791   4.340   1.370   7.863 -0.3078  0.0698  0.3906
   86CHL1  H16A 8792   4.350   1.285   7.933  0.9540  0.0175  0.1732
   86CHL1  H16B 8793   4.401   1.454   7.903  0.8539 -1.6014  2.3065
   86CHL1   C17 8794   4.191   1.410   7.848 -0.0773 -0.7173 -0.3642
   86CHL1   H17 8795   4.191   1.518   7.822 -0.8121 -0.3456  1.1004
   86CHL1   C13 8796   4.152   1.330   7.718  0.6020 -0.1656 -0.0790
   86CHL1   C18 8797   4.124   1.180   7.755  0.0918  0.3283  0.0176
   86CHL1  H18A 8798   4.123   1.121   7.661 -0.1323  0.2468  0.0698
   86CHL1  H18B 8799   4.216   1.145   7.806  0.2714  3.6947  2.3784
   86CHL1  H18C 8800   4.032   1.171   7.817  0.4937  2.5858  1.0447
   86CHL1   C12 8801   4.035   1.396   7.655 -0.2160 -0.1234 -0.2673
   86CHL1  H12A 8802   3.944   1.400   7.718  1.6651  2.7347  2.5514
   86CHL1  H12B 8803   4.082   1.497   7.656  2.1928 -1.1616  1.0878
   86CHL1   C11 8804   4.014   1.348   7.515  0.4149  0.2314  0.0670
   86CHL1  H11A 8805   3.996   1.240   7.531  0.7269  0.4129  1.8294
   86CHL1  H11B 8806   3.924   1.380   7.458  0.8614 -2.5874 -2.4584
   86CHL1    C9 8807   4.140   1.372   7.419 -0.3098  0.3909 -0.0247
   86CHL1    H9 8808   4.157   1.481   7.405  1.5115  0.6701  3.3597
   86CHL1   C10 8809   4.112   1.320   7.276 -0.5536 -0.1576 -0.1382
   86CHL1   C19 8810   4.045   1.181   7.275 -0.2266  0.8357 -0.7978
   86CHL1  H19A 8811   4.032   1.147   7.171  0.9178 -0.1397 -0.6435
   86CHL1  H19B 8812   4.105   1.102   7.325  0.4999  0.1588 -2.6822
   86CHL1  H19C 8813   3.942   1.179   7.318 -0.7521  2.3611 -1.8943
   86CHL1    C1 8814   4.022   1.426   7.201 -0.9080 -0.4098 -0.3204
   86CHL1   H1A 8815   3.925   1.431   7.254 -0.1635  0.8996  1.0028
   86CHL1   H1B 8816   4.079   1.521   7.208  2.0056 -1.8605 -2.2562
   86CHL1    C2 8817   4.011   1.398   7.052  0.1546  0.4421  0.1501
   86CHL1   H2A 8818   3.953   1.484   7.010  0.9290  1.0526  0.3143
   86CHL1   H2B 8819   3.948   1.307   7.038  0.2239  0.0339  2.2642
   86CHL1   C20 8820   4.097   1.383   7.975 -0.3390 -0.3531 -0.4141
   86CHL1   H20 8821   4.001   1.349   7.931  1.2547 -1.2156 -3.4688
   86CHL1   C21 8822   4.085   1.513   8.056 -0.4347 -0.3591 -0.6223
   86CHL1  H21A 8823   4.075   1.593   7.980 -0.8873  1.0962  0.9123
   86CHL1  H21B 8824   4.173   1.533   8.120 -1.1699  1.8643 -0.2319
   86CHL1  H21C 8825   4.000   1.519   8.127 -0.1187  0.6014 -0.3056
   86CHL1   C22 8826   4.132   1.266   8.071 -0.3670  0.1533  0.0723
   86CHL1  H22A 8827   4.168   1.186   8.003  0.3632 -0.7878  1.5069
   86CHL1  H22B 8828   4.219   1.300   8.132 -0.3004 -0.4879  0.3472
   86CHL1   C23 8829   4.015   1.230   8.169  0.2796 -0.0851  0.3474
   86CHL1  H23A 8830   3.976   1.330   8.197  1.2908  1.0625 -1.9736
   86CHL1  H23B 8831   3.933   1.182   8.111  0.2709  2.7641 -2.2507
   86CHL1   C24 8832   4.069   1.149   8.284 -0.2845  0.3301  0.0203
   86CHL1  H24A 8833   3.997   1.065   8.289  2.0435 -1.8498  5.6917
   86CHL1  H24B 8834   4.167   1.109   8.249 -0.2171 -0.2733  0.8861
   86CHL1   C25 8835   4.082   1.224   8.421 -0.2927  0.1108 -0.5024
   86CHL1   H25 8836   3.982   1.273   8.420 -0.6396 -0.3940 -3.8244
   86CHL1   C26 8837   4.103   1.128   8.540 -0.8483  0.1113  1.1070
   86CHL1  H26A 8838   4.026   1.048   8.528 -3.1071  2.5312 -1.9906
   86CHL1  H26B 8839   4.204   1.082   8.532 -0.0811  1.7405  1.0786
   86CHL1  H26C 8840   4.106   1.173   8.642 -0.9389 -2.0814  2.1404
   86CHL1   C27 8841   4.194   1.330   8.419 -0.2984 -0.3703  0.4512
   86CHL1  H27A 8842   4.180   1.373   8.521 -2.4960 -2.9451  1.3527
   86CHL1  H27B 8843   4.289   1.274   8.403  1.1005  1.9370  0.1973
   86CHL1  H27C 8844   4.174   1.398   8.334 -0.5554 -2.4857 -1.2438
   87CHL1    C3 8845   3.593   0.931   7.020 -0.4442  0.1663  0.1392
   87CHL1    H3 8846   3.606   1.038   7.046 -1.9199  0.8822 -1.7779
   87CHL1    O3 8847   3.584   0.914   6.879 -0.3943 -0.7083  0.1897
   87CHL1   H3' 8848   3.601   0.823   6.856  2.7616 -0.1459 -0.1126
   87CHL1    C4 8849   3.706   0.842   7.073 -0.1743  0.3533  0.0443
   87CHL1   H4A 8850   3.699   0.739   7.032  0.3324  0.2015  0.3276
   87CHL1   H4B 8851   3.798   0.891   7.034  0.0463 -0.4506 -0.4912
   87CHL1    C5 8852   3.703   0.845   7.224 -0.6003  0.2270  0.8082
   87CHL1    C6 8853   3.808   0.892   7.292 -0.3206  0.0451  0.4919
   87CHL1    H6 8854   3.903   0.925   7.248 -1.4445  0.5286 -1.7268
   87CHL1    C7 8855   3.815   0.909   7.442  0.4900 -0.4386 -0.2271
   87CHL1   H7A 8856   3.909   0.857   7.474  0.9535  0.3226 -0.3293
   87CHL1   H7B 8857   3.827   1.015   7.472 -0.4190 -0.4812  0.3287
   87CHL1    C8 8858   3.707   0.846   7.519  0.7959  1.0874  0.1845
   87CHL1    H8 8859   3.728   0.737   7.525  0.8336  1.1376  1.2051
   87CHL1   C14 8860   3.701   0.899   7.660  0.2575  0.5533  0.6651
   87CHL1   H14 8861   3.685   1.009   7.652  0.4971  0.4564 -2.2953
   87CHL1   C15 8862   3.829   0.900   7.748 -0.0469  0.0012  1.0426
   87CHL1  H15A 8863   3.873   0.798   7.750  1.1901  0.5183  1.2753
   87CHL1  H15B 8864   3.907   0.972   7.715 -0.5766  0.2945  0.4194
   87CHL1   C16 8865   3.765   0.924   7.886  0.1428  0.7250  0.0683
   87CHL1  H16A 8866   3.811   0.876   7.975 -3.1827  0.4906  1.7870
   87CHL1  H16B 8867   3.788   1.032   7.902  1.4033  0.5624 -0.4555
   87CHL1   C17 8868   3.612   0.906   7.874 -0.1527  0.3952 -0.0803
   87CHL1   H17 8869   3.564   1.005   7.861  2.6991  1.8515 -0.3279
   87CHL1   C13 8870   3.595   0.834   7.738  0.4856  0.4360  0.2932
   87CHL1   C18 8871   3.612   0.678   7.749  0.2197 -0.7866  0.1738
   87CHL1  H18A 8872   3.617   0.619   7.655  4.5433  0.3353 -0.5056
   87CHL1  H18B 8873   3.709   0.656   7.799  0.0316 -2.1539 -0.0256
   87CHL1  H18C 8874   3.532   0.624   7.805 -2.6365  0.7251 -2.1700
   87CHL1   C12 8875   3.454   0.855   7.673 -0.0225  0.9402  0.4083
   87CHL1  H12A 8876   3.370   0.805   7.727  0.2498  1.5098  1.3721
   87CHL1  H12B 8877   3.433   0.964   7.667 -3.2927  0.4171  0.2358
   87CHL1   C11 8878   3.452   0.809   7.526  0.1010 -0.4253  0.5545
   87CHL1  H11A 8879   3.453   0.698   7.525  0.7494 -0.4233 -0.3298
   87CHL1  H11B 8880   3.348   0.828   7.490 -0.3075 -2.7057  0.4130
   87CHL1    C9 8881   3.569   0.862   7.443 -0.3501 -0.4411  0.8014
   87CHL1    H9 8882   3.555   0.972   7.440  0.5459 -0.3096  1.2074
   87CHL1   C10 8883   3.576   0.816   7.296  0.6150  0.3292 -0.2002
   87CHL1   C19 8884   3.572   0.658   7.295  0.0543 -0.5399 -0.2871
   87CHL1  H19A 8885   3.669   0.608   7.317 -1.1793 -1.9941  2.2598
   87CHL1  H19B 8886   3.503   0.615   7.371 -1.0531 -1.0246 -1.5374
   87CHL1  H19C 8887   3.527   0.615   7.203 -0.0200 -0.3143 -0.3568
   87CHL1    C1 8888   3.455   0.878   7.228 -0.7257 -0.1583 -0.4163
   87CHL1   H1A 8889   3.362   0.831   7.265 -0.4347 -0.2326  0.2238
   87CHL1   H1B 8890   3.463   0.986   7.252  0.3393  0.3296 -2.6681
   87CHL1    C2 8891   3.462   0.872   7.074  0.6153  0.5536  0.1146
   87CHL1   H2A 8892   3.378   0.933   7.035  0.0380  0.5527  1.3161
   87CHL1   H2B 8893   3.457   0.765   7.047  1.5468  0.1861  1.3145
   87CHL1   C20 8894   3.560   0.846   8.011  0.2528 -0.2010 -0.8754
   87CHL1   H20 8895   3.610   0.751   8.038 -0.0616 -0.0425  0.3235
   87CHL1   C21 8896   3.412   0.816   8.002 -0.0550  0.5793 -0.4091
   87CHL1  H21A 8897   3.367   0.791   8.100 -1.4393 -1.3630 -1.4592
   87CHL1  H21B 8898   3.398   0.729   7.934  3.2136 -0.5887  0.1803
   87CHL1  H21C 8899   3.350   0.902   7.971 -1.6384  0.5418  2.3586
   87CHL1   C22 8900   3.603   0.936   8.132  0.1540  0.5909  0.1960
   87CHL1  H22A 8901   3.707   0.975   8.125 -0.3676  2.1304  0.5711
   87CHL1  H22B 8902   3.540   1.028   8.128  0.8226  1.2150  2.4904
   87CHL1   C23 8903   3.590   0.870   8.273 -0.5751 -0.0966 -0.4615
   87CHL1  H23A 8904   3.487   0.842   8.306 -1.3941  1.0761 -1.8950
   87CHL1  H23B 8905   3.655   0.780   8.269  1.7959  1.4812  0.4539
   87CHL1   C24 8906   3.657   0.960   8.380 -0.0902 -0.5925  0.0647
   87CHL1  H24A 8907   3.764   0.959   8.350 -0.3527 -1.3416 -0.8915
   87CHL1  H24B 8908   3.615   1.062   8.373 -0.1860 -0.5479  1.0864
   87CHL1   C25 8909   3.664   0.914   8.531  0.2608 -0.6170 -0.0614
   87CHL1   H25 8910   3.562   0.874   8.551 -0.6963  1.4336 -0.5740
   87CHL1   C26 8911   3.753   0.793   8.542 -0.2595  0.4677 -0.0861
   87CHL1  H26A 8912   3.860   0.821   8.530 -0.6409  1.0292 -3.0077
   87CHL1  H26B 8913   3.741   0.757   8.646 -2.9095 -0.7003 -0.7160
   87CHL1  H26C 8914   3.720   0.724   8.461  0.7810  1.1304 -1.1156
   87CHL1   C27 8915   3.691   1.036   8.624  0.0881  0.0998  0.7199
   87CHL1  H27A 8916   3.682   1.004   8.730  1.6773 -2.2842  0.2137
   87CHL1  H27B 8917   3.789   1.084   8.603 -0.1986  0.0654 -0.7899
   87CHL1  H27C 8918   3.619   1.117   8.599  1.9043  2.1972  1.9593
   88CHL1    C3 8919   2.059   5.742   6.918  0.1985  0.5319  0.6444
   88CHL1    H3 8920   2.159   5.786   6.938  0.8039  0.6098 -2.1593
   88CHL1    O3 8921   2.020   5.752   6.783 -0.7656  0.1377 -0.1454
   88CHL1   H3' 8922   1.943   5.695   6.777 -0.3538 -0.7809  2.1618
   88CHL1    C4 8923   2.060   5.594   6.956 -0.1349 -0.6923 -0.0772
   88CHL1   H4A 8924   1.969   5.539   6.925 -0.6264 -0.1465  0.3718
   88CHL1   H4B 8925   2.144   5.553   6.896  0.8203  2.6713 -1.2595
   88CHL1    C5 8926   2.079   5.577   7.102 -0.2487  0.3082 -1.1734
   88CHL1    C6 8927   2.187   5.508   7.144 -0.8130  0.0393 -0.3290
   88CHL1    H6 8928   2.265   5.471   7.076  1.2762  2.7527  0.3803
   88CHL1    C7 8929   2.221   5.477   7.286 -0.1896  0.0039  0.7564
   88CHL1   H7A 8930   2.250   5.370   7.294 -0.2807 -0.0093  0.9248
   88CHL1   H7B 8931   2.307   5.544   7.303 -0.1480  0.3094 -0.5605
   88CHL1    C8 8932   2.119   5.520   7.392  0.0459 -0.1192  0.1884
   88CHL1    H8 8933   2.052   5.432   7.402 -0.0505 -0.1991 -0.9752
   88CHL1   C14 8934   2.189   5.551   7.522 -0.1028 -0.4483 -0.5686
   88CHL1   H14 8935   2.245   5.646   7.509  0.5256 -0.6293  0.7130
   88CHL1   C15 8936   2.305   5.450   7.566 -0.6649 -0.5339 -0.2221
   88CHL1  H15A 8937   2.278   5.346   7.540 -0.2846 -0.5492 -0.5680
   88CHL1  H15B 8938   2.404   5.467   7.519 -1.0963  0.4095 -0.8131
   88CHL1   C16 8939   2.303   5.469   7.717  0.2223  0.0815 -0.2082
   88CHL1  H16A 8940   2.269   5.374   7.763  0.3884 -1.0829 -2.3470
   88CHL1  H16B 8941   2.400   5.480   7.770 -0.8511  2.6621  1.4183
   88CHL1   C17 8942   2.199   5.584   7.752 -0.5828 -0.5724 -0.5720
   88CHL1   H17 8943   2.250   5.683   7.747 -2.0046  0.1726 -0.7451
   88CHL1   C13 8944   2.098   5.585   7.636  0.6286 -0.3258 -0.0016
   88CHL1   C18 8945   2.000   5.473   7.661  0.3068  0.4331 -0.1976
   88CHL1  H18A 8946   1.928   5.461   7.577  1.8953  0.1953 -1.5749
   88CHL1  H18B 8947   2.049   5.374   7.663 -0.3684  0.0822  2.7514
   88CHL1  H18C 8948   1.934   5.496   7.747  0.0893 -1.1897  0.1025
   88CHL1   C12 8949   2.035   5.721   7.596 -0.0100  0.5643 -0.4358
   88CHL1  H12A 8950   1.966   5.757   7.676  0.2568 -0.3001  0.1996
   88CHL1  H12B 8951   2.112   5.800   7.585  0.6815  0.0038  0.2987
   88CHL1   C11 8952   1.958   5.712   7.459 -0.5068  0.8897 -0.1685
   88CHL1  H11A 8953   1.869   5.645   7.462 -0.6019  0.8947 -2.0376
   88CHL1  H11B 8954   1.921   5.812   7.429 -0.7990  0.7448 -0.2964
   88CHL1    C9 8955   2.053   5.655   7.348  0.7114 -0.3498  0.3005
   88CHL1    H9 8956   2.142   5.721   7.355  2.1361 -1.7758 -2.4381
   88CHL1   C10 8957   1.992   5.649   7.199 -0.1426 -0.1963 -0.3418
   88CHL1   C19 8958   1.852   5.575   7.200 -0.3181 -0.1735 -0.0855
   88CHL1  H19A 8959   1.785   5.613   7.280 -0.2776  0.7787 -0.4904
   88CHL1  H19B 8960   1.807   5.557   7.100  0.7436  0.8364 -0.7722
   88CHL1  H19C 8961   1.877   5.470   7.227 -2.2624 -0.5708  0.3293
   88CHL1    C1 8962   1.980   5.800   7.149 -0.2491 -0.1534 -0.8522
   88CHL1   H1A 8963   1.911   5.861   7.211 -0.5404 -1.1990 -0.1301
   88CHL1   H1B 8964   2.080   5.845   7.167  0.1364 -1.2319 -0.2473
   88CHL1    C2 8965   1.951   5.818   7.000 -0.4926 -0.3903  0.4934
   88CHL1   H2A 8966   1.974   5.921   6.966  0.9703 -0.3747  1.3981
   88CHL1   H2B 8967   1.849   5.786   6.970 -0.7202  2.2875 -2.0184
   88CHL1   C20 8968   2.149   5.574   7.900 -0.0762  1.1388  0.4337
   88CHL1   H20 8969   2.110   5.473   7.927  0.4831  0.8052  0.0229
   88CHL1   C21 8970   2.047   5.680   7.929  0.3099 -0.0218 -0.1104
   88CHL1  H21A 8971   2.104   5.775   7.927  1.8728 -0.9267 -0.1055
   88CHL1  H21B 8972   1.988   5.671   8.023 -0.3499 -2.5043 -0.6933
   88CHL1  H21C 8973   1.967   5.672   7.852 -1.1865 -1.3370  1.4854
   88CHL1   C22 8974   2.277   5.575   7.987  0.4351 -0.4548 -0.6033
   88CHL1  H22A 8975   2.355   5.502   7.958 -0.4957 -1.5052 -0.5252
   88CHL1  H22B 8976   2.328   5.673   7.970 -0.2285 -0.2679 -1.6049
   88CHL1   C23 8977   2.250   5.562   8.139 -0.4831 -0.6276 -0.3818
   88CHL1  H23A 8978   2.185   5.641   8.183 -0.3909 -2.1325  2.7685
   88CHL1  H23B 8979   2.195   5.465   8.138 -1.3197 -0.1677 -0.3543
   88CHL1   C24 8980   2.386   5.556   8.217 -0.1149  0.1015  0.4496
   88CHL1  H24A 8981   2.461   5.494   8.164 -3.4437 -2.8569 -1.2406
   88CHL1  H24B 8982   2.425   5.659   8.225 -0.8875  0.2838  2.5523
   88CHL1   C25 8983   2.382   5.524   8.364  0.4597  0.5560 -0.7136
   88CHL1   H25 8984   2.476   5.473   8.395  0.5900  0.6137 -1.0094
   88CHL1   C26 8985   2.363   5.645   8.457 -0.3817 -0.1781  0.3363
   88CHL1  H26A 8986   2.271   5.699   8.427  0.5013  1.1087 -0.1615
   88CHL1  H26B 8987   2.361   5.617   8.564  1.7788 -1.7051  0.0340
   88CHL1  H26C 8988   2.451   5.708   8.434 -0.7228  0.1389 -0.1308
   88CHL1   C27 8989   2.271   5.425   8.389  0.5166 -0.2451 -0.1013
   88CHL1  H27A 8990   2.170   5.464   8.364  1.3701  0.6695 -2.4297
   88CHL1  H27B 8991   2.277   5.329   8.332 -0.4291 -0.1875 -0.3232
   88CHL1  H27C 8992   2.281   5.391   8.494  1.6895  0.0640 -0.0968
   89CHL1    C3 8993   4.638   1.639   6.811  0.9968 -0.0247  0.6395
   89CHL1    H3 8994   4.650   1.748   6.830  0.3577  0.1001  0.3558
   89CHL1    O3 8995   4.583   1.626   6.683 -0.4344 -0.5082 -0.2751
   89CHL1   H3' 8996   4.502   1.677   6.678  0.6938  1.5232  0.6301
   89CHL1    C4 8997   4.779   1.576   6.805 -0.4088 -0.0198  0.3066
   89CHL1   H4A 8998   4.774   1.479   6.751  1.8403 -0.0472  0.0502
   89CHL1   H4B 8999   4.837   1.647   6.742 -0.3699 -0.0186  0.3441
   89CHL1    C5 9000   4.839   1.570   6.947  0.5483 -0.0036 -0.3824
   89CHL1    C6 9001   4.959   1.625   6.975  0.2986  0.1918 -0.3431
   89CHL1    H6 9002   5.019   1.667   6.893  0.2821  0.1065 -0.3995
   89CHL1    C7 9003   5.014   1.637   7.114  0.5232  0.2451  0.0869
   89CHL1   H7A 9004   5.124   1.627   7.121  0.6731  0.3166 -1.7744
   89CHL1   H7B 9005   4.979   1.739   7.141 -0.9225 -0.2422  0.1285
   89CHL1    C8 9006   4.942   1.546   7.224  0.8166 -0.5603  0.3579
   89CHL1    H8 9007   4.973   1.440   7.213  0.7454 -0.4154 -1.6375
   89CHL1   C14 9008   4.983   1.585   7.365  0.4132 -0.6511 -0.4330
   89CHL1   H14 9009   4.945   1.687   7.386  0.0628 -0.9996  0.7395
   89CHL1   C15 9010   5.128   1.612   7.402  0.7769 -0.3640 -0.8845
   89CHL1  H15A 9011   5.190   1.523   7.374 -0.6555 -1.4553 -0.6946
   89CHL1  H15B 9012   5.173   1.704   7.359  2.8769 -0.1771  1.4473
   89CHL1   C16 9013   5.115   1.612   7.554 -0.8349 -0.0345 -0.9710
   89CHL1  H16A 9014   5.185   1.537   7.596 -0.7972  1.7050  2.4005
   89CHL1  H16B 9015   5.148   1.707   7.599  0.8223  0.0200 -2.2032
   89CHL1   C17 9016   4.973   1.561   7.597 -0.2601 -0.2481  0.9080
   89CHL1   H17 9017   4.916   1.655   7.612  1.0926  0.6731  0.4808
   89CHL1   C13 9018   4.925   1.490   7.471  0.6074 -0.5171  0.1329
   89CHL1   C18 9019   4.976   1.344   7.460  0.6435 -0.2370 -0.3678
   89CHL1  H18A 9020   4.949   1.301   7.361  1.1945 -0.4585 -0.4220
   89CHL1  H18B 9021   5.086   1.344   7.472  0.3951 -0.1366  2.4504
   89CHL1  H18C 9022   4.924   1.287   7.540  1.0884 -0.5216 -0.2831
   89CHL1   C12 9023   4.774   1.491   7.450  0.6860 -0.2188  1.1292
   89CHL1  H12A 9024   4.725   1.423   7.524 -1.2510  0.5083  0.5880
   89CHL1  H12B 9025   4.732   1.593   7.463  1.4441 -0.0528  2.4148
   89CHL1   C11 9026   4.729   1.440   7.304 -0.0927 -0.5409 -0.2233
   89CHL1  H11A 9027   4.770   1.337   7.295  0.6135 -0.8515  4.1739
   89CHL1  H11B 9028   4.619   1.448   7.293 -0.2412  0.1353  1.4226
   89CHL1    C9 9029   4.793   1.539   7.204  0.3065  0.2994  0.9339
   89CHL1    H9 9030   4.745   1.635   7.232 -2.0278  0.9470 -4.1915
   89CHL1   C10 9031   4.746   1.514   7.059  0.2906  0.5435  0.2752
   89CHL1   C19 9032   4.747   1.362   7.036  0.1114 -0.0306  0.6228
   89CHL1  H19A 9033   4.734   1.338   6.928  0.4373  1.1928  0.2975
   89CHL1  H19B 9034   4.843   1.320   7.071  0.2883  0.7544  1.0874
   89CHL1  H19C 9035   4.660   1.312   7.083 -0.2833 -1.2067 -1.2367
   89CHL1    C1 9036   4.605   1.563   7.041 -0.0719 -1.3154 -0.1242
   89CHL1   H1A 9037   4.539   1.494   7.098  0.4481 -2.5275 -0.9634
   89CHL1   H1B 9038   4.591   1.664   7.086 -1.4810 -1.7246  0.4004
   89CHL1    C2 9039   4.536   1.571   6.904  0.2188 -0.0055  0.1579
   89CHL1   H2A 9040   4.441   1.626   6.919 -0.6033 -1.2195 -0.4279
   89CHL1   H2B 9041   4.515   1.472   6.857  0.8839 -0.4548  0.7948
   89CHL1   C20 9042   4.979   1.484   7.733 -0.2673 -0.8627 -0.1212
   89CHL1   H20 9043   5.036   1.392   7.711  0.0961 -1.5323  3.0496
   89CHL1   C21 9044   4.843   1.453   7.783  0.0603  0.5133  0.0195
   89CHL1  H21A 9045   4.794   1.387   7.709 -1.7783 -0.4476  1.9718
   89CHL1  H21B 9046   4.768   1.532   7.804 -0.4406 -0.2798  1.3370
   89CHL1  H21C 9047   4.854   1.385   7.871  3.0051 -0.3974 -0.9285
   89CHL1   C22 9048   5.063   1.559   7.838 -0.2885  0.2311 -0.4279
   89CHL1  H22A 9049   5.165   1.587   7.807  0.2853  1.1978  2.0763
   89CHL1  H22B 9050   5.014   1.654   7.871 -1.0434 -0.4624  0.5238
   89CHL1   C23 9051   5.093   1.479   7.964  0.0646 -0.0644 -0.0785
   89CHL1  H23A 9052   4.999   1.433   8.000 -0.8646  0.0827 -2.1633
   89CHL1  H23B 9053   5.166   1.403   7.926  1.2666  1.0552 -0.1030
   89CHL1   C24 9054   5.139   1.563   8.083  0.2036 -0.2691 -0.2693
   89CHL1  H24A 9055   5.248   1.583   8.097 -0.0264  1.1251 -0.2676
   89CHL1  H24B 9056   5.102   1.667   8.068  1.3255  0.1579 -0.1714
   89CHL1   C25 9057   5.072   1.512   8.214  0.0635  0.5202  1.0530
   89CHL1   H25 9058   4.965   1.518   8.184  0.1367  2.5387  1.0096
   89CHL1   C26 9059   5.110   1.366   8.249  0.0832  0.6726 -0.3453
   89CHL1  H26A 9060   5.210   1.372   8.297  0.3587 -0.1056 -0.7983
   89CHL1  H26B 9061   5.033   1.314   8.309 -0.2259 -0.3066 -1.5369
   89CHL1  H26C 9062   5.121   1.299   8.161  1.4067  0.3910  0.0069
   89CHL1   C27 9063   5.079   1.601   8.343 -0.6828  0.3638  0.2033
   89CHL1  H27A 9064   5.178   1.591   8.393 -1.3322 -1.1379  1.2838
   89CHL1  H27B 9065   5.051   1.708   8.335  2.4224  1.3342  0.9634
   89CHL1  H27C 9066   5.014   1.558   8.423 -0.4881  0.0595  0.2025
   90CHL1    C3 9067   3.478   5.450   6.994  0.5804  0.0221  0.1456
   90CHL1    H3 9068   3.432   5.375   7.062  1.7165 -0.0709  0.8346
   90CHL1    O3 9069   3.480   5.394   6.857  0.3160  0.4724 -0.3806
   90CHL1   H3' 9070   3.567   5.354   6.848  0.6486  0.1349  2.9479
   90CHL1    C4 9071   3.396   5.582   6.997 -0.1531 -0.2090 -0.2504
   90CHL1   H4A 9072   3.438   5.646   6.917 -0.6666 -1.0243 -1.2056
   90CHL1   H4B 9073   3.295   5.550   6.961 -1.7916  2.6196  1.4710
   90CHL1    C5 9074   3.390   5.660   7.126 -0.6171  0.5482  0.1223
   90CHL1    C6 9075   3.275   5.697   7.179 -0.6753 -0.3025 -0.1739
   90CHL1    H6 9076   3.181   5.661   7.136 -1.6537  1.4336  0.4290
   90CHL1    C7 9077   3.265   5.772   7.313 -0.1765 -0.5584  0.7800
   90CHL1   H7A 9078   3.190   5.853   7.325  2.6848  2.0428  2.5093
   90CHL1   H7B 9079   3.227   5.699   7.387  1.3812 -1.9969  0.2116
   90CHL1    C8 9080   3.404   5.833   7.352  1.1689 -0.1222 -0.1253
   90CHL1    H8 9081   3.418   5.928   7.296  2.5307  1.1469  2.1862
   90CHL1   C14 9082   3.409   5.867   7.497  0.1384  0.2820 -0.4944
   90CHL1   H14 9083   3.398   5.774   7.557  1.0906  1.1444  1.1113
   90CHL1   C15 9084   3.298   5.955   7.557  0.4705  0.1982  0.8254
   90CHL1  H15A 9085   3.272   6.025   7.475 -3.1734 -1.7142  0.1030
   90CHL1  H15B 9086   3.210   5.888   7.565 -0.2205  0.7963 -1.1686
   90CHL1   C16 9087   3.351   6.022   7.683  0.1758  1.2498 -0.0778
   90CHL1  H16A 9088   3.344   6.131   7.665  1.0942  2.1103  3.8354
   90CHL1  H16B 9089   3.282   5.987   7.763  2.7255 -3.1111  0.5414
   90CHL1   C17 9090   3.492   5.971   7.703  0.1534 -0.2558 -0.5932
   90CHL1   H17 9091   3.479   5.880   7.764 -1.3069  1.5893  2.0319
   90CHL1   C13 9092   3.541   5.932   7.559  0.1267 -0.4497  0.1810
   90CHL1   C18 9093   3.574   6.066   7.480  0.5014 -1.0522 -0.2418
   90CHL1  H18A 9094   3.592   6.047   7.371  0.1253  0.6944 -0.6365
   90CHL1  H18B 9095   3.491   6.139   7.487  0.3501 -1.1124 -1.1926
   90CHL1  H18C 9096   3.669   6.112   7.516  0.7640 -0.6261 -1.4252
   90CHL1   C12 9097   3.650   5.822   7.541  0.1917 -0.2281 -0.2321
   90CHL1  H12A 9098   3.751   5.858   7.568  0.9535 -2.4033  0.0165
   90CHL1  H12B 9099   3.631   5.738   7.611  0.8490  1.5727  2.2529
   90CHL1   C11 9100   3.651   5.769   7.391 -0.7885 -1.0274 -0.9505
   90CHL1  H11A 9101   3.704   5.849   7.335  1.7522 -0.9893  1.3663
   90CHL1  H11B 9102   3.719   5.683   7.379  0.9595  0.1739 -0.0592
   90CHL1    C9 9103   3.518   5.740   7.332  0.3793 -0.2222  0.0451
   90CHL1    H9 9104   3.493   5.654   7.398 -0.5436 -0.8377 -1.0531
   90CHL1   C10 9105   3.526   5.683   7.182  0.2836 -0.1489  0.0258
   90CHL1   C19 9106   3.606   5.787   7.094 -0.9758 -0.8075  0.7454
   90CHL1  H19A 9107   3.707   5.811   7.135  0.0223  0.5209 -2.2118
   90CHL1  H19B 9108   3.623   5.741   6.994 -0.3172  1.2341 -0.1258
   90CHL1  H19C 9109   3.564   5.885   7.064  3.0627  0.7013 -0.7206
   90CHL1    C1 9110   3.610   5.548   7.185 -0.3139 -0.5512 -0.2409
   90CHL1   H1A 9111   3.710   5.589   7.210 -0.7474 -0.3237  1.2943
   90CHL1   H1B 9112   3.578   5.476   7.264 -1.1056  0.6113  0.5439
   90CHL1    C2 9113   3.616   5.470   7.050 -0.6829 -0.6474  0.0277
   90CHL1   H2A 9114   3.660   5.370   7.073 -0.3644 -0.8740 -1.4738
   90CHL1   H2B 9115   3.680   5.526   6.978  0.5601 -0.1513  1.4620
   90CHL1   C20 9116   3.583   6.069   7.778  0.5457 -0.8342 -0.5132
   90CHL1   H20 9117   3.600   6.155   7.710 -2.2270 -0.6921 -1.1396
   90CHL1   C21 9118   3.718   6.002   7.810 -0.0337 -0.2573 -0.2893
   90CHL1  H21A 9119   3.789   6.021   7.727 -0.1142  2.6067  0.2062
   90CHL1  H21B 9120   3.711   5.894   7.837  1.9237 -0.5636 -0.8299
   90CHL1  H21C 9121   3.771   6.051   7.893  0.9492  0.4446 -1.3084
   90CHL1   C22 9122   3.527   6.125   7.911 -0.5631  0.3397 -0.0911
   90CHL1  H22A 9123   3.608   6.174   7.969 -1.1792 -1.7731  2.8061
   90CHL1  H22B 9124   3.444   6.198   7.904 -0.6480  0.2878  0.3230
   90CHL1   C23 9125   3.467   6.011   8.004  0.1370  0.1535 -0.6890
   90CHL1  H23A 9126   3.407   5.943   7.941 -1.2361  2.1794 -1.6897
   90CHL1  H23B 9127   3.554   5.963   8.053  0.5560  1.9542  0.4483
   90CHL1   C24 9128   3.383   6.063   8.123  0.4801  0.1045 -0.8110
   90CHL1  H24A 9129   3.446   6.126   8.190  0.4066 -0.7824  0.1139
   90CHL1  H24B 9130   3.318   6.142   8.081 -0.0023 -1.0061 -2.2542
   90CHL1   C25 9131   3.299   5.956   8.196 -0.2174 -0.0634 -0.3823
   90CHL1   H25 9132   3.233   5.912   8.118  0.6002  1.0537 -1.7689
   90CHL1   C26 9133   3.373   5.838   8.266 -0.6766  0.6139 -0.2589
   90CHL1  H26A 9134   3.306   5.764   8.315  1.5290  0.0755  2.1377
   90CHL1  H26B 9135   3.434   5.793   8.185  1.0918  1.6348  0.4579
   90CHL1  H26C 9136   3.445   5.878   8.341  0.6954 -1.7818 -0.2129
   90CHL1   C27 9137   3.211   6.033   8.286 -0.1319 -0.0076 -0.2217
   90CHL1  H27A 9138   3.141   6.098   8.229 -0.5753 -1.3632 -1.2685
   90CHL1  H27B 9139   3.144   5.961   8.338 -1.5179  0.3490 -1.4503
   90CHL1  H27C 9140   3.265   6.100   8.357  0.3621  0.0658 -0.6641
   91CHL1    C3 9141   4.909   3.922   7.140  0.5988 -0.6256 -0.7875
   91CHL1    H3 9142   4.875   4.027   7.146  0.5573 -0.6038 -1.3090
   91CHL1    O3 9143   4.930   3.890   7.007  0.0087 -0.4409 -0.2081
   91CHL1   H3' 9144   5.010   3.938   6.986  0.5403 -1.2681 -0.1002
   91CHL1    C4 9145   5.035   3.903   7.217 -0.2642  0.3228 -0.2395
   91CHL1   H4A 9146   5.084   3.806   7.196 -2.5377 -1.1685  1.0452
   91CHL1   H4B 9147   5.107   3.978   7.176 -2.3946  0.9004 -3.2776
   91CHL1    C5 9148   5.020   3.939   7.361  0.4059 -0.0104 -1.1033
   91CHL1    C6 9149   5.091   4.041   7.423  0.0735  0.1078 -0.0241
   91CHL1    H6 9150   5.154   4.098   7.354 -1.6265 -0.1361 -1.8873
   91CHL1    C7 9151   5.076   4.083   7.568 -0.5449  0.2217  0.5338
   91CHL1   H7A 9152   5.174   4.097   7.618 -0.1777 -2.1237  0.5836
   91CHL1   H7B 9153   5.015   4.176   7.574  1.0516  1.3354  0.1996
   91CHL1    C8 9154   4.995   3.976   7.648 -0.8127 -0.0732 -0.3815
   91CHL1    H8 9155   5.061   3.888   7.662 -0.1618  0.3483 -0.7294
   91CHL1   C14 9156   4.957   4.031   7.787 -0.1702 -0.1334  0.5026
   91CHL1   H14 9157   4.903   4.127   7.770  0.7587  0.1321 -1.2388
   91CHL1   C15 9158   5.079   4.080   7.872  0.6199 -0.0499  0.4993
   91CHL1  H15A 9159   5.143   3.996   7.908 -0.2003 -1.4991 -1.2818
   91CHL1  H15B 9160   5.140   4.162   7.828  0.0676  0.3997  0.5642
   91CHL1   C16 9161   5.001   4.117   7.998 -0.3025 -0.5713  0.3061
   91CHL1  H16A 9162   5.057   4.080   8.086  1.4628 -0.2570 -0.6529
   91CHL1  H16B 9163   4.986   4.227   7.998 -3.4235 -0.8909 -0.5315
   91CHL1   C17 9164   4.862   4.052   7.983  0.2906  0.2170 -0.0966
   91CHL1   H17 9165   4.797   4.137   7.954  1.9707  2.0873  1.2543
   91CHL1   C13 9166   4.867   3.943   7.865  0.2179 -1.0417 -0.3445
   91CHL1   C18 9167   4.937   3.818   7.910 -0.1575 -0.5400 -0.1770
   91CHL1  H18A 9168   5.007   3.831   7.996  1.8371 -1.6633 -1.5393
   91CHL1  H18B 9169   4.863   3.743   7.944 -1.3276  1.0156  0.8459
   91CHL1  H18C 9170   4.987   3.772   7.822 -0.1113  0.3330 -0.6270
   91CHL1   C12 9171   4.739   3.912   7.781 -0.1803  0.0521 -0.2717
   91CHL1  H12A 9172   4.682   3.840   7.842 -1.2907  1.2533  0.1536
   91CHL1  H12B 9173   4.665   3.994   7.769  0.9847  1.0562 -0.9299
   91CHL1   C11 9174   4.783   3.837   7.654 -0.6234 -0.1331 -0.3568
   91CHL1  H11A 9175   4.816   3.734   7.681 -2.0731 -0.9253 -1.4200
   91CHL1  H11B 9176   4.691   3.818   7.595 -0.8948  0.3423 -0.0836
   91CHL1    C9 9177   4.874   3.923   7.568  0.5637  0.5716 -0.4580
   91CHL1    H9 9178   4.817   4.013   7.537 -1.2708 -0.3074  0.1452
   91CHL1   C10 9179   4.908   3.866   7.434  0.5226  0.3580  0.4265
   91CHL1   C19 9180   4.959   3.722   7.447  0.4831  1.2093  0.1606
   91CHL1  H19A 9181   4.880   3.659   7.493 -1.3702  2.5784 -0.9881
   91CHL1  H19B 9182   4.970   3.666   7.351 -2.1287 -1.1874  1.1143
   91CHL1  H19C 9183   5.051   3.722   7.509  0.2757 -0.5515  0.5427
   91CHL1    C1 9184   4.774   3.858   7.342 -0.3576 -0.3747 -0.6563
   91CHL1   H1A 9185   4.699   3.789   7.386  0.5964 -0.7320  0.4730
   91CHL1   H1B 9186   4.727   3.958   7.345 -0.9014 -0.6337 -0.4375
   91CHL1    C2 9187   4.800   3.827   7.197 -0.3471 -0.5362  0.7822
   91CHL1   H2A 9188   4.705   3.839   7.141 -0.0908 -1.2952  0.1675
   91CHL1   H2B 9189   4.833   3.721   7.190  0.2416 -0.3324  0.3248
   91CHL1   C20 9190   4.800   4.004   8.115  0.4534  0.0330 -0.4867
   91CHL1   H20 9191   4.853   3.920   8.164  0.8606  1.9625  2.6371
   91CHL1   C21 9192   4.661   3.932   8.095  0.7926  0.1284 -0.3705
   91CHL1  H21A 9193   4.677   3.824   8.071  0.5820 -0.2995  1.3075
   91CHL1  H21B 9194   4.600   3.977   8.014  2.0750 -0.8657 -1.9827
   91CHL1  H21C 9195   4.596   3.945   8.183 -1.5221  0.9495 -2.1098
   91CHL1   C22 9196   4.788   4.108   8.223 -0.0057  0.1207 -1.2032
   91CHL1  H22A 9197   4.880   4.168   8.237  0.1637 -0.3365 -0.3257
   91CHL1  H22B 9198   4.707   4.181   8.206  0.2013  0.8631  0.7216
   91CHL1   C23 9199   4.755   4.062   8.366  0.7342  0.7374  0.5147
   91CHL1  H23A 9200   4.652   4.021   8.374  0.8567 -0.4851 -2.7343
   91CHL1  H23B 9201   4.829   3.982   8.387  1.6011  1.6377  0.9943
   91CHL1   C24 9202   4.753   4.170   8.475 -0.5257 -0.4086  0.0117
   91CHL1  H24A 9203   4.853   4.217   8.489 -1.3649  1.1590  1.1184
   91CHL1  H24B 9204   4.681   4.254   8.462 -1.8664 -1.3400  1.1349
   91CHL1   C25 9205   4.732   4.100   8.610  0.5326  0.5790 -0.0611
   91CHL1   H25 9206   4.767   3.995   8.608 -0.5461  0.2155 -1.5868
   91CHL1   C26 9207   4.797   4.179   8.721 -0.1952  0.4894  0.1921
   91CHL1  H26A 9208   4.903   4.207   8.702  0.3602 -1.1307  0.6986
   91CHL1  H26B 9209   4.742   4.275   8.724 -1.0666  0.0467 -0.8307
   91CHL1  H26C 9210   4.797   4.126   8.819  0.9832  1.8881  0.9850
   91CHL1   C27 9211   4.579   4.092   8.636  0.3976  0.7191  0.4175
   91CHL1  H27A 9212   4.537   4.061   8.538  2.0979 -0.9894  0.1606
   91CHL1  H27B 9213   4.555   4.019   8.716  0.7444  0.6106  0.4218
   91CHL1  H27C 9214   4.547   4.196   8.659 -2.0570  0.0380  0.3091
   92CHL1    C3 9215   1.101   6.146   6.802 -0.1729 -0.6403  0.2475
   92CHL1    H3 9216   1.163   6.238   6.802  1.7079 -1.8602 -0.0306
   92CHL1    O3 9217   1.081   6.113   6.672 -0.2499  0.6767  0.2106
   92CHL1   H3' 9218   1.009   6.050   6.687  1.3524 -1.4287 -0.4190
   92CHL1    C4 9219   1.190   6.045   6.872  0.4373  0.8584  0.0348
   92CHL1   H4A 9220   1.151   5.942   6.856 -0.7412  1.3416 -0.3090
   92CHL1   H4B 9221   1.286   6.042   6.815  0.0246  0.1384 -0.6517
   92CHL1    C5 9222   1.211   6.083   7.018 -0.6316 -0.1646  0.3036
   92CHL1    C6 9223   1.333   6.105   7.073  0.0621 -0.1247 -0.3334
   92CHL1    H6 9224   1.417   6.099   7.003  1.3420 -0.2536  1.1573
   92CHL1    C7 9225   1.362   6.132   7.218  0.2233 -0.0935 -0.4576
   92CHL1   H7A 9226   1.449   6.072   7.250  0.9397  1.1781  0.0631
   92CHL1   H7B 9227   1.382   6.239   7.238 -0.4745  0.0041 -0.2375
   92CHL1    C8 9228   1.238   6.087   7.302 -0.7629 -0.3004 -0.0406
   92CHL1    H8 9229   1.247   5.976   7.297 -1.6019 -0.3931  0.1950
   92CHL1   C14 9230   1.247   6.135   7.449 -0.1217 -0.4145  0.5115
   92CHL1   H14 9231   1.234   6.245   7.449  0.8631 -0.2754  2.2228
   92CHL1   C15 9232   1.378   6.106   7.532  0.0510 -0.0503  0.0693
   92CHL1  H15A 9233   1.400   5.998   7.522 -0.9827 -0.3569  0.8863
   92CHL1  H15B 9234   1.466   6.169   7.505  0.8148 -0.6571  1.1081
   92CHL1   C16 9235   1.343   6.119   7.679  0.2590  0.2346 -0.8401
   92CHL1  H16A 9236   1.372   6.027   7.734 -0.4869  1.2065  1.2714
   92CHL1  H16B 9237   1.392   6.205   7.729 -0.2550  0.1752 -0.2261
   92CHL1   C17 9238   1.194   6.145   7.678  0.3239  0.1981 -0.7792
   92CHL1   H17 9239   1.178   6.254   7.663 -0.6645 -0.2450 -3.6167
   92CHL1   C13 9240   1.138   6.092   7.546 -0.1933  0.0562 -0.3108
   92CHL1   C18 9241   1.137   5.935   7.544 -0.1328 -0.6893 -0.0667
   92CHL1  H18A 9242   1.231   5.897   7.589  0.8642  0.3768 -1.1962
   92CHL1  H18B 9243   1.057   5.902   7.613  1.7660 -1.3826  1.9018
   92CHL1  H18C 9244   1.123   5.893   7.442  1.3336  2.0029 -1.4812
   92CHL1   C12 9245   1.010   6.155   7.491  0.1350  0.0795  0.0788
   92CHL1  H12A 9246   0.917   6.123   7.542  0.8921  0.1308  1.5427
   92CHL1  H12B 9247   1.019   6.266   7.495  0.5243  0.3196 -3.6634
   92CHL1   C11 9248   0.990   6.105   7.344 -0.0377  0.7976 -0.4816
   92CHL1  H11A 9249   0.969   5.996   7.353  3.2093 -0.0320 -1.5972
   92CHL1  H11B 9250   0.896   6.147   7.302 -1.2009 -2.7449 -1.8002
   92CHL1    C9 9251   1.107   6.135   7.245  0.1985  0.6947  0.4876
   92CHL1    H9 9252   1.114   6.246   7.236 -0.5442  0.6599 -0.7091
   92CHL1   C10 9253   1.088   6.083   7.096 -0.5727 -0.3085 -1.1535
   92CHL1   C19 9254   1.028   5.945   7.102 -1.3484  0.1752  0.9649
   92CHL1  H19A 9255   1.099   5.864   7.130 -0.7666 -0.6321 -2.4353
   92CHL1  H19B 9256   0.939   5.936   7.168 -1.3507  0.8839  1.0650
   92CHL1  H19C 9257   0.995   5.919   6.999  0.5621  0.1411  0.3217
   92CHL1    C1 9258   0.996   6.186   7.027  0.0676 -0.0150 -0.1990
   92CHL1   H1A 9259   0.902   6.188   7.086  1.3610  0.6551  1.9503
   92CHL1   H1B 9260   1.039   6.287   7.044  1.0114 -0.7562  2.2748
   92CHL1    C2 9261   0.966   6.162   6.876 -0.0228 -0.5792  0.0735
   92CHL1   H2A 9262   0.921   6.254   6.832 -0.8111 -0.8826  0.2345
   92CHL1   H2B 9263   0.901   6.074   6.857  0.0346 -0.9147  1.3869
   92CHL1   C20 9264   1.120   6.102   7.814  0.6844 -0.2302  0.0544
   92CHL1   H20 9265   1.129   5.992   7.832 -0.6567  0.1398  4.0618
   92CHL1   C21 9266   0.970   6.132   7.816  0.5116  0.1611 -0.1146
   92CHL1  H21A 9267   0.925   6.076   7.731 -1.8099 -0.1345  1.2118
   92CHL1  H21B 9268   0.940   6.239   7.806 -1.1410 -0.2966 -0.4273
   92CHL1  H21C 9269   0.920   6.086   7.904  1.1928 -1.1701 -0.4009
   92CHL1   C22 9270   1.182   6.162   7.943 -0.7051  0.4271  0.7572
   92CHL1  H22A 9271   1.206   6.270   7.943  4.7780 -0.3700 -2.9639
   92CHL1  H22B 9272   1.104   6.151   8.022 -1.2783  0.0413  0.1526
   92CHL1   C23 9273   1.305   6.082   8.002 -0.6558  0.3347 -0.3317
   92CHL1  H23A 9274   1.277   5.975   8.009  0.4500  0.1234  1.5005
   92CHL1  H23B 9275   1.395   6.091   7.938  0.0486  2.6895  0.8414
   92CHL1   C24 9276   1.366   6.130   8.139 -0.0623  0.3492  0.1521
   92CHL1  H24A 9277   1.457   6.074   8.169 -0.3035 -0.0453  0.1644
   92CHL1  H24B 9278   1.394   6.237   8.128 -1.2823  1.0941  3.2262
   92CHL1   C25 9279   1.259   6.132   8.249  0.0501  0.6233 -0.4102
   92CHL1   H25 9280   1.164   6.176   8.210 -0.6074 -0.7816 -0.4457
   92CHL1   C26 9281   1.200   5.982   8.288 -0.0141  0.0036 -0.0275
   92CHL1  H26A 9282   1.284   5.921   8.326 -0.5109 -0.9339 -0.3942
   92CHL1  H26B 9283   1.122   5.996   8.366  0.7146  2.3078  0.3600
   92CHL1  H26C 9284   1.149   5.931   8.204  1.0026 -0.2368 -0.5099
   92CHL1   C27 9285   1.305   6.194   8.379  0.4186  0.6796  0.4030
   92CHL1  H27A 9286   1.213   6.194   8.441 -0.5012  0.2153 -0.9158
   92CHL1  H27B 9287   1.382   6.132   8.429  0.9338  0.6156 -0.4517
   92CHL1  H27C 9288   1.351   6.294   8.369 -0.3786  1.0329  0.1487
   93CHL1    C3 9289   6.491   3.518   6.964  0.2151 -0.0859  0.4769
   93CHL1    H3 9290   6.385   3.489   6.981  0.1319  0.1553  0.3679
   93CHL1    O3 9291   6.515   3.551   6.826  0.0415 -0.2331  0.0316
   93CHL1   H3' 9292   6.603   3.586   6.838  0.0757 -0.6978  1.3702
   93CHL1    C4 9293   6.522   3.633   7.047 -0.7986 -0.1828  0.1563
   93CHL1   H4A 9294   6.616   3.688   7.024  0.2167 -1.5281  0.9100
   93CHL1   H4B 9295   6.443   3.710   7.034 -0.0602  0.4932 -0.4638
   93CHL1    C5 9296   6.539   3.591   7.197 -0.2048  0.5148  0.1710
   93CHL1    C6 9297   6.472   3.647   7.294  0.5438 -0.0312  0.5760
   93CHL1    H6 9298   6.398   3.724   7.266  0.2029 -1.1407 -1.8427
   93CHL1    C7 9299   6.472   3.618   7.437 -0.2768 -0.3555 -0.1851
   93CHL1   H7A 9300   6.481   3.710   7.499 -1.4762  0.6635 -1.4455
   93CHL1   H7B 9301   6.378   3.565   7.464  0.1479 -2.0120 -1.7904
   93CHL1    C8 9302   6.592   3.527   7.483  0.5348  0.5113 -0.1235
   93CHL1    H8 9303   6.693   3.574   7.489  1.5897 -1.3271 -1.9139
   93CHL1   C14 9304   6.563   3.453   7.612  0.6198 -0.1948  0.0022
   93CHL1   H14 9305   6.480   3.381   7.595  1.1710 -0.7770 -0.2559
   93CHL1   C15 9306   6.524   3.542   7.737 -0.0009 -0.6205  0.5124
   93CHL1  H15A 9307   6.590   3.631   7.742  0.0440 -0.5858 -0.4370
   93CHL1  H15B 9308   6.416   3.565   7.729  0.3022  0.3611 -1.4013
   93CHL1   C16 9309   6.550   3.451   7.854  0.0792 -0.3860 -0.0817
   93CHL1  H16A 9310   6.626   3.486   7.927  0.5610 -1.5720  0.0104
   93CHL1  H16B 9311   6.460   3.416   7.909 -0.3989  1.7992  0.6097
   93CHL1   C17 9312   6.612   3.307   7.799  0.4217 -0.1793 -0.5161
   93CHL1   H17 9313   6.529   3.239   7.771  0.7706 -0.6728 -0.3723
   93CHL1   C13 9314   6.669   3.356   7.661 -0.0802  0.5050  0.2121
   93CHL1   C18 9315   6.803   3.436   7.688  0.4802  0.7427  0.3094
   93CHL1  H18A 9316   6.781   3.501   7.776 -3.5917 -1.5213  1.2219
   93CHL1  H18B 9317   6.886   3.370   7.722  0.4576  0.6287  0.1396
   93CHL1  H18C 9318   6.837   3.496   7.601  3.0830 -0.1988  0.5670
   93CHL1   C12 9319   6.673   3.242   7.550 -0.1267  0.9006  0.4739
   93CHL1  H12A 9320   6.756   3.176   7.583  2.1757  2.7644 -1.1854
   93CHL1  H12B 9321   6.572   3.197   7.551  0.2312 -0.0305 -1.1335
   93CHL1   C11 9322   6.712   3.297   7.413  0.2666 -0.5406  0.2104
   93CHL1  H11A 9323   6.816   3.334   7.409 -0.2668  0.9291 -0.8219
   93CHL1  H11B 9324   6.703   3.228   7.327  1.8130 -0.0906 -0.3441
   93CHL1    C9 9325   6.610   3.418   7.376 -0.1930  0.3652  0.9307
   93CHL1    H9 9326   6.512   3.365   7.380 -0.2232  0.4682  1.8202
   93CHL1   C10 9327   6.629   3.474   7.233  0.2221 -1.0018 -0.3041
   93CHL1   C19 9328   6.773   3.535   7.227 -0.1343  0.7368  0.5478
   93CHL1  H19A 9329   6.790   3.612   7.305  0.4032  1.6460 -0.4334
   93CHL1  H19B 9330   6.842   3.448   7.237 -1.0871 -0.3415 -1.6188
   93CHL1  H19C 9331   6.799   3.576   7.127 -1.6529 -0.6918 -0.4876
   93CHL1    C1 9332   6.605   3.360   7.136  0.3416  0.1438 -0.2392
   93CHL1   H1A 9333   6.696   3.296   7.142  1.0426  0.8555 -2.2344
   93CHL1   H1B 9334   6.515   3.309   7.176  0.4437 -0.8855 -1.2629
   93CHL1    C2 9335   6.586   3.402   6.987 -0.4747  0.8320 -0.7573
   93CHL1   H2A 9336   6.551   3.314   6.930  2.6295 -1.7539  0.9720
   93CHL1   H2B 9337   6.686   3.433   6.950  0.5892 -0.9933  0.4256
   93CHL1   C20 9338   6.698   3.243   7.903 -0.0622 -0.2486 -0.0089
   93CHL1   H20 9339   6.777   3.313   7.938 -1.2690  0.5433  1.2143
   93CHL1   C21 9340   6.757   3.116   7.856 -0.1286  0.0289  0.7678
   93CHL1  H21A 9341   6.828   3.130   7.771 -2.1690 -3.5301 -1.7818
   93CHL1  H21B 9342   6.681   3.050   7.810 -0.9954  0.6666  1.2733
   93CHL1  H21C 9343   6.820   3.080   7.940 -0.2136  1.4257  1.4548
   93CHL1   C22 9344   6.616   3.209   8.034 -0.5398  0.0790  0.1095
   93CHL1  H22A 9345   6.551   3.294   8.064  0.1724  0.5898  0.2173
   93CHL1  H22B 9346   6.543   3.127   8.014 -0.1688 -0.3377  0.4636
   93CHL1   C23 9347   6.705   3.172   8.159  0.1455  0.1706  0.2564
   93CHL1  H23A 9348   6.756   3.077   8.130 -0.0882  0.5590 -1.5859
   93CHL1  H23B 9349   6.782   3.252   8.170  0.7416 -0.2535 -0.6876
   93CHL1   C24 9350   6.641   3.142   8.291 -0.2883 -0.2031  0.5213
   93CHL1  H24A 9351   6.571   3.226   8.314 -1.1037 -0.3369 -1.3399
   93CHL1  H24B 9352   6.573   3.055   8.282 -1.5969  0.9254 -1.2299
   93CHL1   C25 9353   6.729   3.115   8.414  0.2854 -0.1210 -0.4604
   93CHL1   H25 9354   6.801   3.039   8.377  1.9442  1.1746 -0.0352
   93CHL1   C26 9355   6.815   3.226   8.479 -0.1639  0.3495  0.5169
   93CHL1  H26A 9356   6.868   3.274   8.394  1.0137 -2.0594 -0.1896
   93CHL1  H26B 9357   6.748   3.296   8.534 -0.1740  1.0141 -0.3121
   93CHL1  H26C 9358   6.885   3.178   8.550 -2.7791 -1.4062  2.1077
   93CHL1   C27 9359   6.639   3.060   8.521  0.1716 -0.0235 -0.4430
   93CHL1  H27A 9360   6.571   2.987   8.474  0.3421 -1.8041  1.8845
   93CHL1  H27B 9361   6.690   3.005   8.603 -1.4675  0.3422  0.8782
   93CHL1  H27C 9362   6.566   3.131   8.566 -0.5630  0.1866 -1.9164
   94CHL1    C3 9363   2.697   6.442   6.900 -0.2278 -0.2107 -0.2640
   94CHL1    H3 9364   2.590   6.416   6.886  0.0364  0.0271 -3.8223
   94CHL1    O3 9365   2.753   6.441   6.769 -0.2614  0.1931 -0.2476
   94CHL1   H3' 9366   2.843   6.470   6.784  0.0775 -0.2033 -1.3834
   94CHL1    C4 9367   2.709   6.576   6.968 -0.3826  0.4709 -0.2940
   94CHL1   H4A 9368   2.813   6.611   6.951 -0.0748 -0.4505 -0.3531
   94CHL1   H4B 9369   2.660   6.651   6.903 -0.1863 -0.3572 -1.4245
   94CHL1    C5 9370   2.665   6.589   7.112 -0.4228  0.0682  0.6285
   94CHL1    C6 9371   2.576   6.677   7.162 -0.0436  0.2708  0.4069
   94CHL1    H6 9372   2.531   6.751   7.094 -0.5558 -1.7434 -1.5496
   94CHL1    C7 9373   2.521   6.678   7.301 -0.1823  0.4222  0.0089
   94CHL1   H7A 9374   2.515   6.779   7.348 -1.1998  0.0497  0.7236
   94CHL1   H7B 9375   2.413   6.651   7.304 -0.1093  0.1780  0.9632
   94CHL1    C8 9376   2.609   6.587   7.389  0.5510 -0.2017  0.5601
   94CHL1    H8 9377   2.702   6.647   7.397 -0.1953  1.7671 -3.2183
   94CHL1   C14 9378   2.545   6.558   7.528  0.0174 -0.1954 -0.3186
   94CHL1   H14 9379   2.461   6.487   7.513  1.0203 -1.5828  0.3856
   94CHL1   C15 9380   2.470   6.675   7.603  0.2000 -0.1138  0.6143
   94CHL1  H15A 9381   2.533   6.767   7.606 -2.2297  1.8454 -2.5529
   94CHL1  H15B 9382   2.377   6.702   7.550  1.5452 -2.2123 -3.1332
   94CHL1   C16 9383   2.447   6.621   7.741  0.2790 -0.6641 -0.3868
   94CHL1  H16A 9384   2.476   6.702   7.811 -1.2689  1.5456 -2.1736
   94CHL1  H16B 9385   2.340   6.599   7.764 -0.0501  0.1790 -1.0656
   94CHL1   C17 9386   2.537   6.488   7.759 -0.1364 -0.5433 -0.1521
   94CHL1   H17 9387   2.468   6.402   7.752 -1.4548  0.4154  0.5102
   94CHL1   C13 9388   2.627   6.492   7.630 -0.4450  0.5509 -0.8789
   94CHL1   C18 9389   2.751   6.575   7.660  0.2718 -0.3589  0.1264
   94CHL1  H18A 9390   2.810   6.542   7.749  2.9802  1.4117 -0.8697
   94CHL1  H18B 9391   2.818   6.573   7.571 -1.1740  0.1482 -1.0044
   94CHL1  H18C 9392   2.716   6.681   7.664 -0.0307 -0.4003 -1.0873
   94CHL1   C12 9393   2.668   6.354   7.574 -0.2596  0.5859  0.3035
   94CHL1  H12A 9394   2.733   6.291   7.639  0.7996 -1.0172 -2.1655
   94CHL1  H12B 9395   2.574   6.298   7.555 -1.4938  3.2713 -2.3327
   94CHL1   C11 9396   2.731   6.363   7.434 -0.1213 -0.0246  0.1027
   94CHL1  H11A 9397   2.841   6.377   7.445 -0.0112 -0.5196 -0.3271
   94CHL1  H11B 9398   2.719   6.267   7.380 -1.7710  0.3788 -0.3112
   94CHL1    C9 9399   2.660   6.455   7.330 -0.2026  0.1166  0.1319
   94CHL1    H9 9400   2.560   6.417   7.297 -1.6770  4.3953 -0.9076
   94CHL1   C10 9401   2.731   6.475   7.198  0.5763  0.6084  0.4283
   94CHL1   C19 9402   2.882   6.514   7.221  0.4681  0.2923 -0.3884
   94CHL1  H19A 9403   2.888   6.611   7.274 -1.7251 -0.4308  1.3381
   94CHL1  H19B 9404   2.945   6.436   7.269  0.2390 -1.7098 -3.0802
   94CHL1  H19C 9405   2.936   6.538   7.127  2.3416 -0.5824  0.4066
   94CHL1    C1 9406   2.733   6.334   7.126  0.2332  0.4333 -0.1019
   94CHL1   H1A 9407   2.794   6.260   7.181  1.1743 -1.4525 -3.4465
   94CHL1   H1B 9408   2.632   6.289   7.127  0.3182  0.2251  1.2851
   94CHL1    C2 9409   2.775   6.340   6.977 -0.7225 -0.2845 -0.0570
   94CHL1   H2A 9410   2.780   6.239   6.930  2.6359 -0.0428 -0.4770
   94CHL1   H2B 9411   2.881   6.374   6.976 -0.9731  0.5243  0.4768
   94CHL1   C20 9412   2.604   6.474   7.896 -0.3633  0.1661  0.1959
   94CHL1   H20 9413   2.682   6.552   7.909 -0.0030 -0.3956  1.4706
   94CHL1   C21 9414   2.691   6.349   7.905 -0.4699  0.1289  0.4708
   94CHL1  H21A 9415   2.631   6.256   7.916  0.1306 -0.1928  1.0824
   94CHL1  H21B 9416   2.739   6.354   8.005  0.3330  0.1414  0.0943
   94CHL1  H21C 9417   2.769   6.338   7.827 -0.3378 -0.3280  0.6619
   94CHL1   C22 9418   2.509   6.498   8.020  0.1788  0.2562 -0.6847
   94CHL1  H22A 9419   2.439   6.583   8.015 -2.6446 -1.6272  2.5205
   94CHL1  H22B 9420   2.439   6.412   8.022 -0.0915  0.4816  0.5818
   94CHL1   C23 9421   2.570   6.508   8.160  0.0392  0.2128  0.6808
   94CHL1  H23A 9422   2.630   6.417   8.180  1.8856  1.5286  1.4197
   94CHL1  H23B 9423   2.631   6.599   8.172 -0.1465  0.1513  2.2763
   94CHL1   C24 9424   2.465   6.523   8.274 -0.1848 -0.4830  0.5694
   94CHL1  H24A 9425   2.398   6.611   8.263 -1.1566 -1.1705  0.8426
   94CHL1  H24B 9426   2.398   6.434   8.276 -0.0860 -0.5903 -0.3986
   94CHL1   C25 9427   2.534   6.541   8.416  0.1628  0.3923 -0.2577
   94CHL1   H25 9428   2.609   6.620   8.393 -1.8306  2.3434 -0.3443
   94CHL1   C26 9429   2.441   6.600   8.519 -0.1590 -0.2898  0.3916
   94CHL1  H26A 9430   2.489   6.595   8.619  1.1081 -0.1602 -0.1943
   94CHL1  H26B 9431   2.429   6.705   8.486 -0.4690 -0.6375 -0.6513
   94CHL1  H26C 9432   2.340   6.554   8.509  0.5348 -2.1488  1.3740
   94CHL1   C27 9433   2.591   6.401   8.456 -0.2052 -0.3587 -0.2298
   94CHL1  H27A 9434   2.514   6.334   8.501 -1.2862 -1.3921 -3.3085
   94CHL1  H27B 9435   2.638   6.346   8.372 -0.4420 -0.0919 -0.5378
   94CHL1  H27C 9436   2.670   6.429   8.529  2.3778 -0.8463 -2.6584
   95CHL1    C3 9437   2.668   5.698   6.623  0.7091  0.0832 -0.4737
   95CHL1    H3 9438   2.637   5.593   6.644  1.0279 -0.3295 -1.9239
   95CHL1    O3 9439   2.678   5.706   6.485  0.5973 -0.3344  0.1085
   95CHL1   H3' 9440   2.587   5.690   6.457 -0.2131  1.6830  1.3171
   95CHL1    C4 9441   2.563   5.795   6.686 -0.2427  0.4960  1.0615
   95CHL1   H4A 9442   2.583   5.902   6.661 -0.1997 -0.3892 -3.4939
   95CHL1   H4B 9443   2.467   5.771   6.637 -0.6261  4.3376 -0.4493
   95CHL1    C5 9444   2.563   5.788   6.835  0.2039  0.5454  0.0464
   95CHL1    C6 9445   2.459   5.744   6.906  0.1003 -0.4758  0.0011
   95CHL1    H6 9446   2.360   5.724   6.862 -0.4614  0.7201  0.6924
   95CHL1    C7 9447   2.446   5.739   7.055  0.1011  0.1651  0.3554
   95CHL1   H7A 9448   2.348   5.780   7.087 -1.2786 -2.9440  0.4116
   95CHL1   H7B 9449   2.451   5.637   7.097 -0.9666  0.2494  0.7142
   95CHL1    C8 9450   2.570   5.818   7.116  0.0787  0.0733  0.7490
   95CHL1    H8 9451   2.557   5.927   7.103  0.1080  0.1862  1.6302
   95CHL1   C14 9452   2.576   5.779   7.263 -0.0135  0.1901 -0.3870
   95CHL1   H14 9453   2.597   5.670   7.251  1.5882  0.5763 -1.4019
   95CHL1   C15 9454   2.447   5.802   7.349 -0.3114 -0.3213  0.1195
   95CHL1  H15A 9455   2.398   5.898   7.322  0.1857  0.7834  2.8140
   95CHL1  H15B 9456   2.384   5.712   7.335 -1.4467  0.5246 -0.3609
   95CHL1   C16 9457   2.492   5.817   7.489 -0.0092 -1.0617  0.4071
   95CHL1  H16A 9458   2.460   5.915   7.531  0.8055 -1.3601  1.7953
   95CHL1  H16B 9459   2.453   5.734   7.553 -1.6552  0.2714  1.2241
   95CHL1   C17 9460   2.649   5.808   7.483  0.8146  0.0246 -0.0314
   95CHL1   H17 9461   2.677   5.701   7.496 -1.7729 -0.5913  1.2380
   95CHL1   C13 9462   2.691   5.843   7.334 -0.0779 -0.0017  0.4623
   95CHL1   C18 9463   2.682   6.005   7.328  0.2921  0.4746 -0.5995
   95CHL1  H18A 9464   2.702   6.041   7.224  1.2869  0.8775 -0.2796
   95CHL1  H18B 9465   2.582   6.042   7.359  0.3526  1.6069 -1.6774
   95CHL1  H18C 9466   2.751   6.063   7.392 -1.2608  0.7725  0.8537
   95CHL1   C12 9467   2.823   5.780   7.284  0.3566  0.1530  0.9308
   95CHL1  H12A 9468   2.918   5.809   7.333  0.7974 -2.3211  1.6760
   95CHL1  H12B 9469   2.822   5.670   7.295  0.9466  0.1364  0.8473
   95CHL1   C11 9470   2.830   5.812   7.130  0.1512  0.3175 -0.0377
   95CHL1  H11A 9471   2.861   5.919   7.121  1.8805  0.1300  2.6452
   95CHL1  H11B 9472   2.914   5.750   7.094  1.7194  1.8780  0.7766
   95CHL1    C9 9473   2.703   5.776   7.051  0.3883  0.5303 -0.2855
   95CHL1    H9 9474   2.706   5.667   7.070 -1.3929  0.8509  2.2763
   95CHL1   C10 9475   2.701   5.817   6.904  0.2708  0.3394 -0.2186
   95CHL1   C19 9476   2.741   5.964   6.887  0.2930 -0.1951 -0.4768
   95CHL1  H19A 9477   2.837   5.999   6.932 -0.5545  1.4125  0.1629
   95CHL1  H19B 9478   2.751   5.984   6.779 -0.1239  0.9254 -0.3196
   95CHL1  H19C 9479   2.658   6.023   6.931 -2.9981 -3.0818 -2.3807
   95CHL1    C1 9480   2.800   5.721   6.836  0.3332  0.7100  1.0089
   95CHL1   H1A 9481   2.906   5.734   6.867 -0.3876  1.8194  3.1988
   95CHL1   H1B 9482   2.774   5.615   6.850  1.8484 -0.2327 -2.2348
   95CHL1    C2 9483   2.805   5.732   6.684 -0.0215 -0.2828  0.6453
   95CHL1   H2A 9484   2.887   5.663   6.655 -0.4602 -0.3014 -0.6180
   95CHL1   H2B 9485   2.839   5.829   6.642  0.7099 -1.5041 -1.7517
   95CHL1   C20 9486   2.715   5.888   7.597 -0.0119 -0.4618 -0.0159
   95CHL1   H20 9487   2.680   5.993   7.598  1.7782  0.1679  0.4682
   95CHL1   C21 9488   2.872   5.874   7.577 -0.2628 -0.5994  0.7402
   95CHL1  H21A 9489   2.902   5.775   7.536 -0.9302 -1.2999  1.8928
   95CHL1  H21B 9490   2.909   5.902   7.678 -0.7103 -0.4297  0.8593
   95CHL1  H21C 9491   2.896   5.948   7.497 -0.6357 -0.6384  0.5908
   95CHL1   C22 9492   2.670   5.830   7.729 -0.3456  0.0036 -0.6194
   95CHL1  H22A 9493   2.565   5.859   7.752 -0.3575 -0.1349 -0.5019
   95CHL1  H22B 9494   2.674   5.719   7.732 -0.2984  0.0227  0.3168
   95CHL1   C23 9495   2.743   5.867   7.865 -0.0984  0.4044  0.2832
   95CHL1  H23A 9496   2.840   5.812   7.865 -1.5689 -2.4423  1.6597
   95CHL1  H23B 9497   2.751   5.977   7.871 -1.0950  0.7808 -3.0374
   95CHL1   C24 9498   2.664   5.839   7.995  0.1922 -0.1553  0.1133
   95CHL1  H24A 9499   2.581   5.913   7.994  0.3295 -0.0059 -0.8874
   95CHL1  H24B 9500   2.623   5.736   7.994 -1.8159  0.5972 -0.8157
   95CHL1   C25 9501   2.734   5.848   8.129 -0.5026 -0.5469  0.6582
   95CHL1   H25 9502   2.656   5.824   8.204 -0.4084 -0.2981  0.8376
   95CHL1   C26 9503   2.846   5.740   8.143  0.6762  0.3268 -0.3304
   95CHL1  H26A 9504   2.927   5.760   8.070  2.2416 -0.4247  1.1284
   95CHL1  H26B 9505   2.880   5.733   8.249 -0.4878 -1.1373 -0.0207
   95CHL1  H26C 9506   2.812   5.638   8.117  0.2208  0.0727  1.1985
   95CHL1   C27 9507   2.802   5.978   8.162 -0.7489 -0.7763 -0.5285
   95CHL1  H27A 9508   2.738   6.065   8.187  2.9212  2.3661 -1.0637
   95CHL1  H27B 9509   2.873   5.954   8.244  1.2017 -0.9096 -2.1765
   95CHL1  H27C 9510   2.863   6.014   8.076  0.0052  1.3609  0.8293
   96CHL1    C3 9511   1.758   5.036   6.487 -0.5092  0.8177  0.3422
   96CHL1    H3 9512   1.793   4.931   6.487  1.2190  1.2947  2.9146
   96CHL1    O3 9513   1.698   5.086   6.368 -0.1484 -0.1612  0.4986
   96CHL1   H3' 9514   1.647   5.163   6.394 -0.9726 -0.7257  0.5909
   96CHL1    C4 9515   1.671   5.058   6.613  0.7090 -0.2446  0.0351
   96CHL1   H4A 9516   1.650   5.167   6.622 -1.2796 -0.5633 -0.2599
   96CHL1   H4B 9517   1.572   5.010   6.598  0.4624  0.8190 -2.1543
   96CHL1    C5 9518   1.741   5.011   6.738 -0.1059  0.1830  0.2886
   96CHL1    C6 9519   1.684   4.925   6.824 -0.7029  0.1072  0.8094
   96CHL1    H6 9520   1.588   4.876   6.807 -0.7714  0.0265  1.3980
   96CHL1    C7 9521   1.741   4.888   6.956 -0.0117 -0.6039 -1.0888
   96CHL1   H7A 9522   1.661   4.893   7.033  0.5218  0.6645 -0.5915
   96CHL1   H7B 9523   1.795   4.791   6.956 -0.8845 -1.1031 -0.3769
   96CHL1    C8 9524   1.851   5.001   6.997  0.2765  0.1049 -0.1464
   96CHL1    H8 9525   1.794   5.095   7.013 -3.3107 -1.9027 -0.0004
   96CHL1   C14 9526   1.926   4.952   7.124  0.4803 -0.3296 -0.2324
   96CHL1   H14 9527   1.976   4.858   7.092  1.6785 -0.1280  0.9753
   96CHL1   C15 9528   1.835   4.923   7.244  0.6913 -0.3191  0.1609
   96CHL1  H15A 9529   1.750   4.992   7.259 -0.3461 -1.5001 -0.1345
   96CHL1  H15B 9530   1.776   4.829   7.235  1.6491 -1.0371  1.0538
   96CHL1   C16 9531   1.937   4.914   7.357 -0.7900  0.4251  0.3345
   96CHL1  H16A 9532   1.891   4.984   7.430 -0.8099  0.2855  0.4586
   96CHL1  H16B 9533   1.942   4.818   7.413  0.9513 -0.6508 -1.5336
   96CHL1   C17 9534   2.077   4.960   7.300  0.2223 -0.0860 -0.5176
   96CHL1   H17 9535   2.127   4.867   7.265 -0.8825 -0.4956 -1.0558
   96CHL1   C13 9536   2.037   5.038   7.171 -0.4544 -0.6386 -0.3042
   96CHL1   C18 9537   1.988   5.176   7.203 -0.0202 -0.8825 -0.4476
   96CHL1  H18A 9538   1.923   5.218   7.124  0.3134 -3.0512 -1.9589
   96CHL1  H18B 9539   1.937   5.181   7.302 -0.7948  2.0996 -0.8969
   96CHL1  H18C 9540   2.075   5.242   7.225 -0.5245 -0.1878 -0.5164
   96CHL1   C12 9541   2.144   5.036   7.056  0.3652 -0.1536  0.1548
   96CHL1  H12A 9542   2.233   5.098   7.081  0.4592  0.3460 -1.3134
   96CHL1  H12B 9543   2.177   4.932   7.037 -2.0978 -1.0125  0.2244
   96CHL1   C11 9544   2.083   5.086   6.928  0.3937  0.4229  0.4482
   96CHL1  H11A 9545   2.064   5.195   6.943  0.5471  0.9347 -2.4213
   96CHL1  H11B 9546   2.151   5.066   6.843 -1.2001 -0.5436 -0.6487
   96CHL1    C9 9547   1.946   5.022   6.878 -0.3661 -0.0594 -0.0227
   96CHL1    H9 9548   1.977   4.918   6.855  1.4667  0.4569 -0.0333
   96CHL1   C10 9549   1.882   5.081   6.759 -0.9453  0.2130 -0.2178
   96CHL1   C19 9550   1.854   5.240   6.784 -0.0793 -0.3515  0.2804
   96CHL1  H19A 9551   1.826   5.292   6.690  0.1056 -0.5174  0.1330
   96CHL1  H19B 9552   1.765   5.249   6.850  0.0339 -4.5277  1.2627
   96CHL1  H19C 9553   1.942   5.292   6.826 -0.0820  0.0500 -0.1965
   96CHL1    C1 9554   1.964   5.071   6.631  0.2505  0.3421  0.0643
   96CHL1   H1A 9555   2.051   5.138   6.648  0.7746 -0.9973  3.4266
   96CHL1   H1B 9556   2.010   4.972   6.614 -1.7397 -0.6736  0.2746
   96CHL1    C2 9557   1.892   5.101   6.498  0.4090 -0.0442 -0.8738
   96CHL1   H2A 9558   1.961   5.059   6.421 -1.8182 -1.7185 -2.0838
   96CHL1   H2B 9559   1.888   5.211   6.482 -2.4216  0.1123  0.3417
   96CHL1   C20 9560   2.170   5.036   7.396  0.4256 -0.1488  0.2058
   96CHL1   H20 9561   2.123   5.135   7.416  0.1942 -0.1244 -0.4371
   96CHL1   C21 9562   2.310   5.064   7.338  0.0131  0.1378  0.1337
   96CHL1  H21A 9563   2.358   4.970   7.304 -0.5009  0.0536 -0.3908
   96CHL1  H21B 9564   2.372   5.113   7.416 -1.8384  1.1730  1.0357
   96CHL1  H21C 9565   2.292   5.134   7.254 -1.2945  2.2572  2.0465
   96CHL1   C22 9566   2.193   4.963   7.536  0.4351  0.2459  0.7711
   96CHL1  H22A 9567   2.100   4.907   7.560  0.0549  1.2234  1.6341
   96CHL1  H22B 9568   2.269   4.882   7.524  0.6179  0.4211  0.7560
   96CHL1   C23 9569   2.212   5.060   7.654  0.3535  0.0820  0.4055
   96CHL1  H23A 9570   2.293   5.133   7.633 -1.0667  1.6597  0.1370
   96CHL1  H23B 9571   2.114   5.112   7.658  0.2507 -0.1966  2.6812
   96CHL1   C24 9572   2.248   4.988   7.786 -0.2469  0.2807 -0.0645
   96CHL1  H24A 9573   2.184   4.897   7.794  0.9973 -0.6243 -0.0737
   96CHL1  H24B 9574   2.357   4.966   7.775  0.0283  0.9567  1.1566
   96CHL1   C25 9575   2.234   5.061   7.923  0.0084  0.4286 -0.8281
   96CHL1   H25 9576   2.313   5.136   7.945 -1.1784  2.2702 -2.4746
   96CHL1   C26 9577   2.095   5.131   7.931 -0.2299 -0.0873 -0.1538
   96CHL1  H26A 9578   2.088   5.220   7.864 -0.0904 -0.2746 -0.4152
   96CHL1  H26B 9579   2.020   5.052   7.908 -2.3607  1.9068 -0.4525
   96CHL1  H26C 9580   2.067   5.164   8.034 -1.2260  1.2824 -0.8245
   96CHL1   C27 9581   2.244   4.953   8.034  0.8170  0.1961  0.3909
   96CHL1  H27A 9582   2.340   4.899   8.019  1.0400  0.8861 -0.7803
   96CHL1  H27B 9583   2.249   4.995   8.136 -1.5680 -2.3371  1.7018
   96CHL1  H27C 9584   2.152   4.890   8.021 -0.2265  1.9524 -1.2682
   97OSM      N 9585   4.580   6.522  11.459  0.2536 -0.2751 -0.0271
   97OSM    C15 9586   4.620   6.656  11.510  0.7428 -0.5056 -0.1694
   97OSM   H15A 9587   4.724   6.646  11.538  0.7118 -0.7021 -0.1211
   97OSM   H15B 9588   4.564   6.686  11.598  0.7071  0.3921 -0.4914
   97OSM   H15C 9589   4.621   6.725  11.427  1.6170 -1.6272 -1.1195
   97OSM    C14 9590   4.626   6.409  11.554  0.8311 -0.3335 -0.1349
   97OSM   H14A 9591   4.733   6.410  11.570  1.0305  3.0086 -1.0955
   97OSM   H14B 9592   4.594   6.307  11.534  0.9678 -0.3346 -0.3454
   97OSM   H14C 9593   4.584   6.432  11.651 -1.0744  0.1823 -1.0354
   97OSM    C13 9594   4.431   6.533  11.450  0.3330  0.2641  0.1292
   97OSM   H13A 9595   4.401   6.598  11.369 -1.3654  3.9674  3.3903
   97OSM   H13B 9596   4.388   6.585  11.534 -0.0433 -2.3208  1.6450
   97OSM   H13C 9597   4.377   6.440  11.440 -0.6637  0.8375  0.0018
   97OSM    C12 9598   4.645   6.493  11.324 -0.1668 -0.5604  0.3148
   97OSM   H12A 9599   4.610   6.397  11.292  1.8638 -1.4976  0.7564
   97OSM   H12B 9600   4.749   6.475  11.347 -0.2381  0.7584  1.8516
   97OSM    C11 9601   4.647   6.609  11.216  0.3639 -0.7490  0.2236
   97OSM   H11A 9602   4.550   6.662  11.215  0.9649  0.4526 -2.5243
   97OSM   H11B 9603   4.669   6.547  11.126  2.4115 -1.3103  1.0444
   97OSM      P 9604   4.898   6.667  11.202 -0.0189 -0.3865  0.0746
   97OSM    O13 9605   4.983   6.781  11.229  0.2984 -0.1147  0.1734
   97OSM    O14 9606   4.923   6.537  11.270  0.1364 -0.3742  1.2641
   97OSM    O11 9607   4.883   6.636  11.045  0.4144 -0.2919  0.3363
   97OSM    O12 9608   4.750   6.709  11.237 -0.0011 -0.1675  0.2613
   97OSM    C1S 9609   4.981   6.696  10.951 -0.1858  0.2346  0.7709
   97OSM    H1S 9610   5.086   6.702  10.988  0.1992  1.2012 -0.4021
   97OSM    H1T 9611   4.956   6.801  10.925  2.6338  1.1137  1.2656
   97OSM     NF 9612   5.090   6.663  10.737  0.1376 -0.1001  0.2925
   97OSM    HNF 9613   5.058   6.693  10.647 -2.0372  1.0154  1.3489
   97OSM    C2S 9614   4.999   6.595  10.828  0.7845 -0.5510  0.1150
   97OSM    H2S 9615   5.052   6.506  10.867  0.6784 -0.3111  0.8210
   97OSM    C3S 9616   4.854   6.544  10.778  0.6634  0.4640  0.5472
   97OSM    H3S 9617   4.790   6.634  10.762  1.4894  0.6114 -2.6281
   97OSM     O3 9618   4.793   6.455  10.869  0.2262 -0.2453 -0.4666
   97OSM    HO3 9619   4.838   6.482  10.950 -0.6629  1.3387 -0.4690
   97OSM    C4S 9620   4.866   6.461  10.655  0.5538  0.0827 -0.1827
   97OSM    H4S 9621   4.952   6.392  10.654  0.4860 -0.0068 -0.0075
   97OSM    C5S 9622   4.784   6.467  10.544 -0.4726 -0.6111  0.8998
   97OSM    H5S 9623   4.704   6.543  10.545 -0.8557 -0.9657 -0.3358
   97OSM    C6S 9624   4.801   6.395  10.412 -0.1045 -0.0832  0.1522
   97OSM    H6S 9625   4.726   6.314  10.418  1.0807 -1.2811 -0.5721
   97OSM    H6T 9626   4.890   6.333  10.385 -0.7727 -0.5338 -1.0645
   97OSM    C7S 9627   4.771   6.487  10.286  0.2216 -0.6653 -0.2489
   97OSM    H7S 9628   4.856   6.558  10.276 -0.5926  0.3995  0.2423
   97OSM    H7T 9629   4.673   6.532  10.311  0.2950  0.3026 -1.5939
   97OSM    C8S 9630   4.766   6.401  10.149 -0.7259 -0.3384  0.2714
   97OSM    H8S 9631   4.729   6.471  10.072  0.8214  0.1598 -0.0576
   97OSM    H8T 9632   4.692   6.318  10.153 -0.8166 -0.3549 -1.1755
   97OSM    C9S 9633   4.904   6.355  10.107 -0.0030 -0.4319  0.7055
   97OSM    H9S 9634   4.941   6.288  10.188  0.3717 -2.8725 -1.3594
   97OSM    H9T 9635   4.969   6.444  10.095 -2.9332  1.6469 -0.8167
   97OSM   C10S 9636   4.901   6.277   9.976  0.4674 -0.3588  0.4188
   97OSM   H10S 9637   4.879   6.356   9.901  0.6855  1.6464  2.3534
   97OSM   H10T 9638   4.837   6.187   9.976  1.2714 -0.9391  0.7303
   97OSM   C11S 9639   5.038   6.218   9.938 -0.1715 -0.5750 -0.5804
   97OSM   H11S 9640   5.067   6.143  10.015 -2.4628  1.1768  2.1526
   97OSM   H11T 9641   5.110   6.302   9.941  0.2408 -0.9543  1.9780
   97OSM   C12S 9642   5.056   6.162   9.794 -0.5395 -0.1179 -0.0058
   97OSM   H12S 9643   5.139   6.089   9.788 -0.1754  0.3385 -0.7698
   97OSM   H12T 9644   5.086   6.246   9.726 -1.0146 -0.5049 -0.7057
   97OSM   C13S 9645   4.925   6.108   9.738 -0.3500  0.0752 -0.0589
   97OSM   H13S 9646   4.853   6.191   9.721  1.0945  1.5343  0.6246
   97OSM   H13T 9647   4.879   6.041   9.814 -0.6230  1.0515  0.6628
   97OSM   C14S 9648   4.946   6.050   9.592  0.4055  0.0122 -0.1222
   97OSM   H14S 9649   4.997   5.953   9.610  0.0529  0.3854  3.6628
   97OSM   H14T 9650   5.013   6.120   9.538  1.0780 -2.1500 -2.2772
   97OSM   C15S 9651   4.823   6.039   9.508  0.2447 -0.7657  0.6319
   97OSM   H15S 9652   4.776   6.137   9.529  1.5461 -0.1612  0.8423
   97OSM   H15T 9653   4.754   5.962   9.548  0.0317 -1.3137 -0.7404
   97OSM   C16S 9654   4.840   6.027   9.360  0.0840 -0.1149  0.1289
   97OSM   H16S 9655   4.918   6.099   9.325  0.2590 -1.2256 -1.9989
   97OSM   H16T 9656   4.747   6.055   9.306  0.8173 -1.8465 -2.2226
   97OSM   C17S 9657   4.884   5.889   9.304  0.0297 -0.4682  0.1185
   97OSM   H17S 9658   4.801   5.815   9.298  1.1888 -1.7996 -0.1254
   97OSM   H17T 9659   4.965   5.858   9.375 -1.1193 -0.7120  1.3678
   97OSM   C18S 9660   4.941   5.889   9.160  0.4965  0.4015 -0.2448
   97OSM   H18S 9661   4.966   5.783   9.135 -1.3365 -0.5947  1.7880
   97OSM   H18T 9662   5.040   5.940   9.163  0.9363 -0.4215 -0.2576
   97OSM   H18U 9663   4.862   5.929   9.093  0.3055  1.5260  0.6172
   97OSM    C1F 9664   5.217   6.686  10.760  0.5564  0.2441  0.3141
   97OSM     OF 9665   5.280   6.623  10.848  0.0211 -0.1974  0.0569
   97OSM    C2F 9666   5.283   6.802  10.690 -0.2921 -0.4326  0.1871
   97OSM    H2F 9667   5.344   6.858  10.764 -1.3589  0.8288  0.1637
   97OSM    H2G 9668   5.209   6.881  10.664 -2.0892 -1.9900  0.2758
   97OSM    C3F 9669   5.353   6.748  10.570 -0.1627  0.1569  0.6641
   97OSM    H3F 9670   5.276   6.702  10.504 -0.8698  1.5811  0.4520
   97OSM    H3G 9671   5.429   6.670  10.594  1.1314 -0.2333 -3.8461
   97OSM    C4F 9672   5.410   6.864  10.486  0.0265  0.2782 -0.1829
   97OSM    H4F 9673   5.467   6.938  10.545  0.6590 -1.1858  1.1258
   97OSM    H4G 9674   5.339   6.928  10.429 -0.8094 -0.1390  0.3602
   97OSM    C5F 9675   5.516   6.792  10.398  0.5832  0.3050  0.1589
   97OSM    H5F 9676   5.469   6.745  10.309  1.1388  0.0156  0.0114
   97OSM    H5G 9677   5.554   6.710  10.463 -0.5848  0.0615  0.5569
   97OSM    C6F 9678   5.627   6.899  10.360  0.3429  0.3651 -0.2965
   97OSM    H6F 9679   5.699   6.839  10.299 -0.2565 -0.5805 -0.1068
   97OSM    H6G 9680   5.679   6.920  10.456 -1.5129  2.3700  0.3429
   97OSM    C7F 9681   5.601   7.030  10.280 -0.6534 -0.3823  0.0610
   97OSM    H7F 9682   5.539   7.104  10.335  0.1369  0.4649 -0.1761
   97OSM    H7G 9683   5.545   6.994  10.191 -0.0195 -0.0445 -0.4839
   97OSM    C8F 9684   5.731   7.093  10.221  0.1923 -0.4398  0.2707
   97OSM    H8F 9685   5.792   7.013  10.175  1.8287  0.9911 -0.1764
   97OSM    H8G 9686   5.789   7.134  10.306  0.6137  0.2589 -0.3435
   97OSM    C9F 9687   5.702   7.198  10.117  0.0987 -0.6173 -0.0458
   97OSM    H9F 9688   5.664   7.290  10.164  1.4250 -0.7454  1.3562
   97OSM   C10F 9689   5.720   7.209   9.984  0.0623  0.0152  0.0243
   97OSM   H10F 9690   5.685   7.297   9.928  2.4449  1.4211  0.5959
   97OSM   C11F 9691   5.779   7.094   9.905 -0.2564  1.0621  0.3173
   97OSM   H11F 9692   5.788   6.999   9.962 -0.9474  0.3157 -0.7701
   97OSM   H11G 9693   5.872   7.132   9.857  0.2945 -1.3980 -0.7355
   97OSM   C12F 9694   5.682   7.061   9.792  0.3318 -0.1860  0.4658
   97OSM   H12F 9695   5.652   7.157   9.745  0.7132  0.2722  1.1341
   97OSM   H12G 9696   5.585   7.017   9.824  1.4464 -1.9210  1.6224
   97OSM   C13F 9697   5.741   6.963   9.700 -0.1066  0.0487 -0.2203
   97OSM   H13F 9698   5.734   6.864   9.750 -1.5735  0.9642  1.5051
   97OSM   H13G 9699   5.846   6.989   9.675  1.2895 -2.4622  2.3118
   97OSM   C14F 9700   5.686   6.961   9.555  0.2553  0.5038  0.2615
   97OSM   H14F 9701   5.676   7.066   9.521  0.0444  0.9521  1.6557
   97OSM   H14G 9702   5.590   6.905   9.549  0.8107 -0.5159  0.7329
   97OSM   C15F 9703   5.793   6.900   9.468 -0.8548  0.1029  0.0592
   97OSM   H15F 9704   5.828   6.806   9.517 -1.9972 -1.5292 -2.0873
   97OSM   H15G 9705   5.887   6.959   9.462 -0.1517 -1.0904 -3.4809
   97OSM   C16F 9706   5.734   6.866   9.330  0.6610 -0.7421  0.5466
   97OSM   H16F 9707   5.716   6.965   9.283 -1.8238 -0.8713  1.1042
   97OSM   H16G 9708   5.635   6.815   9.328 -0.8359  1.9882 -0.4640
   97OSM   C17F 9709   5.837   6.772   9.251 -0.3238 -0.4262  0.2706
   97OSM   H17F 9710   5.849   6.686   9.320 -1.3793 -1.3800 -0.6936
   97OSM   H17G 9711   5.932   6.831   9.250 -0.0620 -0.7341 -2.3818
   97OSM   C18F 9712   5.800   6.741   9.111  0.2232  0.5972  0.4287
   97OSM   H18F 9713   5.712   6.673   9.110  1.9314 -1.7252  0.3285
   97OSM   H18G 9714   5.883   6.698   9.052  0.8957  2.3368  0.0371
   97OSM   H18H 9715   5.765   6.832   9.058  0.2633 -0.4743 -1.5368
   98OSM      N 9716   0.465   5.848  11.140  0.5502  0.2416 -0.3860
   98OSM    C15 9717   0.539   5.733  11.210  0.1702 -0.3021 -0.0328
   98OSM   H15A 9718   0.480   5.644  11.194 -0.5059  0.1556 -0.1045
   98OSM   H15B 9719   0.546   5.741  11.317 -0.6718 -0.5435  0.0473
   98OSM   H15C 9720   0.636   5.728  11.161  0.0253 -0.3308 -0.3177
   98OSM    C14 9721   0.326   5.847  11.190  0.4158 -0.2864 -0.4364
   98OSM   H14A 9722   0.273   5.756  11.166  2.1451 -1.8665  1.4678
   98OSM   H14B 9723   0.265   5.925  11.145 -2.6088 -1.3616  1.5009
   98OSM   H14C 9724   0.317   5.849  11.297 -1.0917  3.1057 -0.4979
   98OSM    C13 9725   0.539   5.979  11.175 -1.2814 -0.9618 -0.1617
   98OSM   H13A 9726   0.529   6.056  11.100 -0.3496  1.6599  2.2151
   98OSM   H13B 9727   0.644   5.955  11.181 -0.8752  0.3863 -1.2928
   98OSM   H13C 9728   0.505   6.023  11.268  3.8528  1.4557  0.9525
   98OSM    C12 9729   0.466   5.821  10.990 -0.3270 -1.1748  0.0559
   98OSM   H12A 9730   0.447   5.718  10.963  0.2452 -0.7115 -2.4016
   98OSM   H12B 9731   0.569   5.829  10.959 -0.3158 -0.9644  0.1409
   98OSM    C11 9732   0.380   5.909  10.901  0.4842 -0.3211 -0.2377
   98OSM   H11A 9733   0.413   5.884  10.798  2.6111 -0.9234  0.5349
   98OSM   H11B 9734   0.401   6.017  10.919 -0.4581 -0.1842  0.0723
   98OSM      P 9735   0.167   5.741  10.862  0.4453 -0.1442  0.5998
   98OSM    O13 9736   0.266   5.633  10.878 -0.0764  0.1429 -0.3302
   98OSM    O14 9737   0.045   5.746  10.945 -0.7574 -0.1116 -0.3790
   98OSM    O11 9738   0.123   5.757  10.710 -0.2131  0.3240 -0.2997
   98OSM    O12 9739   0.243   5.878  10.912  0.1516 -0.1001 -0.3720
   98OSM    C1S 9740   0.173   5.860  10.621 -1.0107  0.3018 -0.1076
   98OSM    H1S 9741   0.277   5.843  10.585 -1.3822  0.7726 -1.4860
   98OSM    H1T 9742   0.175   5.958  10.672 -0.0115 -1.0450  2.6235
   98OSM     NF 9743   0.126   5.954  10.396  0.1528  0.1242  1.1969
   98OSM    HNF 9744   0.086   6.045  10.398 -0.0785  0.0967  4.4806
   98OSM    C2S 9745   0.085   5.855  10.495 -0.1123 -0.2150  0.2534
   98OSM    H2S 9746   0.090   5.749  10.461 -0.7911 -0.3447  0.5280
   98OSM    C3S 9747  -0.070   5.874  10.523 -0.3747  0.1271 -0.6065
   98OSM    H3S 9748  -0.097   5.974  10.563  2.3021  0.1204  1.5011
   98OSM     O3 9749  -0.128   5.796  10.633 -1.1382  0.0812  0.2133
   98OSM    HO3 9750  -0.048   5.757  10.668 -0.7667 -0.8528 -1.5390
   98OSM    C4S 9751  -0.145   5.859  10.401  0.1524  0.1765  0.3003
   98OSM    H4S 9752  -0.153   5.951  10.341  0.7074  1.1435  1.6677
   98OSM    C5S 9753  -0.195   5.745  10.344  0.2357  0.0114 -0.7226
   98OSM    H5S 9754  -0.170   5.648  10.389 -0.4217 -0.3051 -1.0285
   98OSM    C6S 9755  -0.275   5.748  10.220 -0.4116 -0.4250  0.9631
   98OSM    H6S 9756  -0.359   5.820  10.224 -0.3004 -0.0908 -1.2499
   98OSM    H6T 9757  -0.321   5.648  10.213  0.6153 -1.0352  2.3589
   98OSM    C7S 9758  -0.199   5.773  10.087  0.1898  0.7513  0.6001
   98OSM    H7S 9759  -0.129   5.686  10.090  0.1436  0.7377  1.6523
   98OSM    H7T 9760  -0.133   5.862  10.089  2.9075 -1.0963 -0.7488
   98OSM    C8S 9761  -0.282   5.779   9.959  0.1613 -0.3722  0.0781
   98OSM    H8S 9762  -0.333   5.877   9.959 -0.8985 -0.9065  0.1813
   98OSM    H8T 9763  -0.341   5.684   9.961  0.9532 -0.8748 -0.0600
   98OSM    C9S 9764  -0.198   5.788   9.828  0.3523 -0.2558  0.1285
   98OSM    H9S 9765  -0.150   5.691   9.804 -0.7023 -0.5669 -0.8434
   98OSM    H9T 9766  -0.126   5.873   9.837 -0.7146  0.6455  0.3778
   98OSM   C10S 9767  -0.280   5.842   9.703 -0.7063 -0.1979  0.0666
   98OSM   H10S 9768  -0.209   5.866   9.621 -2.0782  0.1820 -1.0726
   98OSM   H10T 9769  -0.336   5.930   9.741  1.9311  1.3419  0.5913
   98OSM   C11S 9770  -0.373   5.739   9.630  0.6479  0.7386 -0.1517
   98OSM   H11S 9771  -0.435   5.691   9.709  3.2325 -2.1576  0.3205
   98OSM   H11T 9772  -0.319   5.653   9.585 -1.7269 -0.3899 -1.0360
   98OSM   C12S 9773  -0.473   5.814   9.536  0.3404  0.3512 -0.8849
   98OSM   H12S 9774  -0.533   5.885   9.596  0.4806 -0.6372  0.4683
   98OSM   H12T 9775  -0.541   5.739   9.490  1.0347 -1.1941  0.5123
   98OSM   C13S 9776  -0.411   5.895   9.427 -0.3513  0.2032  0.0569
   98OSM   H13S 9777  -0.363   5.816   9.364 -1.1393  0.7528 -1.2847
   98OSM   H13T 9778  -0.329   5.958   9.466  0.7545 -1.5016  0.6104
   98OSM   C14S 9779  -0.501   5.973   9.332 -0.0637  0.0787 -0.2632
   98OSM   H14S 9780  -0.455   5.982   9.231 -0.0998 -1.0539 -0.3962
   98OSM   H14T 9781  -0.513   6.080   9.360 -3.2714  0.0791 -1.3074
   98OSM   C15S 9782  -0.641   5.907   9.320 -0.0354 -0.1552  0.1203
   98OSM   H15S 9783  -0.705   5.917   9.410  0.4813  0.3388  0.4436
   98OSM   H15T 9784  -0.630   5.800   9.295  0.8496 -0.8391  2.9733
   98OSM   C16S 9785  -0.725   5.964   9.198 -0.8369 -0.1245 -0.5803
   98OSM   H16S 9786  -0.740   6.073   9.213  0.6100  0.0284 -0.0066
   98OSM   H16T 9787  -0.821   5.912   9.214  0.2404 -1.2896  3.1596
   98OSM   C17S 9788  -0.665   5.939   9.057 -0.0935  0.2936  0.6747
   98OSM   H17S 9789  -0.557   5.960   9.043 -0.0386 -1.1759 -1.8552
   98OSM   H17T 9790  -0.711   6.014   8.989  1.5990  0.4723 -0.3470
   98OSM   C18S 9791  -0.682   5.797   9.004 -0.8788 -0.7069  0.2458
   98OSM   H18S 9792  -0.599   5.728   9.030 -0.8713 -0.8851 -0.2428
   98OSM   H18T 9793  -0.696   5.795   8.894 -0.6877 -1.2541  0.2280
   98OSM   H18U 9794  -0.772   5.753   9.053 -2.0338  0.1532 -1.0266
   98OSM    C1F 9795   0.248   5.946  10.335  0.6175 -0.5061  0.5454
   98OSM     OF 9796   0.309   5.845  10.346  0.8196  0.8811 -0.1436
   98OSM    C2F 9797   0.299   6.061  10.259 -1.0570 -0.6364  0.3316
   98OSM    H2F 9798   0.391   6.109  10.299 -1.5715  1.9864 -1.3871
   98OSM    H2G 9799   0.226   6.144  10.258  0.4330  0.7152  0.9569
   98OSM    C3F 9800   0.347   6.029  10.110  0.2074 -0.0686  0.2567
   98OSM    H3F 9801   0.426   5.951  10.104 -0.2253 -0.5996  1.2196
   98OSM    H3G 9802   0.402   6.113  10.064 -0.1729  0.7929  1.3383
   98OSM    C4F 9803   0.239   5.994  10.017  0.3285  0.4214 -0.6426
   98OSM    H4F 9804   0.170   6.081  10.005 -2.2305 -1.6271 -1.6203
   98OSM    H4G 9805   0.171   5.914  10.052  0.2925  1.1907  1.1255
   98OSM    C5F 9806   0.276   5.954   9.874 -0.1195  0.1100 -0.2702
   98OSM    H5F 9807   0.364   5.885   9.869  1.6196  2.3203 -2.6688
   98OSM    H5G 9808   0.304   6.043   9.815  0.7357 -0.6221 -1.0104
   98OSM    C6F 9809   0.157   5.874   9.813  0.4220  0.4515 -0.0418
   98OSM    H6F 9810   0.063   5.933   9.804  0.1697 -0.1178 -1.3761
   98OSM    H6G 9811   0.141   5.784   9.876 -2.1759  0.3667 -0.7378
   98OSM    C7F 9812   0.189   5.831   9.663 -0.3815 -0.4601  0.4577
   98OSM    H7F 9813   0.096   5.783   9.626  0.5388  0.2233 -3.1506
   98OSM    H7G 9814   0.260   5.746   9.668 -0.5440 -0.5526  1.6254
   98OSM    C8F 9815   0.220   5.952   9.568  0.5912  0.4198  0.4313
   98OSM    H8F 9816   0.307   6.009   9.608  1.0218  0.1750 -0.1327
   98OSM    H8G 9817   0.130   6.016   9.577  0.4199  0.1035  1.0503
   98OSM    C9F 9818   0.242   5.935   9.417  0.1649  0.5413 -0.3543
   98OSM    H9F 9819   0.299   5.844   9.391 -1.0474 -0.0626 -0.9465
   98OSM   C10F 9820   0.180   6.009   9.326  0.0549 -0.5296  0.2674
   98OSM   H10F 9821   0.196   5.976   9.222  0.3414  1.7993 -0.4777
   98OSM   C11F 9822   0.080   6.120   9.339  0.6513  0.0148  0.6675
   98OSM   H11F 9823   0.122   6.221   9.361 -0.2074  0.7427 -0.8481
   98OSM   H11G 9824   0.004   6.097   9.416 -0.3412  2.3034  0.4482
   98OSM   C12F 9825   0.015   6.134   9.197  0.3614 -0.6311  0.2661
   98OSM   H12F 9826   0.084   6.147   9.111 -1.0572  2.6419 -0.5612
   98OSM   H12G 9827  -0.041   6.231   9.200 -0.6245 -1.0891 -1.6841
   98OSM   C13F 9828  -0.078   6.022   9.171  0.1092  0.3626  0.7357
   98OSM   H13F 9829  -0.152   6.011   9.253  1.3091  0.0779  1.8318
   98OSM   H13G 9830  -0.021   5.926   9.166 -0.3585  0.1312 -0.4411
   98OSM   C14F 9831  -0.141   6.026   9.032 -0.3429 -0.2775 -0.0521
   98OSM   H14F 9832  -0.059   6.028   8.957 -0.5293 -1.5660 -0.3283
   98OSM   H14G 9833  -0.191   6.125   9.023 -0.9268 -0.3855  1.5985
   98OSM   C15F 9834  -0.225   5.900   8.999 -0.9536  0.7349 -0.2647
   98OSM   H15F 9835  -0.326   5.902   9.046 -0.5468  0.9689  0.6281
   98OSM   H15G 9836  -0.182   5.807   9.042  0.0486  1.1484 -0.3521
   98OSM   C16F 9837  -0.247   5.890   8.850 -0.8331 -0.0248 -0.1514
   98OSM   H16F 9838  -0.155   5.837   8.818  0.2778 -0.2986  3.1207
   98OSM   H16G 9839  -0.243   5.992   8.806  2.0900  0.5728  1.2105
   98OSM   C17F 9840  -0.389   5.836   8.816  0.0366  0.2967  0.1232
   98OSM   H17F 9841  -0.474   5.871   8.877 -0.1765 -2.3593  1.4855
   98OSM   H17G 9842  -0.377   5.729   8.844  0.5367  0.5149  0.7665
   98OSM   C18F 9843  -0.427   5.848   8.661  0.4411  0.6809 -1.4256
   98OSM   H18F 9844  -0.356   5.778   8.614 -1.1707 -2.2860  0.2794
   98OSM   H18G 9845  -0.416   5.952   8.623  1.3802  1.0331 -0.2442
   98OSM   H18H 9846  -0.531   5.812   8.642  0.2200  0.1160  0.6318
   99OSM      N 9847   1.371   5.518  10.840  0.3056  0.2743 -0.1393
   99OSM    C15 9848   1.482   5.524  10.742 -0.0078 -0.2955  0.0993
   99OSM   H15A 9849   1.515   5.422  10.729  0.6683 -0.1392  0.5715
   99OSM   H15B 9850   1.568   5.578  10.777 -0.8481  2.6344 -1.9397
   99OSM   H15C 9851   1.445   5.559  10.647 -1.8360 -0.3719  0.7432
   99OSM    C14 9852   1.416   5.435  10.958 -0.3708  0.4035 -0.2298
   99OSM   H14A 9853   1.364   5.458  11.050 -0.9487  2.0863 -0.9224
   99OSM   H14B 9854   1.518   5.459  10.987 -0.8922 -2.2658  4.8839
   99OSM   H14C 9855   1.413   5.334  10.920 -2.3403  1.1294 -2.2378
   99OSM    C13 9856   1.346   5.659  10.886 -0.6677 -0.4990 -0.1492
   99OSM   H13A 9857   1.434   5.703  10.930 -0.9982 -1.3945  1.5341
   99OSM   H13B 9858   1.271   5.651  10.964 -1.0450 -0.1103 -0.4685
   99OSM   H13C 9859   1.311   5.722  10.806  1.7404  3.2781  1.4986
   99OSM    C12 9860   1.247   5.455  10.774  0.2406 -0.0636 -0.0746
   99OSM   H12A 9861   1.273   5.359  10.732  1.9025 -0.3821  1.5627
   99OSM   H12B 9862   1.228   5.512  10.684 -0.7278  0.5250  0.4935
   99OSM    C11 9863   1.118   5.440  10.836  0.6144 -0.2098 -0.5714
   99OSM   H11A 9864   1.110   5.540  10.882 -0.2081 -1.4537  2.1732
   99OSM   H11B 9865   1.119   5.359  10.913 -0.8602 -2.5896 -2.8679
   99OSM      P 9866   0.900   5.346  10.769  0.4773  0.0257  0.2830
   99OSM    O13 9867   0.942   5.211  10.803  0.2017  0.4536 -0.0476
   99OSM    O14 9868   0.813   5.410  10.870  0.0797 -0.5342 -0.1512
   99OSM    O11 9869   0.825   5.349  10.632  0.0043  0.2738  0.4885
   99OSM    O12 9870   1.021   5.430  10.730  0.3082 -0.1654  0.5902
   99OSM    C1S 9871   0.767   5.468  10.585  0.2721 -0.4813  0.3700
   99OSM    H1S 9872   0.834   5.557  10.593 -0.7035  0.3232 -0.1425
   99OSM    H1T 9873   0.669   5.483  10.635 -0.9420 -3.6811 -0.8109
   99OSM     NF 9874   0.717   5.579  10.357 -0.1353  0.7303 -0.1080
   99OSM    HNF 9875   0.636   5.588  10.299  0.3260  2.3690 -0.5753
   99OSM    C2S 9876   0.745   5.452  10.427 -0.0921 -0.6265 -0.4895
   99OSM    H2S 9877   0.838   5.411  10.383  1.3623  1.3943  0.5430
   99OSM    C3S 9878   0.638   5.347  10.409  0.1362  0.3249  0.1081
   99OSM    H3S 9879   0.537   5.367  10.451  0.9758 -0.7302  2.8643
   99OSM     O3 9880   0.658   5.223  10.479 -0.4478 -0.0604  0.1094
   99OSM    HO3 9881   0.735   5.244  10.532  1.0124 -0.7911 -1.6239
   99OSM    C4S 9882   0.630   5.302  10.264 -0.4892  0.2280 -0.6874
   99OSM    H4S 9883   0.729   5.269  10.229  0.0575 -0.5939  1.4705
   99OSM    C5S 9884   0.520   5.300  10.185  0.2308  0.4475  0.4573
   99OSM    H5S 9885   0.420   5.316  10.229  1.1634  0.8081  2.5709
   99OSM    C6S 9886   0.519   5.266  10.036  1.0485  0.0514 -0.5049
   99OSM    H6S 9887   0.455   5.177  10.020  0.0217  0.7815 -0.5821
   99OSM    H6T 9888   0.618   5.224  10.007  1.4215  0.9745 -0.5968
   99OSM    C7S 9889   0.485   5.386   9.954 -0.5364 -0.3363 -0.0532
   99OSM    H7S 9890   0.557   5.468   9.974  0.2268 -0.8173 -0.7954
   99OSM    H7T 9891   0.386   5.431   9.978 -1.4715 -1.7389 -1.0832
   99OSM    C8S 9892   0.500   5.362   9.804  0.5905 -0.4788 -0.4229
   99OSM    H8S 9893   0.414   5.294   9.789 -0.2151  0.4042  0.0982
   99OSM    H8T 9894   0.596   5.315   9.771  0.7414 -0.7783  0.4369
   99OSM    C9S 9895   0.477   5.485   9.714  0.1404 -0.7489 -0.3166
   99OSM    H9S 9896   0.575   5.538   9.708 -0.4437  0.4047 -0.0645
   99OSM    H9T 9897   0.408   5.557   9.762  0.0734 -1.3738  0.5449
   99OSM   C10S 9898   0.431   5.447   9.580  0.4287  0.6945  0.8090
   99OSM   H10S 9899   0.327   5.407   9.586  0.7169 -0.1345  0.3954
   99OSM   H10T 9900   0.500   5.364   9.554  0.2027  0.5914  0.5300
   99OSM   C11S 9901   0.433   5.558   9.474  0.2250 -0.2717 -0.3809
   99OSM   H11S 9902   0.533   5.607   9.479  0.0907  0.0429 -0.7803
   99OSM   H11T 9903   0.349   5.627   9.496  0.4569 -0.3332  0.7585
   99OSM   C12S 9904   0.404   5.501   9.330  0.4611  0.4983 -0.7251
   99OSM   H12S 9905   0.496   5.452   9.293  0.5071 -0.3007  0.4059
   99OSM   H12T 9906   0.324   5.424   9.332  3.4309 -2.8445 -1.9814
   99OSM   C13S 9907   0.356   5.608   9.236  0.0229 -0.0865 -0.7047
   99OSM   H13S 9908   0.427   5.693   9.244  0.0851 -0.1220 -0.8639
   99OSM   H13T 9909   0.258   5.642   9.276 -0.5222  0.8873 -2.7255
   99OSM   C14S 9910   0.328   5.568   9.087 -0.8702 -0.2993  0.2496
   99OSM   H14S 9911   0.273   5.472   9.075  2.6448 -2.5802  0.8110
   99OSM   H14T 9912   0.431   5.542   9.053 -0.4388 -1.7000  2.4601
   99OSM   C15S 9913   0.276   5.675   8.995 -0.1351  0.4707 -0.3292
   99OSM   H15S 9914   0.341   5.765   9.001  0.4103 -0.0069  1.9480
   99OSM   H15T 9915   0.192   5.723   9.048  0.5918  1.0523  0.3184
   99OSM   C16S 9916   0.242   5.628   8.856  0.2193  0.0502  0.6738
   99OSM   H16S 9917   0.205   5.524   8.859  2.3705 -0.9058 -1.9237
   99OSM   H16T 9918   0.342   5.616   8.807  0.4649 -1.2899  1.4664
   99OSM   C17S 9919   0.134   5.715   8.794 -0.4557  0.0210 -0.0078
   99OSM   H17S 9920   0.165   5.820   8.776 -0.1636 -0.3235 -1.7275
   99OSM   H17T 9921   0.048   5.716   8.864 -0.4546  0.3239 -0.0061
   99OSM   C18S 9922   0.069   5.652   8.675  0.4941 -0.2072  0.1937
   99OSM   H18S 9923   0.133   5.648   8.585  1.2382  1.0596  0.6380
   99OSM   H18T 9924  -0.031   5.686   8.641 -0.9106 -4.3735 -0.4598
   99OSM   H18U 9925   0.042   5.547   8.701 -0.1437  0.1028  0.8240
   99OSM    C1F 9926   0.816   5.677  10.352 -0.0638 -0.0506  0.7005
   99OSM     OF 9927   0.932   5.649  10.370  0.1047  0.5875 -0.2445
   99OSM    C2F 9928   0.770   5.821  10.340  0.2906  0.9340  0.0171
   99OSM    H2F 9929   0.831   5.877  10.414  1.1316  0.8385 -0.5837
   99OSM    H2G 9930   0.663   5.827  10.367  0.2865  1.3581 -0.0996
   99OSM    C3F 9931   0.787   5.876  10.195  0.0023  0.2645 -0.0851
   99OSM    H3F 9932   0.718   5.962  10.183 -2.1686 -1.4801 -0.7687
   99OSM    H3G 9933   0.893   5.910  10.189  0.5966 -1.2493  1.1055
   99OSM    C4F 9934   0.753   5.782  10.083  0.4376  0.1597  0.2072
   99OSM    H4F 9935   0.656   5.729  10.096  0.0732  0.2151 -1.9710
   99OSM    H4G 9936   0.840   5.716  10.065 -0.3552 -0.3378 -2.1934
   99OSM    C5F 9937   0.736   5.865   9.953 -0.2727 -0.7581 -0.4674
   99OSM    H5F 9938   0.826   5.930   9.957 -0.3513 -0.6775  0.1273
   99OSM    H5G 9939   0.655   5.940   9.958  2.3644  2.2819  0.3781
   99OSM    C6F 9940   0.728   5.782   9.830  0.3174 -0.5413  0.2643
   99OSM    H6F 9941   0.697   5.683   9.868 -1.0253  0.5945  2.3161
   99OSM    H6G 9942   0.829   5.769   9.785 -0.0724 -1.1955 -0.4303
   99OSM    C7F 9943   0.630   5.844   9.726  0.7706  0.3903  0.1277
   99OSM    H7F 9944   0.549   5.899   9.780  0.1304 -0.7260  0.3461
   99OSM    H7G 9945   0.569   5.766   9.676  0.4995  1.8756 -1.9826
   99OSM    C8F 9946   0.691   5.941   9.618  0.1624  0.8869 -0.4962
   99OSM    H8F 9947   0.739   5.880   9.539  0.3968 -3.0749  2.3891
   99OSM    H8G 9948   0.779   5.993   9.662 -0.3224  0.3405  1.1902
   99OSM    C9F 9949   0.598   6.038   9.554  0.1248  0.8504  0.3518
   99OSM    H9F 9950   0.561   6.120   9.617 -0.3229  0.6495  0.3589
   99OSM   C10F 9951   0.592   6.060   9.422  0.9895  0.4833 -0.7346
   99OSM   H10F 9952   0.525   6.141   9.388  0.9152 -0.2925 -2.5578
   99OSM   C11F 9953   0.657   5.988   9.309 -0.1346  0.1810  0.2656
   99OSM   H11F 9954   0.610   5.889   9.292 -0.2485  0.3766 -0.5608
   99OSM   H11G 9955   0.765   5.971   9.328  0.1916  1.6204 -0.2076
   99OSM   C12F 9956   0.659   6.062   9.178  0.6745  0.2344 -0.0686
   99OSM   H12F 9957   0.737   6.009   9.121  0.6071 -2.2367  1.9897
   99OSM   H12G 9958   0.704   6.163   9.190 -0.9146  0.9333  0.3075
   99OSM   C13F 9959   0.527   6.051   9.093  0.3147 -0.2273  0.0569
   99OSM   H13F 9960   0.443   6.101   9.147 -0.6322 -0.4699 -1.1388
   99OSM   H13G 9961   0.507   5.944   9.072 -2.9599  0.2666  0.0641
   99OSM   C14F 9962   0.535   6.128   8.962  0.0838  0.5104  0.3449
   99OSM   H14F 9963   0.640   6.117   8.927  0.3357 -1.0482  1.4849
   99OSM   H14G 9964   0.509   6.235   8.977 -2.0483 -0.2193  2.5112
   99OSM   C15F 9965   0.427   6.076   8.862  0.4955 -1.0256 -0.1392
   99OSM   H15F 9966   0.327   6.089   8.908  1.1261  0.5632  0.8783
   99OSM   H15G 9967   0.458   5.969   8.861  1.0626 -0.9293 -3.2337
   99OSM   C16F 9968   0.445   6.126   8.717  0.3414 -0.0066 -0.1627
   99OSM   H16F 9969   0.555   6.137   8.701  0.3113  1.9337  0.7286
   99OSM   H16G 9970   0.416   6.233   8.715  3.0007  0.8213  0.4275
   99OSM   C17F 9971   0.374   6.052   8.608  0.3237 -0.1443 -0.1679
   99OSM   H17F 9972   0.267   6.046   8.637  0.2054  2.2347  0.0443
   99OSM   H17G 9973   0.405   5.945   8.609 -3.2273 -1.3195  1.7002
   99OSM   C18F 9974   0.375   6.119   8.477  0.0795 -0.4024  0.0714
   99OSM   H18F 9975   0.353   6.052   8.392  1.0906 -0.0271 -0.5024
   99OSM   H18G 9976   0.481   6.151   8.464  0.7426 -1.4270  2.4046
   99OSM   H18H 9977   0.316   6.213   8.473 -1.0658 -1.1483 -2.7935
  100OSM      N 9978   3.390   1.192  10.718  0.5458 -0.7217  0.3757
  100OSM    C15 9979   3.340   1.331  10.724 -0.3271 -0.0419  0.8094
  100OSM   H15A 9980   3.296   1.355  10.628  0.6878 -2.5204 -0.3645
  100OSM   H15B 9981   3.416   1.407  10.734  2.5565 -2.7274  0.5151
  100OSM   H15C 9982   3.263   1.341  10.799 -1.4076 -0.9508 -0.1460
  100OSM    C14 9983   3.498   1.188  10.610 -0.1108 -0.2919 -0.0614
  100OSM   H14A 9984   3.586   1.240  10.646 -1.5570  1.9255  0.4922
  100OSM   H14B 9985   3.462   1.235  10.520 -1.6923  0.7132  1.0463
  100OSM   H14C 9986   3.525   1.086  10.591  0.1731 -0.4972  1.3241
  100OSM    C13 9987   3.460   1.156  10.841 -0.1425 -0.2695  0.1099
  100OSM   H13A 9988   3.507   1.060  10.831  0.8718  0.3540 -1.6578
  100OSM   H13B 9989   3.391   1.156  10.924 -2.8861 -2.6446 -1.9763
  100OSM   H13C 9990   3.542   1.226  10.848 -0.5615  0.2925 -0.4636
  100OSM    C12 9991   3.290   1.085  10.681  0.3072  0.0093  0.3046
  100OSM   H12A 9992   3.343   0.993  10.663  1.6993  0.7819  0.3676
  100OSM   H12B 9993   3.253   1.113  10.584 -0.2702  0.6218  0.6925
  100OSM    C11 9994   3.176   1.059  10.773  0.2423  0.1412 -0.0278
  100OSM   H11A 9995   3.208   1.031  10.876 -1.1515 -3.6798 -0.4597
  100OSM   H11B 9996   3.125   0.966  10.740 -2.2350  1.2406  0.4179
  100OSM      P 9997   2.935   1.175  10.695 -0.3118 -0.2049  0.2333
  100OSM    O13 9998   2.831   1.103  10.773  0.3029  0.4529 -0.4583
  100OSM    O14 9999   2.911   1.314  10.649  0.1897  0.5969 -0.1698
  100OSM    O1110000   2.972   1.098  10.560 -0.0406  0.6539 -0.4855
  100OSM    O1210001   3.081   1.165  10.771 -0.4643 -0.7452 -0.2515
  100OSM    C1S10002   2.911   0.972  10.536 -0.2191  0.5154  0.1917
  100OSM    H1S10003   2.805   0.959  10.568  0.4542 -1.6174  1.8463
  100OSM    H1T10004   2.964   0.896  10.598  1.7411  0.2798 -1.6536
  100OSM     NF10005   2.864   0.825  10.336  0.0739 -0.0765 -0.6744
  100OSM    HNF10006   2.920   0.742  10.335 -0.6839 -0.7605  2.6831
  100OSM    C2S10007   2.931   0.942  10.382  0.3311 -0.4271 -0.0297
  100OSM    H2S10008   2.882   1.025  10.327  0.8233  0.6012  1.0234
  100OSM    C3S10009   3.085   0.944  10.339 -0.6708 -1.0794  0.2693
  100OSM    H3S10010   3.137   0.866  10.399  1.4020 -0.6278 -0.8457
  100OSM     O310011   3.151   1.070  10.366 -0.2647  0.4482  0.3431
  100OSM    HO310012   3.096   1.109  10.434  1.6037  1.2124  1.4634
  100OSM    C4S10013   3.096   0.916  10.190 -0.8240  0.1545 -0.3119
  100OSM    H4S10014   3.062   0.996  10.123  1.0344  3.3638  2.2891
  100OSM    C5S10015   3.150   0.805  10.137 -0.3498  0.3906  0.1227
  100OSM    H5S10016   3.183   0.728  10.208 -0.9407  0.9720  1.0482
  100OSM    C6S10017   3.178   0.785   9.998  0.4939  0.2235 -0.3911
  100OSM    H6S10018   3.274   0.836   9.973 -0.0012  0.5359 -1.7572
  100OSM    H6T10019   3.104   0.831   9.930  0.1292 -1.7823 -1.4480
  100OSM    C7S10020   3.192   0.628   9.969 -0.8065 -0.1802  0.2582
  100OSM    H7S10021   3.109   0.567  10.010 -1.2199 -0.5066 -1.0216
  100OSM    H7T10022   3.287   0.600  10.018 -1.4863 -0.4338  1.4804
  100OSM    C8S10023   3.181   0.598   9.817 -0.0330  0.4549  0.2486
  100OSM    H8S10024   3.220   0.501   9.781  1.8433  1.4002 -0.4368
  100OSM    H8T10025   3.250   0.673   9.773  2.7709 -2.0516  0.0718
  100OSM    C9S10026   3.040   0.602   9.756 -0.2211 -0.0487 -0.8353
  100OSM    H9S10027   3.000   0.706   9.763 -1.9872 -0.7556  0.5033
  100OSM    H9T10028   2.977   0.544   9.827 -0.0908  0.1251 -0.5734
  100OSM   C10S10029   3.039   0.546   9.610  0.1229 -1.4218 -0.7639
  100OSM   H10S10030   2.932   0.528   9.585  0.4363 -1.5744 -2.0608
  100OSM   H10T10031   3.079   0.443   9.607  0.8400 -1.1849  0.1120
  100OSM   C11S10032   3.095   0.650   9.510  0.4615  0.9312  0.0782
  100OSM   H11S10033   3.205   0.643   9.498  0.4400  1.4578 -0.4582
  100OSM   H11T10034   3.056   0.751   9.533 -5.5668 -0.6239 -1.4090
  100OSM   C12S10035   3.040   0.610   9.370  0.1518  0.0301  0.5355
  100OSM   H12S10036   2.930   0.601   9.363  0.3111 -3.1466  0.5482
  100OSM   H12T10037   3.077   0.506   9.353  1.1360  0.5011 -0.3347
  100OSM   C13S10038   3.103   0.699   9.261 -0.0805 -0.0390 -0.6539
  100OSM   H13S10039   3.212   0.705   9.278  0.3870 -3.0999 -1.8853
  100OSM   H13T10040   3.049   0.794   9.285 -2.5822 -1.5737  0.2361
  100OSM   C14S10041   3.069   0.663   9.119  0.3942 -0.0522 -1.3054
  100OSM   H14S10042   3.120   0.744   9.063  0.7836  0.4016 -0.3184
  100OSM   H14T10043   2.959   0.675   9.109  0.6005  2.4232 -1.3606
  100OSM   C15S10044   3.119   0.524   9.067 -0.2883 -0.6040 -0.0339
  100OSM   H15S10045   3.066   0.443   9.121  1.2129 -0.5130  1.6972
  100OSM   H15T10046   3.226   0.504   9.091  0.2489 -0.2378 -1.9649
  100OSM   C16S10047   3.099   0.501   8.914 -0.2194 -0.1821 -0.0414
  100OSM   H16S10048   3.148   0.589   8.867  0.9739 -1.6337 -1.6506
  100OSM   H16T10049   2.991   0.506   8.890 -0.1911  1.8342  0.1066
  100OSM   C17S10050   3.167   0.373   8.871  0.5932 -0.6141  0.3298
  100OSM   H17S10051   3.271   0.358   8.907  0.0050  1.6655  3.4041
  100OSM   H17T10052   3.159   0.371   8.760 -0.7662 -0.1822  0.3987
  100OSM   C18S10053   3.081   0.253   8.919  0.1751  0.3986  0.1669
  100OSM   H18S10054   2.978   0.280   8.889 -0.1598 -0.4534  0.5288
  100OSM   H18T10055   3.080   0.246   9.030 -1.4866  0.0024  0.1450
  100OSM   H18U10056   3.104   0.155   8.872 -1.0192 -0.3173  1.0544
  100OSM    C1F10057   2.736   0.805  10.338 -0.0785  0.5662 -1.1693
  100OSM     OF10058   2.659   0.889  10.383 -0.3994  0.5356 -0.1181
  100OSM    C2F10059   2.687   0.665  10.297  0.7014 -0.2362 -0.1401
  100OSM    H2F10060   2.626   0.634  10.385 -1.1389  0.2681 -1.1956
  100OSM    H2G10061   2.777   0.601  10.288  0.6106 -0.7105  1.8653
  100OSM    C3F10062   2.611   0.674  10.170  0.1231 -0.9420 -1.1053
  100OSM    H3F10063   2.542   0.761  10.171  2.7177  1.2873  1.7291
  100OSM    H3G10064   2.545   0.585  10.168 -1.1144 -0.1311  0.9993
  100OSM    C4F10065   2.693   0.677  10.041  0.2925  0.2175 -0.6855
  100OSM    H4F10066   2.731   0.574  10.027  0.0972  0.2115 -1.1813
  100OSM    H4G10067   2.785   0.739  10.051  0.6838 -0.3047 -0.9890
  100OSM    C5F10068   2.603   0.717   9.927 -0.5107 -0.2154  0.5610
  100OSM    H5F10069   2.572   0.822   9.943 -2.1971 -0.3516 -1.3519
  100OSM    H5G10070   2.514   0.650   9.924 -1.0703  0.3528  2.8236
  100OSM    C6F10071   2.681   0.721   9.797  0.4568  0.5528  0.0411
  100OSM    H6F10072   2.733   0.625   9.780 -1.3654 -0.3146 -0.9237
  100OSM    H6G10073   2.766   0.793   9.801  0.5625  0.6354 -2.1274
  100OSM    C7F10074   2.584   0.743   9.682 -0.1257 -0.5125  1.1534
  100OSM    H7F10075   2.514   0.822   9.717  1.0903  0.5666  1.2389
  100OSM    H7G10076   2.528   0.651   9.656  1.0325 -0.8238 -0.3870
  100OSM    C8F10077   2.650   0.804   9.553  0.2314 -0.0603  0.2708
  100OSM    H8F10078   2.737   0.862   9.592 -2.6041  3.7304  1.5491
  100OSM    H8G10079   2.581   0.872   9.500 -1.2883  0.4272  2.7441
  100OSM    C9F10080   2.676   0.690   9.454  0.6448 -0.5476 -0.1265
  100OSM    H9F10081   2.695   0.593   9.502 -0.9129  0.1293  1.9611
  100OSM   C10F10082   2.680   0.694   9.320  0.8814 -0.4439 -0.3044
  100OSM   H10F10083   2.677   0.597   9.267  0.7457  1.0090 -3.1514
  100OSM   C11F10084   2.666   0.818   9.231  0.1309 -0.2392 -0.1052
  100OSM   H11F10085   2.767   0.862   9.220 -0.3496  0.8527 -0.2644
  100OSM   H11G10086   2.619   0.907   9.278  0.1215 -0.5373  0.4602
  100OSM   C12F10087   2.591   0.794   9.096  0.4144 -0.2555  0.6328
  100OSM   H12F10088   2.486   0.762   9.116 -0.1036  1.2937  0.5064
  100OSM   H12G10089   2.642   0.702   9.061  1.2955 -0.7945  3.1332
  100OSM   C13F10090   2.594   0.889   8.981  0.4027  0.2893 -0.1843
  100OSM   H13F10091   2.701   0.915   8.966  0.2544 -0.6385 -3.6672
  100OSM   H13G10092   2.534   0.977   9.012  0.1774 -0.2829  1.0761
  100OSM   C14F10093   2.537   0.840   8.844  0.4752  0.1749 -0.4400
  100OSM   H14F10094   2.523   0.730   8.856 -1.1444  0.5163  1.1302
  100OSM   H14G10095   2.609   0.867   8.763  1.6625  1.1002  0.8824
  100OSM   C15F10096   2.391   0.886   8.806  0.0036 -0.0694  0.4491
  100OSM   H15F10097   2.385   0.890   8.695  0.5522  0.3825  0.4350
  100OSM   H15G10098   2.375   0.990   8.842 -0.9879  0.3947 -1.2246
  100OSM   C16F10099   2.286   0.783   8.850  0.0916 -0.4094  0.5699
  100OSM   H16F10100   2.270   0.787   8.960  0.5060 -0.2573  0.6264
  100OSM   H16G10101   2.320   0.682   8.819  2.4303  0.1107  1.2529
  100OSM   C17F10102   2.145   0.810   8.796 -0.5169  0.0582  0.9992
  100OSM   H17F10103   2.086   0.716   8.809 -0.0955 -0.3533  0.1023
  100OSM   H17G10104   2.150   0.843   8.690 -1.8599 -0.9082  0.6128
  100OSM   C18F10105   2.079   0.913   8.878 -0.2145 -0.6430  0.9228
  100OSM   H18F10106   2.122   1.010   8.846 -1.7895  1.0316  3.4493
  100OSM   H18G10107   2.096   0.891   8.986 -0.1730 -1.7548  0.6922
  100OSM   H18H10108   1.970   0.924   8.857 -0.4304 -2.6998  0.7884
  101OSM      N10109   6.289   1.455  10.967 -0.7180  0.3131  0.1793
  101OSM    C1510110   6.320   1.319  10.907  0.2020 -0.2020 -0.6820
  101OSM   H15A10111   6.258   1.249  10.962 -1.1220  0.1533 -1.6505
  101OSM   H15B10112   6.426   1.311  10.922  0.0157  0.6554  1.4540
  101OSM   H15C10113   6.289   1.309  10.804 -1.4746  0.8452 -0.3366
  101OSM    C1410114   6.387   1.485  11.071 -0.0730  0.1970 -0.8708
  101OSM   H14A10115   6.376   1.412  11.150  1.1582 -1.3923 -2.1003
  101OSM   H14B10116   6.380   1.579  11.122  1.3032 -0.0710 -0.1423
  101OSM   H14C10117   6.492   1.476  11.046  0.4490  2.2004  0.4014
  101OSM    C1310118   6.315   1.550  10.845 -0.3217 -0.5702  0.5921
  101OSM   H13A10119   6.304   1.652  10.879 -0.6997 -1.2564  2.6806
  101OSM   H13B10120   6.243   1.529  10.767 -1.7316  2.6620  0.8589
  101OSM   H13C10121   6.414   1.535  10.805  0.4029  1.6861  1.4070
  101OSM    C1210122   6.149   1.467  11.023  0.0414  1.1325  0.0673
  101OSM   H12A10123   6.140   1.551  11.089  3.6862 -0.2120  2.5807
  101OSM   H12B10124   6.128   1.387  11.092  0.7585  1.5207  0.7468
  101OSM    C1110125   6.040   1.471  10.911 -0.3277 -0.8264  0.3482
  101OSM   H11A10126   6.056   1.563  10.851  3.0267 -1.4304  0.1395
  101OSM   H11B10127   5.948   1.486  10.972  0.5993 -0.9753  1.8136
  101OSM      P10128   5.964   1.231  10.890 -0.6322  0.0778 -0.1420
  101OSM    O1310129   6.024   1.109  10.833 -0.0653  0.2672 -0.2849
  101OSM    O1410130   5.966   1.235  11.039 -0.1880 -0.0661  0.1268
  101OSM    O1110131   5.818   1.240  10.839  0.4680 -0.7356  0.3654
  101OSM    O1210132   6.040   1.361  10.827 -0.0623  1.0513 -0.6190
  101OSM    C1S10133   5.763   1.295  10.716 -0.7533  0.3966 -1.0752
  101OSM    H1S10134   5.800   1.399  10.705  2.7957 -0.2623  2.2085
  101OSM    H1T10135   5.652   1.295  10.719 -0.7375  0.5974 -0.4829
  101OSM     NF10136   5.737   1.273  10.481 -0.5871  0.0306 -0.4137
  101OSM    HNF10137   5.675   1.215  10.428  0.3992 -1.5864  0.1214
  101OSM    C2S10138   5.795   1.208  10.594 -0.1752  0.2623  0.1589
  101OSM    H2S10139   5.902   1.211  10.564 -0.4232  1.0499 -0.7143
  101OSM    C3S10140   5.742   1.070  10.611  0.1372 -0.0464  0.2068
  101OSM    H3S10141   5.633   1.078  10.589  0.4480  0.6751 -1.1917
  101OSM     O310142   5.757   1.002  10.739 -0.4993 -0.1614 -0.0795
  101OSM    HO310143   5.795   1.068  10.797 -0.6290 -0.0546 -0.1153
  101OSM    C4S10144   5.798   0.974  10.504 -0.1716 -0.6125 -0.3876
  101OSM    H4S10145   5.721   0.952  10.428 -0.3885 -1.3362  0.0347
  101OSM    C5S10146   5.909   0.897  10.505 -0.1643  0.3244 -0.0040
  101OSM    H5S10147   5.969   0.918  10.595  0.6523  1.4364 -0.7863
  101OSM    C6S10148   5.969   0.803  10.393  1.1390 -0.2621 -0.2120
  101OSM    H6S10149   5.991   0.700  10.429 -2.7143 -0.5093  1.8942
  101OSM    H6T10150   6.068   0.845  10.365 -0.0506  0.3789 -4.0406
  101OSM    C7S10151   5.897   0.807  10.255  0.5144 -0.0724  0.3738
  101OSM    H7S10152   5.878   0.913  10.227 -0.3572  0.3444  2.3962
  101OSM    H7T10153   5.795   0.767  10.273 -0.6166  2.8594  1.0828
  101OSM    C8S10154   5.962   0.721  10.145  0.0512  0.2466  0.5528
  101OSM    H8S10155   5.960   0.613  10.167 -1.1183 -0.4866 -2.5846
  101OSM    H8T10156   6.072   0.736  10.138  0.2028 -0.3108  1.6300
  101OSM    C9S10157   5.899   0.738  10.006  0.1061 -0.0051  0.3633
  101OSM    H9S10158   5.892   0.847   9.986 -0.3202 -0.2093 -0.6706
  101OSM    H9T10159   5.800   0.689  10.015 -0.4192  1.4049  3.2553
  101OSM   C10S10160   5.971   0.660   9.889 -0.2744  0.4765  0.4498
  101OSM   H10S10161   5.964   0.555   9.923  0.0864  0.1699 -0.4011
  101OSM   H10T10162   6.076   0.695   9.880  0.0075 -0.5531 -0.4479
  101OSM   C11S10163   5.890   0.666   9.769  0.3489  0.6364 -0.1449
  101OSM   H11S10164   5.854   0.770   9.752  0.6343  0.9526  1.1041
  101OSM   H11T10165   5.798   0.612   9.801  2.4870 -1.6464  2.6507
  101OSM   C12S10166   5.958   0.608   9.648  0.1307  0.6512  0.9121
  101OSM   H12S10167   5.994   0.504   9.658 -1.5163 -0.0035  0.3155
  101OSM   H12T10168   6.044   0.673   9.620  0.4833  1.1816  3.0561
  101OSM   C13S10169   5.860   0.610   9.528 -0.9974 -0.5430 -0.2900
  101OSM   H13S10170   5.840   0.706   9.475  0.2664 -0.1799 -0.1571
  101OSM   H13T10171   5.764   0.579   9.573 -1.8394 -1.4267 -2.5876
  101OSM   C14S10172   5.905   0.520   9.422 -0.0380  0.2037  0.9461
  101OSM   H14S10173   5.896   0.421   9.471 -1.3499  1.1223  2.6769
  101OSM   H14T10174   6.010   0.537   9.391 -0.3944 -2.1848 -2.1015
  101OSM   C15S10175   5.821   0.534   9.293  0.4675  0.0580 -0.5656
  101OSM   H15S10176   5.817   0.641   9.264  1.2669 -0.0417 -1.0765
  101OSM   H15T10177   5.720   0.508   9.332  1.7173 -0.1602  2.9498
  101OSM   C16S10178   5.864   0.425   9.192 -0.0588 -0.3395  0.0466
  101OSM   H16S10179   5.856   0.324   9.238  1.2702  0.4963  2.2391
  101OSM   H16T10180   5.969   0.446   9.164  0.1645  2.2384  2.3855
  101OSM   C17S10181   5.763   0.430   9.071  0.8819 -0.7492 -0.7222
  101OSM   H17S10182   5.752   0.536   9.040  1.4975 -0.5501 -0.2730
  101OSM   H17T10183   5.659   0.407   9.103 -0.7430  2.5325 -3.0042
  101OSM   C18S10184   5.795   0.355   8.939  1.1551 -0.4834  0.5091
  101OSM   H18S10185   5.714   0.356   8.864  0.9592 -1.8509  0.6876
  101OSM   H18T10186   5.810   0.254   8.982 -2.0977 -0.4087  2.1835
  101OSM   H18U10187   5.882   0.406   8.892  0.6611 -0.6979 -0.6743
  101OSM    C1F10188   5.777   1.396  10.432  0.7218 -0.3561 -0.4346
  101OSM     OF10189   5.866   1.459  10.486 -0.8977 -0.4043 -0.0388
  101OSM    C2F10190   5.710   1.447  10.300 -0.3452 -0.2093 -0.8343
  101OSM    H2F10191   5.628   1.518  10.323 -0.4651 -0.6409  0.1376
  101OSM    H2G10192   5.665   1.356  10.253  0.4900  0.1629 -2.4256
  101OSM    C3F10193   5.822   1.516  10.212 -0.3043  0.2687 -0.2130
  101OSM    H3F10194   5.897   1.441  10.178  0.2220  0.5250  0.3552
  101OSM    H3G10195   5.876   1.592  10.273 -0.1012  0.4981 -0.6699
  101OSM    C4F10196   5.774   1.576  10.081 -0.3579 -0.2346 -0.1067
  101OSM    H4F10197   5.709   1.663  10.107 -1.3295 -0.4598 -1.6491
  101OSM    H4G10198   5.721   1.499  10.021  0.3756  1.5815 -3.3369
  101OSM    C5F10199   5.889   1.638   9.994 -0.5136 -0.0119 -0.2835
  101OSM    H5F10200   5.940   1.551   9.946 -1.3460 -0.4056 -0.4613
  101OSM    H5G10201   5.960   1.683  10.067  0.6150 -0.0064 -1.3306
  101OSM    C6F10202   5.852   1.735   9.877 -0.6189 -0.7629  0.0878
  101OSM    H6F10203   5.813   1.830   9.918  1.6001  0.5729 -0.7589
  101OSM    H6G10204   5.947   1.759   9.824 -1.3063  0.6069 -0.5479
  101OSM    C7F10205   5.755   1.684   9.764 -0.4512  0.7265 -0.3045
  101OSM    H7F10206   5.734   1.771   9.697 -1.2348  0.0793 -0.9095
  101OSM    H7G10207   5.660   1.649   9.809  0.5036 -0.2233  1.0413
  101OSM    C8F10208   5.813   1.551   9.688  0.2805 -0.3689  0.2064
  101OSM    H8F10209   5.729   1.536   9.617  0.5404  3.0110 -1.0385
  101OSM    H8G10210   5.817   1.466   9.759  0.6298 -0.9219 -0.4719
  101OSM    C9F10211   5.942   1.558   9.615 -0.5721 -0.1393  0.3746
  101OSM    H9F10212   6.036   1.557   9.672 -0.4930 -0.4176  0.2352
  101OSM   C10F10213   5.947   1.581   9.481 -0.0322 -0.2240 -0.2241
  101OSM   H10F10214   6.046   1.586   9.435  0.6515 -1.4528  1.0248
  101OSM   C11F10215   5.833   1.611   9.387  0.8000  0.4610 -0.0821
  101OSM   H11F10216   5.872   1.677   9.307  0.8947  0.8921  0.3207
  101OSM   H11G10217   5.756   1.667   9.444 -0.8386 -2.7597  1.1251
  101OSM   C12F10218   5.774   1.479   9.322  0.7550  0.2535  0.4495
  101OSM   H12F10219   5.738   1.414   9.404  0.8575 -0.0880  0.2270
  101OSM   H12G10220   5.843   1.417   9.261 -0.7317 -0.8815 -0.1327
  101OSM   C13F10221   5.648   1.516   9.232  0.0309  0.3835  0.4656
  101OSM   H13F10222   5.696   1.573   9.149  0.1246 -1.1383 -0.5603
  101OSM   H13G10223   5.591   1.587   9.295 -0.3080  0.0431  0.5427
  101OSM   C14F10224   5.565   1.401   9.178  0.5907 -0.0888  0.1377
  101OSM   H14F10225   5.472   1.447   9.138  1.2531  2.2709  1.1395
  101OSM   H14G10226   5.548   1.325   9.257  1.0143  0.7052  1.0173
  101OSM   C15F10227   5.634   1.328   9.055 -0.4403  0.3447 -0.3494
  101OSM   H15F10228   5.722   1.275   9.096 -2.3790 -1.9517  1.0927
  101OSM   H15G10229   5.660   1.414   8.989 -3.1540 -0.2730 -2.3847
  101OSM   C16F10230   5.545   1.235   8.979  0.3419 -0.2475  0.7036
  101OSM   H16F10231   5.443   1.277   8.964  0.8931  1.2629  0.9702
  101OSM   H16G10232   5.534   1.142   9.039 -0.7712  0.9511  2.4285
  101OSM   C17F10233   5.606   1.187   8.848  0.2194  0.2273 -0.9689
  101OSM   H17F10234   5.544   1.098   8.823 -0.1509  0.2422 -0.1576
  101OSM   H17G10235   5.710   1.156   8.870 -0.4650 -0.3757  1.8495
  101OSM   C18F10236   5.598   1.287   8.741  0.4466  0.5468  0.7106
  101OSM   H18F10237   5.631   1.389   8.772  0.0715  1.3784 -1.4176
  101OSM   H18G10238   5.493   1.302   8.706  0.7373  1.9940  0.3543
  101OSM   H18H10239   5.667   1.266   8.657 -0.1142  2.0805 -0.1902
  102OSM      N10240   1.188   1.620  10.803 -0.4286  0.0237  1.1155
  102OSM    C1510241   1.080   1.519  10.833 -0.0388  0.0012 -0.1937
  102OSM   H15A10242   1.068   1.452  10.749  0.7615 -0.5883  0.1566
  102OSM   H15B10243   0.984   1.567  10.851  1.8919  4.0064  0.6208
  102OSM   H15C10244   1.099   1.452  10.915 -0.3915 -0.1449 -0.2263
  102OSM    C1410245   1.209   1.701  10.917 -0.2068  0.3859  0.2561
  102OSM   H14A10246   1.126   1.768  10.937  0.9575  2.5037 -1.5604
  102OSM   H14B10247   1.290   1.771  10.905  1.2083 -1.3487 -0.7736
  102OSM   H14C10248   1.219   1.632  11.000 -1.1507  0.0162  0.0788
  102OSM    C1310249   1.317   1.535  10.775  0.3480 -0.4458 -0.0969
  102OSM   H13A10250   1.304   1.465  10.693  3.1273 -2.6862  1.2362
  102OSM   H13B10251   1.340   1.481  10.865 -1.5962 -0.6332  0.3455
  102OSM   H13C10252   1.407   1.593  10.759  0.9261 -1.1551  0.5271
  102OSM    C1210253   1.154   1.698  10.683 -0.4456  0.1604  0.2350
  102OSM   H12A10254   1.137   1.631  10.600  1.9960 -1.3292  0.8500
  102OSM   H12B10255   1.239   1.759  10.657 -0.4152  0.4968  1.0668
  102OSM    C1110256   1.031   1.797  10.688 -0.0896 -0.0209  0.0946
  102OSM   H11A10257   0.961   1.744  10.755  2.5345 -1.0661  2.2154
  102OSM   H11B10258   0.988   1.805  10.586 -0.5632  2.5818  0.4143
  102OSM      P10259   1.153   2.022  10.677 -0.3212  0.0720  0.0204
  102OSM    O1310260   1.111   2.160  10.714  0.3941  0.9347 -0.5223
  102OSM    O1410261   1.293   1.988  10.712  0.1952  0.2858 -0.6301
  102OSM    O1110262   1.129   1.997  10.518  0.5593 -0.2655 -0.3907
  102OSM    O1210263   1.059   1.923  10.750  0.1831 -0.0927  1.0612
  102OSM    C1S10264   1.020   2.051  10.454  0.5763  0.0020  0.4972
  102OSM    H1S10265   1.019   2.161  10.468  0.2939 -0.0049  0.5336
  102OSM    H1T10266   0.925   2.017  10.500  0.3442  1.1543  0.9043
  102OSM     NF10267   0.917   2.077  10.225  0.3082 -0.5932  0.1182
  102OSM    HNF10268   0.862   2.006  10.182  2.1105 -1.9144 -0.1229
  102OSM    C2S10269   1.029   2.021  10.299  0.7567 -0.9397 -0.1683
  102OSM    H2S10270   1.120   2.067  10.255 -0.5667  1.4191 -0.6181
  102OSM    C3S10271   1.052   1.873  10.267 -0.0342 -0.1579 -1.1069
  102OSM    H3S10272   0.964   1.818  10.308  1.3555 -1.1566  0.6824
  102OSM     O310273   1.175   1.820  10.323  0.5263  0.5376 -0.1874
  102OSM    HO310274   1.188   1.886  10.392  0.7803 -1.2450  1.5692
  102OSM    C4S10275   1.066   1.855  10.117 -0.0558 -0.0842  0.6506
  102OSM    H4S10276   1.091   1.946  10.061 -1.2714  1.4397  2.4610
  102OSM    C5S10277   1.046   1.742  10.044 -0.7558 -1.0918  0.3140
  102OSM    H5S10278   1.004   1.654  10.094 -1.0833 -0.4191  1.2618
  102OSM    C6S10279   1.072   1.720   9.897  0.2846  0.1611 -0.4378
  102OSM    H6S10280   1.103   1.614   9.890 -0.9031 -0.1708 -0.8798
  102OSM    H6T10281   1.162   1.777   9.865  1.9353 -0.9379  1.9234
  102OSM    C7S10282   0.951   1.763   9.816  0.4020 -0.2732  0.3571
  102OSM    H7S10283   0.936   1.873   9.817  1.5220 -0.1143  1.6890
  102OSM    H7T10284   0.859   1.714   9.854  2.5578 -2.3982  3.2514
  102OSM    C8S10285   0.978   1.730   9.666 -0.1195 -0.0919  0.5387
  102OSM    H8S10286   1.046   1.642   9.670  2.8741  2.0618  1.0804
  102OSM    H8T10287   1.041   1.815   9.631 -1.0539  1.3587  2.1964
  102OSM    C9S10288   0.870   1.709   9.573  0.4610 -0.7410  0.8698
  102OSM    H9S10289   0.820   1.807   9.564  0.7445 -0.2991  3.4448
  102OSM    H9T10290   0.799   1.626   9.595  0.8139 -1.5642 -0.9134
  102OSM   C10S10291   0.940   1.670   9.437 -0.1750 -0.4552 -0.3512
  102OSM   H10S10292   0.972   1.564   9.449 -1.9189 -0.8648  1.0750
  102OSM   H10T10293   1.034   1.728   9.426 -0.5859  0.5157  1.0234
  102OSM   C11S10294   0.856   1.686   9.314  0.0719 -0.2689 -0.3579
  102OSM   H11S10295   0.927   1.679   9.229  0.6522 -0.4589  0.1329
  102OSM   H11T10296   0.799   1.781   9.311  0.9660  0.3388  0.8091
  102OSM   C12S10297   0.748   1.575   9.300 -0.3055  0.1939 -0.1532
  102OSM   H12S10298   0.672   1.567   9.381  1.2189 -2.0589  1.1616
  102OSM   H12T10299   0.802   1.479   9.309  0.6404  0.3267 -3.1483
  102OSM   C13S10300   0.684   1.579   9.163 -0.1411  0.3014  0.0883
  102OSM   H13S10301   0.771   1.621   9.106 -0.0305 -0.1301 -0.0654
  102OSM   H13T10302   0.601   1.652   9.163 -0.9820 -0.6064 -1.1353
  102OSM   C14S10303   0.644   1.444   9.108  0.3132  0.1953  0.2877
  102OSM   H14S10304   0.588   1.379   9.179 -0.1980 -0.4810 -0.7139
  102OSM   H14T10305   0.733   1.383   9.082  1.0737  0.3769  2.2741
  102OSM   C15S10306   0.551   1.455   8.982 -0.2177  0.2725 -0.0073
  102OSM   H15S10307   0.588   1.527   8.906 -0.4141  0.1396 -0.2310
  102OSM   H15T10308   0.455   1.501   9.013  0.3012 -0.1784  2.4374
  102OSM   C16S10309   0.541   1.325   8.895  0.0930  0.1264  0.0761
  102OSM   H16S10310   0.477   1.258   8.955  0.4911 -1.9190 -1.6825
  102OSM   H16T10311   0.642   1.280   8.884 -0.0395 -0.0420 -0.4606
  102OSM   C17S10312   0.490   1.358   8.755  0.1987  0.0655 -0.6673
  102OSM   H17S10313   0.562   1.409   8.688 -0.5988  0.6811 -1.0656
  102OSM   H17T10314   0.404   1.427   8.769 -0.4307 -1.0934  1.6077
  102OSM   C18S10315   0.450   1.236   8.680 -0.3406  0.5822 -0.0577
  102OSM   H18S10316   0.547   1.185   8.668  0.2835  1.9711 -1.1235
  102OSM   H18T10317   0.410   1.271   8.582 -1.2273 -0.2526 -0.0105
  102OSM   H18U10318   0.378   1.169   8.733 -0.2847  0.6058  0.0478
  102OSM    C1F10319   0.893   2.206  10.219  1.1560 -0.6926 -0.6609
  102OSM     OF10320   0.979   2.277  10.268 -0.1832  0.0855 -0.1507
  102OSM    C2F10321   0.762   2.269  10.163  0.8009  0.7588 -0.1773
  102OSM    H2F10322   0.778   2.377  10.144  0.2890  1.0700  1.0266
  102OSM    H2G10323   0.690   2.261  10.248 -0.3277  0.5104 -1.1362
  102OSM    C3F10324   0.703   2.202  10.033  0.2827  0.3772 -0.1959
  102OSM    H3F10325   0.613   2.258  10.001  1.5075  3.9968  2.0584
  102OSM    H3G10326   0.686   2.094  10.056  0.2653  0.6760  1.2879
  102OSM    C4F10327   0.801   2.205   9.916 -0.0440  0.4996  0.3742
  102OSM    H4F10328   0.886   2.134   9.929  1.1443  1.7826 -0.1851
  102OSM    H4G10329   0.848   2.304   9.897 -1.2360  1.2023  0.9349
  102OSM    C5F10330   0.721   2.184   9.786 -0.0848  0.1542 -0.2672
  102OSM    H5F10331   0.631   2.249   9.799 -0.1744 -0.0771  0.3000
  102OSM    H5G10332   0.680   2.080   9.787 -1.2319  0.5699 -1.0683
  102OSM    C6F10333   0.789   2.228   9.654  0.1690  0.6387  0.3343
  102OSM    H6F10334   0.837   2.326   9.672  2.9475 -0.4673 -0.5359
  102OSM    H6G10335   0.715   2.262   9.579  0.4318 -1.3852 -0.9253
  102OSM    C7F10336   0.895   2.138   9.597  0.2300 -0.3372 -1.0868
  102OSM    H7F10337   0.854   2.035   9.603 -3.0794  0.9680  1.1393
  102OSM    H7G10338   0.987   2.151   9.659  0.0061 -0.9433 -0.6182
  102OSM    C8F10339   0.932   2.184   9.456 -0.4046 -0.4973  0.0603
  102OSM    H8F10340   0.999   2.272   9.449 -1.3171  0.1440 -0.8720
  102OSM    H8G10341   0.838   2.216   9.405 -0.2625 -1.0816 -0.5948
  102OSM    C9F10342   0.975   2.058   9.375 -0.3778 -0.1520 -1.2086
  102OSM    H9F10343   0.987   1.970   9.440 -1.6106  1.4683  1.3713
  102OSM   C10F10344   0.992   2.038   9.244  0.0401 -0.2833  1.0823
  102OSM   H10F10345   1.013   1.936   9.210 -1.0021 -0.1331 -0.0912
  102OSM   C11F10346   0.967   2.139   9.135 -0.9766  0.2640 -0.4026
  102OSM   H11F10347   1.057   2.154   9.072 -1.7698  0.4471 -1.5328
  102OSM   H11G10348   0.945   2.238   9.181  1.3742 -1.2781  4.8754
  102OSM   C12F10349   0.857   2.094   9.032 -0.6776 -0.4415 -0.0591
  102OSM   H12F10350   0.858   2.181   8.962  0.1108  0.7504  1.3770
  102OSM   H12G10351   0.753   2.103   9.070 -1.9506  1.7198 -3.4920
  102OSM   C13F10352   0.880   1.973   8.937 -0.8668 -0.4639 -0.4223
  102OSM   H13F10353   0.877   1.891   9.012  0.1911  1.2040  1.5304
  102OSM   H13G10354   0.978   1.986   8.887 -0.9635 -0.6810 -0.6731
  102OSM   C14F10355   0.759   1.961   8.837  0.0215 -0.0585 -0.2647
  102OSM   H14F10356   0.749   2.050   8.772 -3.4990 -0.1120  0.0268
  102OSM   H14G10357   0.663   1.954   8.892  0.2504 -0.7141  0.0681
  102OSM   C15F10358   0.777   1.857   8.728  0.1281  0.1607  0.2685
  102OSM   H15F10359   0.865   1.890   8.667  0.3206  1.4442  1.2152
  102OSM   H15G10360   0.691   1.863   8.658  2.1017  1.0167 -2.2640
  102OSM   C16F10361   0.791   1.710   8.781  0.5341  0.2706  0.1236
  102OSM   H16F10362   0.761   1.637   8.702  2.1135 -0.2580 -0.0268
  102OSM   H16G10363   0.719   1.692   8.863 -1.6368 -0.5370 -1.8421
  102OSM   C17F10364   0.934   1.660   8.819 -0.2385  0.7476 -0.2662
  102OSM   H17F10365   0.973   1.707   8.912 -0.1899  0.3888 -0.1022
  102OSM   H17G10366   1.002   1.695   8.738  0.8511 -0.7505 -0.0556
  102OSM   C18F10367   0.928   1.502   8.834 -0.2747 -0.1832 -1.0332
  102OSM   H18F10368   0.848   1.475   8.906 -1.5541  1.6295 -1.6976
  102OSM   H18G10369   1.025   1.457   8.864 -0.6310  0.2501  0.8879
  102OSM   H18H10370   0.890   1.452   8.743 -1.0803  1.0135 -1.3810
  103OSM      N10371   0.778   5.007  11.050  0.1908 -0.0613 -0.3223
  103OSM    C1510372   0.883   5.101  11.098 -0.1109 -0.2465  0.5115
  103OSM   H15A10373   0.952   5.130  11.020 -1.1060  4.8762  1.2050
  103OSM   H15B10374   0.947   5.056  11.172  1.4188 -1.6199 -1.5386
  103OSM   H15C10375   0.838   5.190  11.139  0.2263 -0.7301  1.9907
  103OSM    C1410376   0.680   4.980  11.159  0.1081 -0.5309 -0.6452
  103OSM   H14A10377   0.610   4.903  11.130  0.9063 -1.3591 -0.4390
  103OSM   H14B10378   0.613   5.063  11.170  1.4087  0.3577  1.2871
  103OSM   H14C10379   0.726   4.946  11.252 -0.4750 -0.8103 -0.4564
  103OSM    C1310380   0.705   5.060  10.932  0.6652 -0.6984  0.0006
  103OSM   H13A10381   0.776   5.078  10.853  2.8308 -1.6500  1.6374
  103OSM   H13B10382   0.651   5.150  10.956  0.6480 -1.0494  1.3595
  103OSM   H13C10383   0.631   4.991  10.894 -0.9763  0.7463  0.4491
  103OSM    C1210384   0.850   4.878  11.007  0.7026 -0.0911 -0.6248
  103OSM   H12A10385   0.911   4.858  11.094 -1.0783  0.9074  0.9398
  103OSM   H12B10386   0.905   4.906  10.919  0.9980  1.9607  0.1481
  103OSM    C1110387   0.767   4.754  10.978 -0.4592 -0.7516  0.4072
  103OSM   H11A10388   0.698   4.722  11.058 -1.6468 -1.9231 -1.0124
  103OSM   H11B10389   0.839   4.671  10.960 -0.3219 -0.2841 -1.4506
  103OSM      P10390   0.576   4.668  10.803  0.0112  0.0776  0.1272
  103OSM    O1310391   0.653   4.544  10.786 -0.3447  0.2406  0.5260
  103OSM    O1410392   0.473   4.662  10.904 -0.1165 -0.0641 -0.3678
  103OSM    O1110393   0.523   4.725  10.667 -0.1534 -0.5471  0.0585
  103OSM    O1210394   0.689   4.770  10.852  0.4062  0.1271 -0.9490
  103OSM    C1S10395   0.586   4.835  10.603  0.0648 -0.4864  0.3756
  103OSM    H1S10396   0.695   4.823  10.585  0.2555  1.3371  0.0454
  103OSM    H1T10397   0.585   4.931  10.660  1.0562 -1.4176  2.0362
  103OSM     NF10398   0.626   4.935  10.382  0.3434 -0.5679 -0.9484
  103OSM    HNF10399   0.629   5.034  10.379 -0.4003 -0.4578  0.6188
  103OSM    C2S10400   0.526   4.875  10.465 -0.1016  1.0654 -0.1151
  103OSM    H2S10401   0.504   4.780  10.411  0.1818  1.0250 -0.1631
  103OSM    C3S10402   0.402   4.962  10.492 -0.2397  0.4110 -0.2028
  103OSM    H3S10403   0.443   5.058  10.528  0.0594 -0.7014  2.6999
  103OSM     O310404   0.325   4.910  10.596  0.4399 -0.3802  0.2358
  103OSM    HO310405   0.372   4.836  10.636 -1.9556 -1.1804  1.7883
  103OSM    C4S10406   0.328   4.972  10.360  0.0205  0.3924 -0.2329
  103OSM    H4S10407   0.370   5.059  10.308 -0.4554  0.7184 -0.0870
  103OSM    C5S10408   0.223   4.897  10.313 -1.0566  0.4529  0.9534
  103OSM    H5S10409   0.180   4.820  10.379  0.2276  0.8719  2.3349
  103OSM    C6S10410   0.152   4.901  10.185 -0.0035  0.6292  0.1862
  103OSM    H6S10411   0.053   4.950  10.200  0.3154  0.8507  1.6716
  103OSM    H6T10412   0.125   4.797  10.156 -2.8060  2.0292 -2.9565
  103OSM    C7S10413   0.222   4.967  10.073  0.4174 -0.1824  0.4633
  103OSM    H7S10414   0.328   4.935  10.062  0.5330  0.2848  0.1717
  103OSM    H7T10415   0.221   5.078  10.078 -1.1042 -0.1503  0.1035
  103OSM    C8S10416   0.152   4.943   9.936  0.2490  0.4145 -0.2232
  103OSM    H8S10417   0.047   4.979   9.949 -0.2707 -0.9697 -0.3273
  103OSM    H8T10418   0.155   4.832   9.934 -1.9411  0.2958 -2.5411
  103OSM    C9S10419   0.216   5.008   9.815  0.0012 -0.1909  0.7087
  103OSM    H9S10420   0.320   4.978   9.791  0.3687  0.4858  1.4188
  103OSM    H9T10421   0.208   5.119   9.828 -0.1305  0.0322 -0.9724
  103OSM   C10S10422   0.142   4.985   9.680 -0.6137 -0.1127  0.1171
  103OSM   H10S10423   0.033   5.006   9.679 -0.6819 -0.4213  0.6336
  103OSM   H10T10424   0.154   4.875   9.664  0.8340 -0.2492  1.7868
  103OSM   C11S10425   0.214   5.058   9.558 -0.4275 -0.6419  0.5270
  103OSM   H11S10426   0.324   5.045   9.568 -0.1000  0.3500 -1.2955
  103OSM   H11T10427   0.183   5.163   9.574 -0.6074 -0.1683 -2.4459
  103OSM   C12S10428   0.164   5.001   9.426 -0.2331 -0.4128  0.7994
  103OSM   H12S10429   0.062   5.038   9.400  0.1295  0.3818  0.4851
  103OSM   H12T10430   0.161   4.890   9.422 -0.7091 -0.3853  0.0176
  103OSM   C13S10431   0.251   5.045   9.304  1.2284  0.5935  0.4438
  103OSM   H13S10432   0.320   4.961   9.281 -1.8606 -2.8154  2.5156
  103OSM   H13T10433   0.314   5.133   9.328  2.6065 -0.2886  0.1729
  103OSM   C14S10434   0.159   5.070   9.178  0.1508 -0.1745 -0.3771
  103OSM   H14S10435   0.082   5.144   9.211  0.0611 -0.1638 -0.6100
  103OSM   H14T10436   0.099   4.981   9.150 -1.6245  0.0774  2.2170
  103OSM   C15S10437   0.243   5.126   9.057  0.1468  0.0131 -0.2953
  103OSM   H15S10438   0.327   5.054   9.043  0.0958 -0.1404  0.1928
  103OSM   H15T10439   0.287   5.223   9.090 -0.7241  0.7973 -1.3405
  103OSM   C16S10440   0.159   5.135   8.927 -0.0292  0.4248  0.0691
  103OSM   H16S10441   0.113   5.036   8.908  0.2317  0.3557 -0.2100
  103OSM   H16T10442   0.225   5.152   8.839  0.8368 -0.7367  0.4729
  103OSM   C17S10443   0.048   5.244   8.927  0.5220 -0.1385  0.1501
  103OSM   H17S10444   0.098   5.337   8.962  0.5831 -0.4851  1.0058
  103OSM   H17T10445  -0.025   5.239   9.010 -1.0566  0.5285 -1.1447
  103OSM   C18S10446  -0.020   5.269   8.790  0.6369 -0.0926 -0.0242
  103OSM   H18S10447  -0.095   5.350   8.793  2.8725  2.0566  0.8733
  103OSM   H18T10448  -0.082   5.178   8.771  1.1342 -0.0958 -1.8846
  103OSM   H18U10449   0.046   5.277   8.701 -0.7091  0.3971 -1.0128
  103OSM    C1F10450   0.728   4.873  10.329 -0.1847 -0.3353  0.2981
  103OSM     OF10451   0.721   4.755  10.306  0.2947  0.1840 -0.1307
  103OSM    C2F10452   0.843   4.954  10.305 -0.4663 -0.0902  0.4328
  103OSM    H2F10453   0.923   4.913  10.370  0.2108 -0.9678 -0.9126
  103OSM    H2G10454   0.818   5.061  10.323 -1.3335 -0.4574  1.4555
  103OSM    C3F10455   0.894   4.950  10.156 -0.7498 -0.1022 -0.2936
  103OSM    H3F10456   0.875   4.850  10.112 -3.1064  0.6207 -1.0473
  103OSM    H3G10457   0.999   4.982  10.143 -0.0703 -1.5521  1.1860
  103OSM    C4F10458   0.808   5.035  10.064  0.2449  0.4187 -0.0771
  103OSM    H4F10459   0.848   5.137  10.083  2.3368 -0.6012  1.3355
  103OSM    H4G10460   0.700   5.019  10.088  0.4884 -2.1033 -0.4720
  103OSM    C5F10461   0.829   4.999   9.915 -0.0102 -0.0856 -1.0121
  103OSM    H5F10462   0.780   4.901   9.900  1.4055 -0.9468 -0.2957
  103OSM    H5G10463   0.939   4.991   9.902 -0.0795 -1.1371 -1.0243
  103OSM    C6F10464   0.782   5.106   9.818  0.2108  0.1069 -0.1149
  103OSM    H6F10465   0.819   5.204   9.857 -2.3015  0.7815  0.7171
  103OSM    H6G10466   0.673   5.124   9.813 -0.0958 -1.3628  0.7681
  103OSM    C7F10467   0.825   5.099   9.677  0.3369  0.1943 -0.1493
  103OSM    H7F10468   0.934   5.122   9.680 -0.3552  4.1257  2.1015
  103OSM    H7G10469   0.770   5.168   9.609 -2.2040 -2.0655 -0.5362
  103OSM    C8F10470   0.797   4.964   9.610 -0.3953  0.0451  0.2492
  103OSM    H8F10471   0.813   4.875   9.675  1.4298  0.9147  1.0836
  103OSM    H8G10472   0.870   4.962   9.527  1.2760  1.7552  1.5876
  103OSM    C9F10473   0.659   4.952   9.556  0.9629 -0.7899 -0.8738
  103OSM    H9F10474   0.574   4.941   9.624  0.0805 -1.9790 -2.1088
  103OSM   C10F10475   0.616   4.976   9.433  0.2746 -0.1698 -0.1433
  103OSM   H10F10476   0.507   4.978   9.419  0.2654 -0.8055 -0.2021
  103OSM   C11F10477   0.690   5.016   9.311 -0.5812  0.5063  0.0239
  103OSM   H11F10478   0.694   4.924   9.250 -2.1092 -0.9522  2.0036
  103OSM   H11G10479   0.799   5.032   9.324 -0.4779 -0.6997  0.7046
  103OSM   C12F10480   0.620   5.131   9.243  0.2415 -0.5015 -0.0036
  103OSM   H12F10481   0.604   5.218   9.310 -1.8515 -2.1135  1.7387
  103OSM   H12G10482   0.511   5.114   9.226 -0.2898  2.6726 -0.3228
  103OSM   C13F10483   0.684   5.174   9.118 -0.6166  0.1031 -0.1603
  103OSM   H13F10484   0.781   5.223   9.144 -0.2700  0.3675 -1.7959
  103OSM   H13G10485   0.627   5.259   9.076 -1.6893 -0.2387  0.5707
  103OSM   C14F10486   0.719   5.064   9.006  0.3588 -0.7603  0.2429
  103OSM   H14F10487   0.777   4.976   9.042  3.0975  1.1515  0.8051
  103OSM   H14G10488   0.774   5.112   8.922 -2.0506  0.3133 -0.8261
  103OSM   C15F10489   0.600   5.008   8.926 -0.1138  0.2798  0.9619
  103OSM   H15F10490   0.512   5.076   8.919  0.6046  1.1862  0.4433
  103OSM   H15G10491   0.556   4.923   8.982 -0.2300  0.2280  0.7936
  103OSM   C16F10492   0.634   4.955   8.781 -0.0950 -0.3125 -0.5233
  103OSM   H16F10493   0.667   4.849   8.794  3.0167  0.7644  1.7236
  103OSM   H16G10494   0.725   5.003   8.738  0.8660 -0.3444  1.3692
  103OSM   C17F10495   0.509   4.968   8.695 -0.4406  0.1231  0.9722
  103OSM   H17F10496   0.479   5.075   8.698  0.8165  0.4677  2.6187
  103OSM   H17G10497   0.428   4.909   8.744 -0.2192 -0.6086  0.4644
  103OSM   C18F10498   0.530   4.925   8.551  0.9132  0.1916  0.3461
  103OSM   H18F10499   0.431   4.924   8.501 -0.0360  2.1670  2.0756
  103OSM   H18G10500   0.565   4.819   8.556  0.0667 -0.0348  2.2160
  103OSM   H18H10501   0.596   4.990   8.489  1.9582  0.5989  1.8307
  104OSM      N10502   2.121   4.870  10.880  0.3045 -0.0480  0.2777
  104OSM    C1510503   2.082   4.756  10.963 -0.0634  0.3819  0.2365
  104OSM   H15A10504   1.986   4.713  10.944 -1.0923  2.6052  0.0356
  104OSM   H15B10505   2.068   4.794  11.063 -1.3446 -1.6474  0.8723
  104OSM   H15C10506   2.161   4.682  10.958  0.9617  1.5048 -3.2640
  104OSM    C1410507   2.035   4.981  10.901 -0.0308 -0.5231 -0.2207
  104OSM   H14A10508   2.049   5.010  11.004 -2.1394  1.1695 -0.3194
  104OSM   H14B10509   1.933   4.948  10.893 -0.8963  1.8498  0.1217
  104OSM   H14C10510   2.059   5.068  10.841  2.1276 -0.2652  0.9029
  104OSM    C1310511   2.264   4.919  10.912 -0.5278  0.3438  0.6473
  104OSM   H13A10512   2.282   5.005  10.849  0.1524  0.8161  1.4749
  104OSM   H13B10513   2.331   4.834  10.912 -3.4963 -2.2213  0.2002
  104OSM   H13C10514   2.263   4.959  11.012 -0.2228  1.2946  0.2768
  104OSM    C1210515   2.123   4.826  10.734  0.3077 -0.1495 -0.2126
  104OSM   H12A10516   2.205   4.757  10.720  1.4016  0.9595  0.5289
  104OSM   H12B10517   2.149   4.908  10.670  1.4428 -0.9557 -0.8315
  104OSM    C1110518   2.001   4.748  10.671 -0.2213 -0.3441  0.0092
  104OSM   H11A10519   2.014   4.757  10.562  0.3665  4.7392  0.2778
  104OSM   H11B10520   1.919   4.823  10.679  0.5582  0.8972 -2.7084
  104OSM      P10521   2.053   4.491  10.692 -0.2323  0.0484  0.5847
  104OSM    O1310522   2.179   4.503  10.767  0.1334 -0.4008  0.1196
  104OSM    O1410523   1.970   4.369  10.718 -0.5090  0.4538  0.5216
  104OSM    O1110524   2.081   4.499  10.543  0.4914  0.3004  0.0511
  104OSM    O1210525   1.961   4.617  10.715 -0.8116  0.2986  0.4892
  104OSM    C1S10526   1.990   4.434  10.447 -0.4342  0.0763  0.3130
  104OSM    H1S10527   1.885   4.469  10.455 -0.0485  1.1040  1.0875
  104OSM    H1T10528   1.998   4.323  10.448  0.2448  0.0590 -1.6673
  104OSM     NF10529   1.962   4.379  10.202 -0.1406  0.0563  0.3955
  104OSM    HNF10530   2.002   4.314  10.138 -1.6284  0.2269 -0.7739
  104OSM    C2S10531   2.042   4.466  10.293  0.4468 -0.0345 -0.6094
  104OSM    H2S10532   2.029   4.574  10.268 -0.0507 -0.2923 -1.4909
  104OSM    C3S10533   2.187   4.443  10.284  0.2108  0.4689 -0.1845
  104OSM    H3S10534   2.207   4.334  10.292  0.7797  0.5640 -0.3221
  104OSM     O310535   2.267   4.494  10.388 -0.4051 -0.4071 -0.0125
  104OSM    HO310536   2.201   4.500  10.458  0.5029 -1.4238  0.9886
  104OSM    C4S10537   2.244   4.491  10.152 -0.0013  0.1646  0.3938
  104OSM    H4S10538   2.234   4.599  10.132 -0.1402  0.1224  0.2382
  104OSM    C5S10539   2.319   4.413  10.078  0.4636  0.2869  1.1266
  104OSM    H5S10540   2.337   4.315  10.124 -0.9307  0.3708  1.9038
  104OSM    C6S10541   2.386   4.454   9.944  0.5127 -0.1908 -0.6526
  104OSM    H6S10542   2.477   4.390   9.934  0.9383  0.0266  1.4631
  104OSM    H6T10543   2.433   4.555   9.948 -0.7431  0.3952 -0.3675
  104OSM    C7S10544   2.299   4.445   9.822 -0.3660  0.5466 -0.1418
  104OSM    H7S10545   2.221   4.524   9.814 -0.6316  0.1563 -1.7210
  104OSM    H7T10546   2.252   4.344   9.823 -1.2898  0.9353 -1.7843
  104OSM    C8S10547   2.379   4.444   9.696  0.0378 -0.4323  0.7808
  104OSM    H8S10548   2.461   4.370   9.700  0.5120 -0.3706 -3.3241
  104OSM    H8T10549   2.418   4.548   9.691  0.1396 -0.5051  0.0087
  104OSM    C9S10550   2.285   4.417   9.583  0.1508 -0.4363  0.0185
  104OSM    H9S10551   2.215   4.503   9.571  1.5152  0.4128 -2.6036
  104OSM    H9T10552   2.228   4.322   9.590  0.8537 -0.8486  0.2259
  104OSM   C10S10553   2.349   4.429   9.443  0.3205 -0.1613  0.2639
  104OSM   H10S10554   2.428   4.350   9.442  0.9901  0.4384  1.8380
  104OSM   H10T10555   2.401   4.524   9.416  0.5730  0.4652  2.7129
  104OSM   C11S10556   2.241   4.399   9.333  0.3466 -0.0077  0.3156
  104OSM   H11S10557   2.161   4.475   9.332  0.5202  0.1949 -1.5883
  104OSM   H11T10558   2.193   4.303   9.362  0.3117  0.0739  0.5310
  104OSM   C12S10559   2.300   4.392   9.184 -0.2964 -0.8525 -0.4027
  104OSM   H12S10560   2.211   4.395   9.117 -0.2375  1.4410 -0.4442
  104OSM   H12T10561   2.355   4.296   9.171 -2.9634 -2.6425  0.5399
  104OSM   C13S10562   2.386   4.516   9.146  0.1214 -0.4741 -0.0179
  104OSM   H13S10563   2.464   4.534   9.223 -1.4351  0.4500  1.3914
  104OSM   H13T10564   2.316   4.599   9.167  2.3808  1.0204  2.1270
  104OSM   C14S10565   2.433   4.507   9.000 -0.3185  0.4953 -0.2545
  104OSM   H14S10566   2.439   4.398   8.981 -1.0498  0.7029 -1.9241
  104OSM   H14T10567   2.535   4.546   8.983  0.6278 -2.0996 -0.9408
  104OSM   C15S10568   2.337   4.559   8.893  0.2662  0.1671  0.7990
  104OSM   H15S10569   2.315   4.666   8.912 -0.2535 -0.0363  1.3914
  104OSM   H15T10570   2.238   4.509   8.887 -0.2194  1.2419 -0.8172
  104OSM   C16S10571   2.399   4.547   8.756  0.5995 -0.4723 -0.8245
  104OSM   H16S10572   2.431   4.443   8.735  1.7170 -0.1497 -0.7853
  104OSM   H16T10573   2.482   4.621   8.745  1.4355 -0.1574  4.8846
  104OSM   C17S10574   2.284   4.575   8.652 -0.2577 -0.8638  0.3208
  104OSM   H17S10575   2.248   4.676   8.681  2.5137 -0.2442  1.9587
  104OSM   H17T10576   2.210   4.493   8.657 -0.0059 -1.0665  0.7599
  104OSM   C18S10577   2.351   4.578   8.516 -0.1148  0.2442 -0.7313
  104OSM   H18S10578   2.440   4.644   8.507 -0.3658  0.4116 -2.4683
  104OSM   H18T10579   2.287   4.623   8.436 -0.2756 -0.5011 -1.0255
  104OSM   H18U10580   2.380   4.478   8.477  0.5814 -0.4793  1.5062
  104OSM    C1F10581   1.831   4.389  10.172 -0.8333 -0.3540 -0.1323
  104OSM     OF10582   1.762   4.472  10.234 -0.1857  0.1968 -0.0940
  104OSM    C2F10583   1.775   4.292  10.075 -0.3026 -0.9524  0.0504
  104OSM    H2F10584   1.768   4.194  10.127 -0.2753 -0.5921  0.7323
  104OSM    H2G10585   1.842   4.273   9.988 -0.7916  1.8593 -1.0312
  104OSM    C3F10586   1.636   4.335  10.023 -0.2842 -0.1545 -0.0438
  104OSM    H3F10587   1.570   4.368  10.105 -1.2668 -0.9893 -0.4874
  104OSM    H3G10588   1.602   4.239   9.978 -0.7654  0.2339 -0.5230
  104OSM    C4F10589   1.642   4.435   9.907 -0.0701 -0.1575  0.1196
  104OSM    H4F10590   1.697   4.529   9.930 -0.0793 -0.1668  0.1811
  104OSM    H4G10591   1.538   4.472   9.894  0.4637  2.3624  2.1181
  104OSM    C5F10592   1.698   4.378   9.772 -0.4280  0.4853  0.3481
  104OSM    H5F10593   1.683   4.270   9.792 -0.9796  0.4936  0.0081
  104OSM    H5G10594   1.807   4.392   9.760 -0.3008 -0.4095  0.3978
  104OSM    C6F10595   1.638   4.435   9.646  0.1409  0.0218 -0.0843
  104OSM    H6F10596   1.656   4.542   9.621 -0.0299 -0.1857 -1.1211
  104OSM    H6G10597   1.527   4.432   9.653  0.1206 -1.8048 -0.6704
  104OSM    C7F10598   1.680   4.344   9.536 -0.4997 -0.6434  0.1727
  104OSM    H7F10599   1.629   4.246   9.535  0.4846 -1.1826 -1.7123
  104OSM    H7G10600   1.790   4.327   9.534 -0.0369  1.5999  1.6868
  104OSM    C8F10601   1.638   4.401   9.400  0.0389  0.6111 -0.3267
  104OSM    H8F10602   1.659   4.509   9.387  0.3451  0.5582 -0.2950
  104OSM    H8G10603   1.528   4.396   9.392  0.2070 -0.8547 -2.9069
  104OSM    C9F10604   1.719   4.331   9.285 -0.5106 -0.0259  0.1417
  104OSM    H9F10605   1.707   4.222   9.289 -2.5568  0.0457 -1.8144
  104OSM   C10F10606   1.807   4.390   9.204 -0.0706  0.7373 -0.1850
  104OSM   H10F10607   1.850   4.322   9.128 -0.1557  1.2785 -0.7264
  104OSM   C11F10608   1.844   4.537   9.210  0.4260  0.4420 -0.0592
  104OSM   H11F10609   1.922   4.562   9.284  0.6510 -0.5446  0.0456
  104OSM   H11G10610   1.755   4.601   9.233  1.9403  2.5142  0.2840
  104OSM   C12F10611   1.871   4.582   9.068 -0.2459  0.5027  1.0067
  104OSM   H12F10612   1.803   4.528   8.998  0.8968  0.2315  0.0733
  104OSM   H12G10613   1.977   4.553   9.054 -0.4255  0.5361 -0.6545
  104OSM   C13F10614   1.854   4.734   9.046  0.5027 -0.3167  0.4758
  104OSM   H13F10615   1.906   4.772   9.136 -0.1975 -1.8676  1.5630
  104OSM   H13G10616   1.747   4.762   9.047  0.3969 -0.6605 -0.3598
  104OSM   C14F10617   1.925   4.787   8.923 -0.4554 -0.5091  0.8550
  104OSM   H14F10618   2.020   4.729   8.913  0.0041  0.6835 -3.0922
  104OSM   H14G10619   1.960   4.893   8.931  0.1022 -0.6144 -0.1009
  104OSM   C15F10620   1.853   4.766   8.793  0.3819 -0.9500  0.6362
  104OSM   H15F10621   1.811   4.663   8.793  2.7541 -2.0054 -0.0125
  104OSM   H15G10622   1.924   4.761   8.708  0.0968 -1.1470  0.4116
  104OSM   C16F10623   1.751   4.877   8.760 -0.9068  0.0534 -0.0120
  104OSM   H16F10624   1.799   4.975   8.775  4.2383 -2.0288 -0.7748
  104OSM   H16G10625   1.652   4.868   8.810 -0.3426 -0.9764  0.9591
  104OSM   C17F10626   1.722   4.856   8.610 -0.4002  0.6143  0.2870
  104OSM   H17F10627   1.679   4.757   8.585  1.5722 -0.4341  0.9021
  104OSM   H17G10628   1.821   4.871   8.563 -0.7730  0.1874 -0.6494
  104OSM   C18F10629   1.633   4.963   8.562 -0.0811  0.8893  0.3858
  104OSM   H18F10630   1.541   4.965   8.624 -1.5345 -3.5797 -1.2030
  104OSM   H18G10631   1.611   4.939   8.456 -0.2354  0.5559  0.4905
  104OSM   H18H10632   1.685   5.060   8.548  0.7585  0.4322  0.2760
  105OSM      N10633   5.560   1.264  11.117  0.3016  0.2889  0.0543
  105OSM    C1510634   5.667   1.189  11.195 -0.1846 -0.5414 -0.9750
  105OSM   H15A10635   5.646   1.083  11.195 -0.1876 -0.6108  1.8846
  105OSM   H15B10636   5.667   1.217  11.299 -1.8892 -2.6773 -0.3319
  105OSM   H15C10637   5.762   1.215  11.150 -0.0890  0.1555 -0.3868
  105OSM    C1410638   5.432   1.242  11.194 -0.8245 -0.1154  0.2994
  105OSM   H14A10639   5.460   1.243  11.298 -3.0530 -0.0736  0.9544
  105OSM   H14B10640   5.388   1.145  11.175 -0.7739  0.0051 -0.4555
  105OSM   H14C10641   5.361   1.324  11.189 -0.5945  0.1657  1.4583
  105OSM    C1310642   5.588   1.409  11.120  0.1858  0.1015 -0.1903
  105OSM   H13A10643   5.689   1.438  11.095 -0.0970 -0.0300 -1.5386
  105OSM   H13B10644   5.562   1.451  11.216 -0.2636  0.7754 -0.5994
  105OSM   H13C10645   5.538   1.459  11.039 -1.2796 -1.5774 -0.3666
  105OSM    C1210646   5.552   1.213  10.980 -0.9542 -0.2370 -0.5649
  105OSM   H12A10647   5.650   1.218  10.934 -0.6817  0.3314  0.0694
  105OSM   H12B10648   5.481   1.275  10.929 -1.6260  0.8075  1.5476
  105OSM    C1110649   5.510   1.065  10.957  0.3558  0.5962  0.0927
  105OSM   H11A10650   5.570   0.996  11.019  2.0411  2.5364  0.7652
  105OSM   H11B10651   5.526   1.043  10.849 -1.9467  0.5539 -0.2932
  105OSM      P10652   5.252   1.062  10.877 -0.0423 -0.0888 -0.0811
  105OSM    O1310653   5.152   0.953  10.905 -0.3856 -0.2327 -0.3099
  105OSM    O1410654   5.203   1.198  10.876 -0.2849 -0.1380 -0.1484
  105OSM    O1110655   5.319   1.022  10.741  0.2567 -1.1048  0.7367
  105OSM    O1210656   5.373   1.046  10.976  0.4093  0.2794 -0.1335
  105OSM    C1S10657   5.245   1.049  10.623  0.3102  0.2363  0.2626
  105OSM    H1S10658   5.243   1.159  10.603 -2.4751  0.0316 -0.9418
  105OSM    H1T10659   5.142   1.008  10.633  0.7777 -1.0852 -0.1449
  105OSM     NF10660   5.227   1.004  10.386  0.1176 -0.7995  0.6775
  105OSM    HNF10661   5.166   0.937  10.343 -1.7272  1.1973  0.0112
  105OSM    C2S10662   5.305   0.967  10.502  0.1419 -0.0108 -0.5912
  105OSM    H2S10663   5.405   1.012  10.487  0.4772 -0.7572 -0.6428
  105OSM    C3S10664   5.317   0.810  10.533  0.1721 -0.2869  0.0849
  105OSM    H3S10665   5.213   0.773  10.540 -0.5350  1.1189 -1.9632
  105OSM     O310666   5.384   0.780  10.658 -0.3403  1.0774  0.1090
  105OSM    HO310667   5.392   0.869  10.692  0.6789  0.6506  1.0713
  105OSM    C4S10668   5.387   0.751  10.416  0.1380 -0.6237 -0.3361
  105OSM    H4S10669   5.496   0.752  10.421  0.1321 -1.8457  0.3981
  105OSM    C5S10670   5.330   0.677  10.319  0.6193  0.1854  0.0906
  105OSM    H5S10671   5.221   0.664  10.320  0.7234 -0.7509 -0.0334
  105OSM    C6S10672   5.386   0.604  10.196  0.3248 -0.3233 -0.4286
  105OSM    H6S10673   5.389   0.494  10.215  0.4018 -0.3352 -0.5093
  105OSM    H6T10674   5.492   0.635  10.182  0.7640 -1.9289 -0.8907
  105OSM    C7S10675   5.307   0.637  10.069  0.4533  0.1556  0.5640
  105OSM    H7S10676   5.288   0.743  10.042 -0.5570 -0.6931 -2.3303
  105OSM    H7T10677   5.206   0.592  10.072  0.9564 -1.1500 -0.8373
  105OSM    C8S10678   5.380   0.564   9.955 -0.2562 -0.3113  0.1229
  105OSM    H8S10679   5.399   0.467  10.005 -1.3502  0.0014  1.2221
  105OSM    H8T10680   5.472   0.621   9.933 -0.8764  0.5711 -0.2757
  105OSM    C9S10681   5.280   0.529   9.837  0.1644 -1.0283 -0.2595
  105OSM    H9S10682   5.231   0.618   9.794  0.0728 -1.9110 -2.0668
  105OSM    H9T10683   5.195   0.464   9.867 -0.8743  0.5234  0.2858
  105OSM   C10S10684   5.350   0.447   9.725  0.3392  0.2287 -1.2246
  105OSM   H10S10685   5.393   0.361   9.779 -2.7956 -0.0606  1.0290
  105OSM   H10T10686   5.428   0.511   9.678  1.6122 -0.2251  0.2004
  105OSM   C11S10687   5.253   0.400   9.613 -0.6233  0.3796  0.1564
  105OSM   H11S10688   5.196   0.493   9.590  0.2968  0.9489  0.1168
  105OSM   H11T10689   5.187   0.321   9.655  0.4254  0.2372  1.5657
  105OSM   C12S10690   5.319   0.324   9.503  0.0467 -0.2134  0.5725
  105OSM   H12S10691   5.381   0.239   9.538  0.4132  0.2160  0.9687
  105OSM   H12T10692   5.380   0.384   9.433  0.9953  0.2371  1.7680
  105OSM   C13S10693   5.210   0.262   9.406 -0.5289  0.1472 -0.1660
  105OSM   H13S10694   5.151   0.349   9.369  0.5876  1.4872  1.0391
  105OSM   H13T10695   5.147   0.191   9.463  0.1904 -1.4451 -1.2822
  105OSM   C14S10696   5.280   0.180   9.298 -0.0424  0.7875  0.0651
  105OSM   H14S10697   5.215   0.099   9.257  1.9103 -0.6217 -0.4232
  105OSM   H14T10698   5.372   0.130   9.335  0.8132  2.0277 -0.3250
  105OSM   C15S10699   5.304   0.268   9.174  0.3712  0.5900  0.9498
  105OSM   H15S10700   5.362   0.360   9.197  2.0386 -0.1660  0.0004
  105OSM   H15T10701   5.199   0.292   9.149 -0.4203 -1.4396  2.1143
  105OSM   C16S10702   5.368   0.189   9.064 -0.1779 -0.5534  0.6571
  105OSM   H16S10703   5.307   0.100   9.036 -2.6727  1.4719 -0.8269
  105OSM   H16T10704   5.463   0.144   9.101 -2.1541 -4.2572  1.7168
  105OSM   C17S10705   5.403   0.275   8.941 -0.6094  0.4539 -0.2450
  105OSM   H17S10706   5.460   0.364   8.975 -1.5867  0.5746  1.1574
  105OSM   H17T10707   5.308   0.306   8.893 -2.2559 -0.9030  1.9704
  105OSM   C18S10708   5.490   0.200   8.838  0.6727  0.1832  0.3918
  105OSM   H18S10709   5.509   0.266   8.750  2.0129  0.6529  1.0084
  105OSM   H18T10710   5.436   0.110   8.800 -0.0261  1.1579 -1.0193
  105OSM   H18U10711   5.586   0.158   8.875  0.0381 -0.5127  1.3093
  105OSM    C1F10712   5.223   1.130  10.325  0.0140  0.2994 -0.0179
  105OSM     OF10713   5.300   1.218  10.369  0.3142 -0.3065 -0.4282
  105OSM    C2F10714   5.141   1.147  10.205  0.6699  0.4897  0.5962
  105OSM    H2F10715   5.034   1.131  10.232  0.8704  1.3869  2.0090
  105OSM    H2G10716   5.177   1.078  10.126  0.3244  1.8545 -0.8029
  105OSM    C3F10717   5.154   1.295  10.170 -0.4467 -0.4015 -1.0901
  105OSM    H3F10718   5.260   1.315  10.146 -0.3970 -0.9973 -1.3745
  105OSM    H3G10719   5.117   1.359  10.254  2.6246  2.0250 -1.3978
  105OSM    C4F10720   5.061   1.334  10.061 -0.5167 -0.3075 -0.7414
  105OSM    H4F10721   5.077   1.442  10.039  1.9558 -0.5722 -0.5474
  105OSM    H4G10722   4.956   1.327  10.098 -0.0880 -1.8100  0.3112
  105OSM    C5F10723   5.086   1.255   9.928 -0.3219  0.2658 -0.7346
  105OSM    H5F10724   5.060   1.148   9.941  1.1338 -0.0456 -0.1988
  105OSM    H5G10725   5.189   1.274   9.892 -0.8034  0.3047 -2.1750
  105OSM    C6F10726   5.006   1.306   9.806  0.0652 -0.1005  0.1064
  105OSM    H6F10727   5.035   1.412   9.788  3.0218 -0.9355 -0.6469
  105OSM    H6G10728   4.899   1.295   9.833 -0.2822  1.3054 -0.5954
  105OSM    C7F10729   5.028   1.220   9.680 -0.5898  0.7149  0.3555
  105OSM    H7F10730   5.033   1.115   9.715  1.1318  0.0003 -1.7975
  105OSM    H7G10731   5.131   1.244   9.645 -1.2022  1.3767 -1.0922
  105OSM    C8F10732   4.918   1.219   9.577  0.3248  0.5127  0.0090
  105OSM    H8F10733   4.821   1.207   9.630  0.3150  0.4002 -0.0350
  105OSM    H8G10734   4.928   1.131   9.510 -1.7230 -1.5885  2.2381
  105OSM    C9F10735   4.905   1.351   9.504 -0.6413 -0.2287  0.2688
  105OSM    H9F10736   4.926   1.441   9.563  0.9564 -1.2015  1.2588
  105OSM   C10F10737   4.878   1.356   9.372 -0.4973 -0.5477 -1.0899
  105OSM   H10F10738   4.874   1.458   9.331  0.2561  0.1596  0.5110
  105OSM   C11F10739   4.832   1.252   9.272  0.0381 -0.4364 -0.5424
  105OSM   H11F10740   4.732   1.289   9.241 -0.4770 -0.0933  1.4023
  105OSM   H11G10741   4.803   1.162   9.331 -0.7026  0.7365  0.9501
  105OSM   C12F10742   4.924   1.228   9.148 -0.3463  0.5665  0.1695
  105OSM   H12F10743   4.950   1.325   9.100  1.7271 -0.7413 -1.4577
  105OSM   H12G10744   4.854   1.171   9.083  0.2970 -1.8683  1.5329
  105OSM   C13F10745   5.052   1.150   9.177 -0.6659 -0.2032  0.0387
  105OSM   H13F10746   5.026   1.047   9.207  2.9499 -1.6971 -1.3926
  105OSM   H13G10747   5.100   1.201   9.263  0.2575 -1.1992  0.1312
  105OSM   C14F10748   5.155   1.150   9.059 -0.1568 -0.0589 -0.4392
  105OSM   H14F10749   5.260   1.136   9.095  0.3277  1.1892 -1.2750
  105OSM   H14G10750   5.155   1.254   9.021  0.9477 -0.1941 -0.8473
  105OSM   C15F10751   5.137   1.048   8.952  0.1360 -0.3294 -0.2192
  105OSM   H15F10752   5.040   1.074   8.905  0.7002  2.7038  0.0743
  105OSM   H15G10753   5.123   0.948   8.997 -1.5679 -0.4923 -1.0388
  105OSM   C16F10754   5.254   1.046   8.850 -0.1637  0.1109  0.1465
  105OSM   H16F10755   5.347   1.014   8.902 -0.4740 -1.8454 -0.3934
  105OSM   H16G10756   5.272   1.147   8.808 -1.7661  1.5104  2.5230
  105OSM   C17F10757   5.228   0.964   8.726 -0.4816 -0.2041  0.2867
  105OSM   H17F10758   5.126   0.990   8.690 -1.2893 -1.0193  1.8763
  105OSM   H17G10759   5.223   0.855   8.749 -0.6650 -0.7820 -2.2513
  105OSM   C18F10760   5.330   0.995   8.613  0.9505 -0.5992 -0.5364
  105OSM   H18F10761   5.356   1.103   8.609 -0.5187 -0.1886  0.3321
  105OSM   H18G10762   5.272   0.987   8.518  0.0047  0.7042 -0.0979
  105OSM   H18H10763   5.417   0.926   8.616  1.2073 -0.2513 -0.0680
  106OSM      N10764   4.566   1.365  10.786 -0.4321 -0.2818 -0.6378
  106OSM    C1510765   4.571   1.260  10.894  0.0007 -0.2042  0.1055
  106OSM   H15A10766   4.614   1.169  10.854 -1.0767  0.5747 -3.1690
  106OSM   H15B10767   4.470   1.231  10.919  0.2835  1.0578  3.1430
  106OSM   H15C10768   4.628   1.300  10.976 -0.2459 -0.1697  0.2606
  106OSM    C1410769   4.495   1.488  10.835 -0.4588  0.0676  0.1497
  106OSM   H14A10770   4.554   1.552  10.899 -3.3699  2.6094  0.5119
  106OSM   H14B10771   4.410   1.480  10.900 -1.7197  0.4096 -1.4127
  106OSM   H14C10772   4.451   1.544  10.754  0.1724 -0.2082 -0.3915
  106OSM    C1310773   4.705   1.410  10.753  0.1548 -0.7963 -0.1682
  106OSM   H13A10774   4.769   1.348  10.692  1.3614 -0.4396  0.7025
  106OSM   H13B10775   4.752   1.434  10.847 -1.3054  0.6256  0.2609
  106OSM   H13C10776   4.701   1.501  10.695  1.9223 -1.1985 -0.9812
  106OSM    C1210777   4.497   1.300  10.666 -0.3488 -0.2973  0.3592
  106OSM   H12A10778   4.484   1.382  10.597  1.4498  0.4669  0.8802
  106OSM   H12B10779   4.401   1.265  10.701 -0.0385 -1.9652 -0.3368
  106OSM    C1110780   4.581   1.184  10.598  0.4241  0.1243 -0.6362
  106OSM   H11A10781   4.681   1.217  10.562  2.6106 -4.8268  0.0788
  106OSM   H11B10782   4.516   1.156  10.512 -1.1680  0.4212  0.4303
  106OSM      P10783   4.722   0.979  10.684 -0.2136  0.5736  0.1841
  106OSM    O1310784   4.834   1.057  10.727  0.6750  0.5046  0.0133
  106OSM    O1410785   4.689   0.855  10.763  0.4708  0.3473  0.0515
  106OSM    O1110786   4.726   0.946  10.531  0.3714  0.2385  0.0626
  106OSM    O1210787   4.590   1.073  10.693 -0.4948 -0.1236 -0.0279
  106OSM    C1S10788   4.630   0.867  10.458  0.6283 -0.3181 -1.0144
  106OSM    H1S10789   4.532   0.918  10.466  0.8672 -0.2318  3.1154
  106OSM    H1T10790   4.621   0.761  10.490 -0.0468 -0.4224 -1.5435
  106OSM     NF10791   4.575   0.766  10.249  0.5093  0.8694  0.1119
  106OSM    HNF10792   4.598   0.669  10.246 -1.7805  0.2784 -0.2808
  106OSM    C2S10793   4.673   0.855  10.309  0.4698 -0.0121 -0.5977
  106OSM    H2S10794   4.666   0.953  10.256  1.1525  1.5637  2.0154
  106OSM    C3S10795   4.823   0.809  10.297 -0.7249 -0.4082  0.4230
  106OSM    H3S10796   4.836   0.705  10.332  1.7566 -0.5032 -0.5795
  106OSM     O310797   4.924   0.876  10.367 -0.2936  0.7615 -0.7090
  106OSM    HO310798   4.884   0.890  10.453  3.0290  2.2413  0.7859
  106OSM    C4S10799   4.860   0.795  10.150 -0.5095  0.3396 -0.2249
  106OSM    H4S10800   4.810   0.716  10.093  1.9172 -2.1408  0.8278
  106OSM    C5S10801   4.938   0.883  10.080  0.5332  0.0213  0.3111
  106OSM    H5S10802   4.962   0.980  10.126 -0.2279  0.0423  0.6748
  106OSM    C6S10803   4.963   0.885   9.931  0.0062 -0.4320 -0.2121
  106OSM    H6S10804   5.072   0.901   9.917  0.3986 -0.0389  2.7187
  106OSM    H6T10805   4.921   0.975   9.881 -0.0709 -1.9409 -3.1173
  106OSM    C7S10806   4.941   0.760   9.844 -0.8808  0.0548 -0.3685
  106OSM    H7S10807   4.834   0.731   9.852 -0.5683 -0.7892  0.9328
  106OSM    H7T10808   5.003   0.673   9.873 -2.7837 -0.4709  2.5046
  106OSM    C8S10809   4.966   0.784   9.692 -0.7609 -0.4579 -0.3804
  106OSM    H8S10810   5.075   0.789   9.671 -0.6701  1.0048  0.3245
  106OSM    H8T10811   4.933   0.888   9.669 -0.1459 -0.4892 -1.4500
  106OSM    C9S10812   4.889   0.682   9.613 -0.1969 -0.0528  0.9681
  106OSM    H9S10813   4.781   0.683   9.640 -0.4972 -1.1358 -0.0818
  106OSM    H9T10814   4.941   0.585   9.630 -0.4233 -0.4410 -0.4335
  106OSM   C10S10815   4.921   0.701   9.468  0.0844 -0.4890 -0.0310
  106OSM   H10S10816   5.027   0.733   9.462 -0.2083  0.5169  0.0245
  106OSM   H10T10817   4.864   0.783   9.420  0.6819 -0.9126 -1.5196
  106OSM   C11S10818   4.905   0.572   9.390 -1.1091 -0.2249  0.3988
  106OSM   H11S10819   4.812   0.523   9.426 -1.9546  2.5125  2.2259
  106OSM   H11T10820   4.986   0.501   9.417 -0.2814  0.2528 -0.7547
  106OSM   C12S10821   4.885   0.589   9.233 -0.5592  0.5369  0.0698
  106OSM   H12S10822   4.807   0.664   9.207  0.2534  1.5566  0.4801
  106OSM   H12T10823   4.856   0.493   9.185 -1.3891  0.7591  0.1206
  106OSM   C13S10824   5.017   0.634   9.160 -0.2753  0.2156  0.5272
  106OSM   H13S10825   5.103   0.567   9.175  3.1239  3.6170 -1.8766
  106OSM   H13T10826   5.055   0.731   9.200 -1.3155  1.5345 -1.4551
  106OSM   C14S10827   4.999   0.655   9.008  0.4953  0.0408  0.2224
  106OSM   H14S10828   5.080   0.721   8.972  0.7122 -0.1423  0.3681
  106OSM   H14T10829   4.904   0.709   8.991  1.3692  1.2706 -0.8820
  106OSM   C15S10830   4.988   0.522   8.936 -0.2096 -0.2288 -0.7827
  106OSM   H15S10831   4.910   0.461   8.986  2.1707 -1.9477  1.0808
  106OSM   H15T10832   5.082   0.469   8.962 -0.3640 -0.4719 -0.7161
  106OSM   C16S10833   4.965   0.531   8.786  0.4067  0.1708 -0.4241
  106OSM   H16S10834   5.054   0.576   8.736  0.5566 -0.3774 -0.6567
  106OSM   H16T10835   4.873   0.588   8.763 -0.4866 -0.9380  0.2556
  106OSM   C17S10836   4.941   0.393   8.720  0.8227  0.0211 -0.1414
  106OSM   H17S10837   4.850   0.347   8.763  0.9271  1.3249  1.5660
  106OSM   H17T10838   5.017   0.314   8.740 -0.5323 -0.9376  1.4885
  106OSM   C18S10839   4.920   0.391   8.564 -0.0896 -0.1977  0.6629
  106OSM   H18S10840   4.902   0.284   8.540 -3.1044  0.2854  0.4753
  106OSM   H18T10841   5.015   0.432   8.524 -0.6573  0.6336  0.1570
  106OSM   H18U10842   4.842   0.464   8.536 -0.9589 -0.6579  1.7971
  106OSM    C1F10843   4.453   0.799  10.232 -0.0249  0.2869 -0.6551
  106OSM     OF10844   4.419   0.919  10.249 -0.1330  0.4210  0.4354
  106OSM    C2F10845   4.356   0.688  10.209 -0.2703  0.0807 -0.2940
  106OSM    H2F10846   4.259   0.724  10.252 -0.5987  0.2230 -1.1407
  106OSM    H2G10847   4.387   0.597  10.263 -1.3007  0.2472  0.6254
  106OSM    C3F10848   4.340   0.650  10.059  0.1199 -0.3905 -0.5905
  106OSM    H3F10849   4.440   0.640  10.011  0.0862 -0.4878 -0.6409
  106OSM    H3G10850   4.280   0.732  10.015 -1.2832 -0.9513  0.2053
  106OSM    C4F10851   4.268   0.513  10.039 -0.0153  0.3612  0.1735
  106OSM    H4F10852   4.172   0.516  10.096 -1.6797 -0.9099 -2.3934
  106OSM    H4G10853   4.331   0.432  10.082 -0.6922 -0.4973 -0.4289
  106OSM    C5F10854   4.224   0.488   9.893 -0.4260 -0.8817  0.2674
  106OSM    H5F10855   4.150   0.565   9.864 -0.6458 -1.0022  0.4992
  106OSM    H5G10856   4.164   0.395   9.885  1.6135 -2.2684  0.3610
  106OSM    C6F10857   4.330   0.496   9.783 -0.5332  0.1731 -0.0062
  106OSM    H6F10858   4.412   0.424   9.801 -0.4384  0.4281  0.5929
  106OSM    H6G10859   4.379   0.593   9.804  0.7640 -0.7619  1.4197
  106OSM    C7F10860   4.267   0.485   9.646  0.2019  1.2759 -0.4927
  106OSM    H7F10861   4.175   0.545   9.631 -1.5303 -1.2696 -0.7292
  106OSM    H7G10862   4.228   0.383   9.623 -1.0460  2.0666 -2.0529
  106OSM    C8F10863   4.371   0.521   9.536 -0.2068  0.6493 -0.1652
  106OSM    H8F10864   4.401   0.624   9.565 -0.4386  0.1788  1.9001
  106OSM    H8G10865   4.314   0.534   9.441 -0.8195  0.8673  0.2202
  106OSM    C9F10866   4.497   0.440   9.519 -0.6474  0.2337 -0.2799
  106OSM    H9F10867   4.555   0.415   9.609 -0.9925 -2.4691 -0.7155
  106OSM   C10F10868   4.532   0.369   9.408  0.2103  0.2609 -0.3822
  106OSM   H10F10869   4.609   0.290   9.412  0.1077  0.1733 -0.1178
  106OSM   C11F10870   4.464   0.361   9.272  0.3651 -0.7648 -0.7720
  106OSM   H11F10871   4.377   0.430   9.261 -0.0454 -1.2607 -0.6442
  106OSM   H11G10872   4.417   0.265   9.244 -0.9030 -0.8404  1.4062
  106OSM   C12F10873   4.561   0.396   9.163 -0.2209 -0.3790 -0.5888
  106OSM   H12F10874   4.651   0.332   9.172  0.8920  0.9971 -1.4687
  106OSM   H12G10875   4.586   0.504   9.175 -3.3033  0.8365 -3.5259
  106OSM   C13F10876   4.500   0.360   9.024  0.2980 -0.0993 -0.1903
  106OSM   H13F10877   4.389   0.372   9.018  0.4770  1.3730 -1.0956
  106OSM   H13G10878   4.514   0.252   9.005  0.0572  0.4002 -4.0954
  106OSM   C14F10879   4.572   0.432   8.912  0.2723 -0.0260  0.8485
  106OSM   H14F10880   4.680   0.409   8.916 -0.0397 -2.0093 -0.6894
  106OSM   H14G10881   4.551   0.540   8.933 -1.3093 -0.4738  1.7418
  106OSM   C15F10882   4.527   0.400   8.770  0.3455  1.0412  0.7669
  106OSM   H15F10883   4.602   0.449   8.704 -1.9854  1.1853 -1.9876
  106OSM   H15G10884   4.427   0.438   8.739 -0.4324 -1.9271 -0.7672
  106OSM   C16F10885   4.519   0.250   8.736 -0.4197  0.7974  0.3819
  106OSM   H16F10886   4.448   0.189   8.796  0.5450 -0.5189  0.2272
  106OSM   H16G10887   4.620   0.208   8.753 -1.0531 -1.4726 -1.0294
  106OSM   C17F10888   4.485   0.227   8.584 -0.7167 -0.1314 -0.3559
  106OSM   H17F10889   4.549   0.304   8.535  0.2105 -1.0466 -0.6246
  106OSM   H17G10890   4.376   0.243   8.573 -0.6759 -0.0477 -0.6588
  106OSM   C18F10891   4.525   0.085   8.540  0.3827 -0.1559 -0.0953
  106OSM   H18F10892   4.444   0.010   8.556 -0.9819  0.6897 -2.5608
  106OSM   H18G10893   4.620   0.050   8.586  1.2100  0.7213 -1.1148
  106OSM   H18H10894   4.545   0.078   8.431 -0.7990  0.1373 -0.3498
  107OSM      N10895   0.064   3.694  11.070  0.1015  0.0609 -0.1338
  107OSM    C1510896   0.070   3.607  10.951  0.0758 -0.4322 -0.0166
  107OSM   H15A10897   0.072   3.505  10.988  0.6221 -0.5239 -0.2905
  107OSM   H15B10898   0.157   3.614  10.888  1.2173 -3.7918  0.9302
  107OSM   H15C10899  -0.015   3.624  10.887 -0.3421 -0.2572  0.5741
  107OSM    C1410900  -0.047   3.635  11.158  0.4385  0.2902 -0.8201
  107OSM   H14A10901  -0.046   3.687  11.252 -0.2867 -0.1204 -0.5805
  107OSM   H14B10902  -0.037   3.530  11.182 -0.3089  0.8145  2.1746
  107OSM   H14C10903  -0.138   3.636  11.100  0.5428  1.0403 -0.9793
  107OSM    C1310904   0.192   3.675  11.147  0.0390  0.5468  0.2383
  107OSM   H13A10905   0.279   3.680  11.084  0.6091 -1.3989  0.8024
  107OSM   H13B10906   0.180   3.588  11.211  2.2099  0.5621  0.7388
  107OSM   H13C10907   0.200   3.762  11.210  0.8735 -1.1331  2.5853
  107OSM    C1210908   0.054   3.841  11.037  0.1283  0.1767 -0.2945
  107OSM   H12A10909   0.153   3.852  10.995  1.3209 -2.3552  1.5674
  107OSM   H12B10910   0.055   3.892  11.132 -0.8596 -1.1677  0.4734
  107OSM    C1110911  -0.046   3.899  10.930 -0.0769 -0.8126  0.4658
  107OSM   H11A10912  -0.011   3.870  10.828  1.6806  3.0045 -0.1976
  107OSM   H11B10913  -0.038   4.009  10.926  0.8914 -0.9176 -1.5684
  107OSM      P10914  -0.267   3.806  10.838  0.1591 -0.0375  0.3282
  107OSM    O1310915  -0.198   3.683  10.791  0.1596 -0.3372  0.3718
  107OSM    O1410916  -0.407   3.800  10.880  0.4336 -0.2493 -0.1001
  107OSM    O1110917  -0.251   3.919  10.733  0.1899 -0.4329 -0.6628
  107OSM    O1210918  -0.186   3.868  10.952 -0.4102 -0.0329  0.1051
  107OSM    C1S10919  -0.303   3.916  10.602  0.4216 -0.1431 -0.0683
  107OSM    H1S10920  -0.413   3.934  10.609  0.0421 -2.7461  2.4906
  107OSM    H1T10921  -0.295   3.811  10.564 -1.6858 -0.1277 -0.7002
  107OSM     NF10922  -0.295   3.985  10.366 -0.5082 -0.1008 -0.1280
  107OSM    HNF10923  -0.242   3.917  10.316  1.8109 -0.0408  2.0138
  107OSM    C2S10924  -0.242   4.015  10.501 -0.2768  0.1944 -0.0194
  107OSM    H2S10925  -0.277   4.118  10.522 -1.4120  0.7935 -3.9595
  107OSM    C3S10926  -0.092   4.011  10.521 -0.2749 -0.6238  0.5341
  107OSM    H3S10927  -0.044   3.912  10.510 -2.2799 -1.4372 -1.7167
  107OSM     O310928  -0.051   4.061  10.653 -0.1887  0.0220  0.5043
  107OSM    HO310929  -0.115   4.031  10.719 -1.2711  2.0719  0.4651
  107OSM    C4S10930  -0.035   4.118  10.425  0.4787 -0.2645  0.0891
  107OSM    H4S10931  -0.046   4.224  10.451  0.3311 -0.1883 -0.2739
  107OSM    C5S10932   0.025   4.093  10.308 -0.5916 -0.2809 -0.4954
  107OSM    H5S10933   0.030   3.988  10.273  0.3232 -0.2357 -0.5045
  107OSM    C6S10934   0.059   4.194  10.198 -0.3773 -0.9049 -0.3171
  107OSM    H6S10935   0.038   4.156  10.096 -0.1565 -0.0964 -0.6776
  107OSM    H6T10936   0.170   4.206  10.201 -0.6497  2.6274  1.5102
  107OSM    C7S10937  -0.014   4.328  10.204  0.0772 -0.3219  0.0639
  107OSM    H7S10938   0.015   4.390  10.292  0.3299 -1.9642  1.2045
  107OSM    H7T10939  -0.124   4.314  10.194  0.1760 -1.2284  0.1107
  107OSM    C8S10940   0.019   4.424  10.079  0.0471  0.4967 -0.6059
  107OSM    H8S10941   0.128   4.444  10.068  0.2971 -0.6229 -0.2261
  107OSM    H8T10942  -0.015   4.527  10.104  2.0231  0.5503  2.3058
  107OSM    C9S10943  -0.040   4.369   9.949 -0.5459 -0.5062  0.2128
  107OSM    H9S10944  -0.140   4.331   9.982 -0.5136 -1.0704 -0.3056
  107OSM    H9T10945   0.040   4.296   9.926  0.7245  0.3721  1.6767
  107OSM   C10S10946  -0.052   4.479   9.848 -0.3301 -0.1756  1.3125
  107OSM   H10S10947   0.039   4.544   9.848 -0.3134 -0.0385 -1.9057
  107OSM   H10T10948  -0.131   4.549   9.883 -1.9473 -1.7256  0.8494
  107OSM   C11S10949  -0.076   4.426   9.714 -0.5315 -0.2819 -0.0745
  107OSM   H11S10950  -0.173   4.371   9.710 -1.4102  0.9478  2.3752
  107OSM   H11T10951   0.006   4.361   9.677 -0.8132 -1.6620  1.5813
  107OSM   C12S10952  -0.085   4.551   9.624  0.1030 -0.4324  0.1107
  107OSM   H12S10953   0.017   4.590   9.604  0.2644 -0.8894  0.0267
  107OSM   H12T10954  -0.150   4.634   9.658 -0.5835 -0.2191 -1.5783
  107OSM   C13S10955  -0.136   4.520   9.483 -0.1015  0.5584  0.8260
  107OSM   H13S10956  -0.233   4.468   9.498  1.5534 -3.0155  0.1246
  107OSM   H13T10957  -0.071   4.445   9.433  0.4887 -0.3409  2.8319
  107OSM   C14S10958  -0.148   4.649   9.400 -0.8078  0.2914 -0.4408
  107OSM   H14S10959  -0.050   4.702   9.402 -0.5281 -0.1803  2.0371
  107OSM   H14T10960  -0.215   4.724   9.447 -1.4573 -1.6975  2.0124
  107OSM   C15S10961  -0.190   4.623   9.249  0.1035  0.3966  0.3786
  107OSM   H15S10962  -0.301   4.618   9.239  0.0568  1.8182  0.0125
  107OSM   H15T10963  -0.137   4.532   9.213  0.1386  1.0664 -1.3264
  107OSM   C16S10964  -0.140   4.733   9.153 -0.4777 -0.2796 -0.0122
  107OSM   H16S10965  -0.029   4.746   9.154 -0.4505 -0.5146  0.0297
  107OSM   H16T10966  -0.196   4.823   9.187  0.0547  0.1169 -0.1604
  107OSM   C17S10967  -0.178   4.719   9.006 -0.3341 -0.3204  0.2452
  107OSM   H17S10968  -0.286   4.706   8.987 -0.9324  1.9892  1.6516
  107OSM   H17T10969  -0.114   4.637   8.967 -0.1118 -0.6313  1.2333
  107OSM   C18S10970  -0.127   4.839   8.926  0.8011 -0.1727 -0.0119
  107OSM   H18S10971  -0.016   4.830   8.926  0.6308 -3.3426  1.0795
  107OSM   H18T10972  -0.163   4.938   8.962 -0.1866 -0.3190 -0.5774
  107OSM   H18U10973  -0.158   4.829   8.820  0.1697  3.4953 -0.2994
  107OSM    C1F10974  -0.419   4.013  10.331  0.7729  0.2391 -0.5740
  107OSM     OF10975  -0.497   4.068  10.407 -0.2069  0.2382 -0.2467
  107OSM    C2F10976  -0.466   3.963  10.194 -0.4308 -0.1836 -0.2676
  107OSM    H2F10977  -0.541   4.037  10.159  0.5610  0.4151 -1.1996
  107OSM    H2G10978  -0.527   3.874  10.218 -1.3781  0.9632  1.8537
  107OSM    C3F10979  -0.359   3.923  10.092 -0.7763 -0.7075 -0.0146
  107OSM    H3F10980  -0.298   3.848  10.147 -0.4443  0.3551  1.0994
  107OSM    H3G10981  -0.301   4.013  10.062 -0.1255 -0.5983  1.4770
  107OSM    C4F10982  -0.415   3.878   9.956 -0.1570 -0.0122  0.3962
  107OSM    H4F10983  -0.498   3.808   9.977 -1.0097  0.6012 -0.8232
  107OSM    H4G10984  -0.343   3.812   9.902 -0.2251 -1.4595  1.9796
  107OSM    C5F10985  -0.454   3.999   9.867  0.5033 -0.1817 -1.2807
  107OSM    H5F10986  -0.370   4.070   9.847  1.7216 -0.9168  0.8843
  107OSM    H5G10987  -0.531   4.057   9.922 -1.0340 -3.2132  0.0393
  107OSM    C6F10988  -0.521   3.952   9.730  0.2085  0.2467 -0.3185
  107OSM    H6F10989  -0.582   3.864   9.760  0.7542 -0.2651 -0.6701
  107OSM    H6G10990  -0.436   3.922   9.665 -0.0052 -1.0446 -0.0402
  107OSM    C7F10991  -0.613   4.058   9.661 -0.3873 -0.0808  0.5734
  107OSM    H7F10992  -0.547   4.144   9.637  0.3316 -0.4636  1.1285
  107OSM    H7G10993  -0.695   4.094   9.726  0.7189  2.3396  0.7187
  107OSM    C8F10994  -0.643   4.004   9.517 -0.0279 -1.3132  0.0335
  107OSM    H8F10995  -0.699   3.909   9.529 -1.4782 -0.4809  0.0569
  107OSM    H8G10996  -0.548   3.969   9.472  0.1853  0.9601 -1.4164
  107OSM    C9F10997  -0.721   4.091   9.421 -0.1125  0.2286 -0.6779
  107OSM    H9F10998  -0.764   4.184   9.460  2.3529  0.4103  1.9539
  107OSM   C10F10999  -0.759   4.060   9.292  0.0248  0.7328  0.2658
  107OSM   H10F11000  -0.814   4.136   9.235 -0.3800 -0.8392 -1.5471
  107OSM   C11F11001  -0.745   3.929   9.217  0.3487  0.1265  0.1453
  107OSM   H11F11002  -0.840   3.871   9.217  1.0274 -1.0375 -0.5677
  107OSM   H11G11003  -0.665   3.863   9.257 -1.2037 -2.3406 -0.6015
  107OSM   C12F11004  -0.689   3.954   9.076 -0.1299  0.6932 -0.0821
  107OSM   H12F11005  -0.631   3.863   9.050 -3.4647 -2.1955  1.6689
  107OSM   H12G11006  -0.617   4.036   9.055 -1.1309  1.4193 -0.7736
  107OSM   C13F11007  -0.806   3.970   8.971 -0.2919 -0.4215 -0.0777
  107OSM   H13F11008  -0.872   4.056   8.993  1.1163  0.7851 -0.4348
  107OSM   H13G11009  -0.878   3.886   8.979 -1.4646  0.4545 -1.0452
  107OSM   C14F11010  -0.750   3.961   8.828 -0.1105  0.3994  0.0274
  107OSM   H14F11011  -0.717   3.858   8.803 -0.7792  0.1827  0.0420
  107OSM   H14G11012  -0.658   4.024   8.825  0.7831 -0.6358  2.5439
  107OSM   C15F11013  -0.850   4.010   8.728 -0.5353  0.1509 -0.1052
  107OSM   H15F11014  -0.861   4.121   8.736 -0.1992  0.1847 -0.0876
  107OSM   H15G11015  -0.952   3.971   8.748 -1.9736  4.3311  1.9709
  107OSM   C16F11016  -0.808   3.985   8.578 -0.0613  0.0453  0.7056
  107OSM   H16F11017  -0.845   3.882   8.561  0.5765  0.0481 -0.8775
  107OSM   H16G11018  -0.698   4.002   8.583  0.0123 -0.5624  1.4208
  107OSM   C17F11019  -0.883   4.082   8.485 -1.7134  0.0195  0.3873
  107OSM   H17F11020  -0.844   4.184   8.504  0.7013 -0.7738  0.0380
  107OSM   H17G11021  -0.993   4.095   8.499 -1.8810 -0.1813 -0.6731
  107OSM   C18F11022  -0.859   4.037   8.333 -0.4025 -0.1104 -0.6093
  107OSM   H18F11023  -0.937   4.089   8.273  2.1731  3.2567 -1.3356
  107OSM   H18G11024  -0.859   3.927   8.327  0.5168 -0.2715  1.3958
  107OSM   H18H11025  -0.757   4.071   8.304 -0.1979 -0.7925 -0.6934
  108OSM      N11026   4.059   0.779  10.927 -0.4622  0.4258 -0.9027
  108OSM    C1511027   4.124   0.648  10.972 -0.3740  0.0529 -0.0280
  108OSM   H15A11028   4.062   0.564  10.944 -0.4121  0.6316 -1.8532
  108OSM   H15B11029   4.140   0.636  11.078 -1.1170  1.4281  0.2604
  108OSM   H15C11030   4.223   0.645  10.928  0.5002  0.8494  1.7863
  108OSM    C1411031   3.933   0.778  11.018  0.4169 -0.0002  0.2931
  108OSM   H14A11032   3.964   0.783  11.121 -0.6565 -0.7385  0.6668
  108OSM   H14B11033   3.888   0.681  11.004  1.4400 -0.6480  1.2815
  108OSM   H14C11034   3.861   0.855  10.995  0.2399 -0.3704 -0.4393
  108OSM    C1311035   4.154   0.889  10.983 -0.2624 -0.3907  0.1543
  108OSM   H13A11036   4.111   0.983  10.950 -0.1131 -1.4258 -3.4054
  108OSM   H13B11037   4.252   0.883  10.939 -0.5936  1.6872 -0.9787
  108OSM   H13C11038   4.155   0.895  11.091  0.0293  0.9605  0.1000
  108OSM    C1211039   4.026   0.795  10.782  0.5784 -0.3448  0.7827
  108OSM   H12A11040   3.969   0.714  10.740  1.3003 -0.0756 -0.7939
  108OSM   H12B11041   4.120   0.807  10.730 -1.3092  2.3503 -2.3751
  108OSM    C1111042   3.949   0.920  10.730  0.8201  0.2599  0.0955
  108OSM   H11A11043   3.963   0.927  10.620  0.9452 -1.5685 -0.0328
  108OSM   H11B11044   4.001   1.011  10.767  0.7087  0.7411 -0.9063
  108OSM      P11045   3.712   0.817  10.715  0.2082 -0.1944 -0.1935
  108OSM    O1311046   3.755   0.690  10.776  0.1555  0.5816  0.4575
  108OSM    O1411047   3.572   0.861  10.753 -0.1089  0.3715  0.4660
  108OSM    O1111048   3.738   0.816  10.557  0.4829  0.0241  0.3267
  108OSM    O1211049   3.811   0.926  10.768 -0.2751 -0.1622 -0.0955
  108OSM    C1S11050   3.668   0.913  10.474  0.3125  0.0090  0.2673
  108OSM    H1S11051   3.707   1.014  10.501  2.7367 -0.8829  0.2489
  108OSM    H1T11052   3.560   0.917  10.501  0.1953 -1.9835  0.2314
  108OSM     NF11053   3.660   1.014  10.238 -0.2215 -0.0501 -0.0518
  108OSM    HNF11054   3.571   1.026  10.195 -0.1145  0.0520 -0.2433
  108OSM    C2S11055   3.680   0.894  10.314 -0.9154  0.7832 -0.2865
  108OSM    H2S11056   3.778   0.847  10.291 -1.8519 -0.4112 -1.9910
  108OSM    C3S11057   3.584   0.780  10.268 -0.6968  0.4481  1.0550
  108OSM    H3S11058   3.483   0.823  10.283 -1.2890 -0.8600  0.9786
  108OSM     O311059   3.589   0.658  10.339  0.1398  0.0725 -0.7806
  108OSM    HO311060   3.638   0.677  10.419 -1.3708 -0.8522  0.4208
  108OSM    C4S11061   3.608   0.764  10.115 -0.0056  0.2569 -0.0692
  108OSM    H4S11062   3.559   0.845  10.059  0.5733  1.0419  0.5367
  108OSM    C5S11063   3.682   0.674  10.044  0.1096  0.0402  0.2490
  108OSM    H5S11064   3.726   0.592  10.103 -0.5820  0.3019  1.1541
  108OSM    C6S11065   3.699   0.670   9.894 -0.4346  0.7715 -0.0945
  108OSM    H6S11066   3.805   0.642   9.879 -0.3187 -0.3041  2.3106
  108OSM    H6T11067   3.671   0.771   9.856 -0.4111  0.7329 -0.2154
  108OSM    C7S11068   3.600   0.563   9.836  0.7019 -0.6599 -0.1595
  108OSM    H7S11069   3.495   0.580   9.867 -0.1560 -2.2007 -2.0552
  108OSM    H7T11070   3.622   0.457   9.861 -2.9256 -1.4228  0.2535
  108OSM    C8S11071   3.599   0.565   9.681 -0.0472  0.1028 -0.3191
  108OSM    H8S11072   3.705   0.548   9.653 -0.0476 -0.0928 -0.2018
  108OSM    H8T11073   3.570   0.666   9.645  0.7202 -0.0553 -1.4137
  108OSM    C9S11074   3.518   0.451   9.623 -0.3727  0.6889 -0.5310
  108OSM    H9S11075   3.408   0.462   9.635 -0.3956  0.8322 -0.8551
  108OSM    H9T11076   3.550   0.358   9.673  2.1664  0.8922 -1.6218
  108OSM   C10S11077   3.541   0.428   9.477 -0.4094 -0.2642 -0.3664
  108OSM   H10S11078   3.649   0.411   9.456 -0.7474 -1.6346 -1.1649
  108OSM   H10T11079   3.516   0.524   9.427  0.2115 -0.3957 -0.9590
  108OSM   C11S11080   3.460   0.320   9.405  0.1161  1.4194  0.0486
  108OSM   H11S11081   3.354   0.351   9.408 -1.5182 -3.2675 -1.0693
  108OSM   H11T11082   3.462   0.216   9.445  1.3386  0.3377 -2.5524
  108OSM   C12S11083   3.512   0.305   9.260 -0.4351  0.1375  0.5256
  108OSM   H12S11084   3.622   0.295   9.273 -0.1078  0.4743 -1.6340
  108OSM   H12T11085   3.498   0.392   9.192 -0.2076  0.6689  1.1449
  108OSM   C13S11086   3.470   0.177   9.185 -0.4519 -0.2474 -0.0726
  108OSM   H13S11087   3.363   0.175   9.159  0.2964 -0.9073 -3.5125
  108OSM   H13T11088   3.497   0.087   9.245  0.9760 -1.1298 -1.9395
  108OSM   C14S11089   3.538   0.176   9.045  0.9402 -0.0602 -0.2781
  108OSM   H14S11090   3.647   0.160   9.061  0.9734 -1.0637 -1.3650
  108OSM   H14T11091   3.534   0.275   8.995 -1.7257 -0.8779 -1.8980
  108OSM   C15S11092   3.483   0.079   8.933 -0.3993 -0.3090 -0.2509
  108OSM   H15S11093   3.375   0.101   8.922 -0.1457  1.9952  1.0786
  108OSM   H15T11094   3.494  -0.023   8.976  1.7973  0.9032  2.3674
  108OSM   C16S11095   3.541   0.086   8.790 -0.6234  0.4123  0.4729
  108OSM   H16S11096   3.523   0.185   8.741 -0.4489 -0.4098 -1.3259
  108OSM   H16T11097   3.495   0.012   8.722 -1.2751  1.0803  0.1770
  108OSM   C17S11098   3.695   0.059   8.791 -0.2558  0.1456 -0.2065
  108OSM   H17S11099   3.724  -0.032   8.848  1.7798  1.1292  0.4128
  108OSM   H17T11100   3.747   0.141   8.843  0.1851 -0.4243  0.2657
  108OSM   C18S11101   3.749   0.047   8.652 -0.8053 -0.1475 -0.1721
  108OSM   H18S11102   3.740   0.143   8.597  2.0829  0.2871 -0.0462
  108OSM   H18T11103   3.714  -0.039   8.592  0.7100  0.9433 -2.7602
  108OSM   H18U11104   3.859   0.036   8.651 -0.5516  1.9097 -1.9451
  108OSM    C1F11105   3.748   1.115  10.238 -1.1215  0.3457 -0.1781
  108OSM     OF11106   3.843   1.109  10.317 -0.1047  0.5171 -0.3106
  108OSM    C2F11107   3.722   1.234  10.146 -0.0438  0.1135 -0.0731
  108OSM    H2F11108   3.685   1.320  10.207  0.5350 -0.2362  0.7944
  108OSM    H2G11109   3.636   1.218  10.078  0.1125  1.1401 -0.5233
  108OSM    C3F11110   3.841   1.263  10.056  0.7225 -0.5990  0.2201
  108OSM    H3F11111   3.928   1.290  10.120 -0.0934  0.5567  0.8724
  108OSM    H3G11112   3.813   1.349   9.992 -1.8808 -0.3864  1.5128
  108OSM    C4F11113   3.875   1.147   9.964 -0.6279  0.5515 -0.0269
  108OSM    H4F11114   3.799   1.126   9.886 -1.1876 -3.7845  1.4177
  108OSM    H4G11115   3.877   1.053  10.024 -1.9089  0.9636  0.7068
  108OSM    C5F11116   4.013   1.150   9.904  0.5372  0.8997 -0.0278
  108OSM    H5F11117   4.092   1.177   9.978  2.2924 -0.0828 -1.4710
  108OSM    H5G11118   4.022   1.228   9.826 -0.2402 -0.3177 -1.3776
  108OSM    C6F11119   4.045   1.011   9.833  0.0245 -0.4304  0.0923
  108OSM    H6F11120   4.046   0.933   9.913 -0.6859 -1.7896 -1.1691
  108OSM    H6G11121   4.145   1.013   9.784 -0.2372  0.0572 -0.4303
  108OSM    C7F11122   3.938   0.951   9.745  0.1569 -0.3386 -0.0991
  108OSM    H7F11123   3.922   1.015   9.656 -1.2178 -0.9298 -0.3038
  108OSM    H7G11124   3.844   0.937   9.803  1.0559 -0.6122  1.3476
  108OSM    C8F11125   3.981   0.810   9.695  0.7288 -0.4731 -0.5577
  108OSM    H8F11126   3.891   0.747   9.682 -1.9879  2.3354  2.8106
  108OSM    H8G11127   4.023   0.758   9.783 -1.2114 -0.0083  0.6985
  108OSM    C9F11128   4.064   0.811   9.575 -0.6380 -0.2180 -0.0231
  108OSM    H9F11129   4.163   0.856   9.588 -1.0919  1.5787 -2.0978
  108OSM   C10F11130   4.042   0.768   9.450 -0.2492  0.9502  0.3513
  108OSM   H10F11131   4.122   0.794   9.380  0.6339  0.8782  1.3151
  108OSM   C11F11132   3.926   0.696   9.388 -0.0407 -0.4325 -0.1602
  108OSM   H11F11133   3.870   0.752   9.310 -1.9987  2.8069  3.2318
  108OSM   H11G11134   3.849   0.704   9.468  1.3512  1.0660  1.0966
  108OSM   C12F11135   3.963   0.549   9.361  0.2855  0.7818  0.4122
  108OSM   H12F11136   3.866   0.495   9.352  2.0368 -2.5504 -0.3383
  108OSM   H12G11137   4.006   0.501   9.451 -1.3201  2.0186  1.8972
  108OSM   C13F11138   4.048   0.530   9.229  0.3367 -0.4051 -0.0038
  108OSM   H13F11139   4.154   0.546   9.257 -0.0698 -0.7769  1.8877
  108OSM   H13G11140   4.024   0.608   9.153  0.7484 -1.9991 -1.8689
  108OSM   C14F11141   4.030   0.393   9.161 -0.1029  0.1227  0.4130
  108OSM   H14F11142   3.931   0.345   9.180  0.7912 -0.8275  3.2227
  108OSM   H14G11143   4.098   0.323   9.215 -0.8255 -1.1121 -0.2223
  108OSM   C15F11144   4.077   0.381   9.018  0.0328  0.5247  0.4967
  108OSM   H15F11145   4.180   0.417   8.999  0.3532 -0.3365  0.5342
  108OSM   H15G11146   4.009   0.439   8.951 -0.9026 -0.6513  0.3856
  108OSM   C16F11147   4.071   0.232   8.978  0.3044 -0.5167 -0.3454
  108OSM   H16F11148   3.967   0.193   8.983  0.0430  0.2259  0.3557
  108OSM   H16G11149   4.131   0.181   9.056  2.8939  1.1744 -1.1142
  108OSM   C17F11150   4.124   0.206   8.840 -0.0903  0.2862 -0.2450
  108OSM   H17F11151   4.217   0.264   8.822 -0.8418  1.3112 -0.9105
  108OSM   H17G11152   4.045   0.236   8.767 -0.5510  0.4680  0.3200
  108OSM   C18F11153   4.147   0.058   8.822 -0.0504 -0.2251  0.5209
  108OSM   H18F11154   4.057   0.002   8.854 -0.6154 -0.3230 -1.1417
  108OSM   H18G11155   4.238   0.031   8.881 -0.5124 -0.9896  0.9110
  108OSM   H18H11156   4.178   0.032   8.719  1.2463  2.2036  0.2301
  109OSM      N11157   2.849   6.207  11.048  0.2687  0.3222 -0.3491
  109OSM    C1511158   2.706   6.248  11.094  0.0430  0.1254 -0.2945
  109OSM   H15A11159   2.706   6.265  11.201  1.6468  0.2483 -0.2882
  109OSM   H15B11160   2.635   6.168  11.089  0.0427 -0.2257  3.2129
  109OSM   H15C11161   2.676   6.342  11.049  0.9664  0.0997 -1.0075
  109OSM    C1411162   2.948   6.324  11.042  0.7432  0.0048  0.2830
  109OSM   H14A11163   2.943   6.378  11.135 -0.3790 -0.2125  0.3511
  109OSM   H14B11164   2.916   6.393  10.965  0.6667  1.1193  1.2836
  109OSM   H14C11165   3.049   6.290  11.022  0.4374 -1.1078  0.5838
  109OSM    C1311166   2.898   6.111  11.152 -0.3496  0.5488 -0.1853
  109OSM   H13A11167   2.984   6.058  11.116 -0.7302 -0.3171  0.1551
  109OSM   H13B11168   2.816   6.047  11.182 -0.7661  0.2372 -1.8813
  109OSM   H13C11169   2.931   6.160  11.242 -1.6860 -1.7440  1.6636
  109OSM    C1211170   2.831   6.142  10.915 -0.1937 -0.5348  0.0272
  109OSM   H12A11171   2.791   6.213  10.844  1.0334 -0.5296 -0.6898
  109OSM   H12B11172   2.756   6.065  10.926  0.5047 -1.3265 -0.5670
  109OSM    C1111173   2.959   6.076  10.860 -0.9944  0.5517  0.2080
  109OSM   H11A11174   3.049   6.142  10.858  0.1400 -0.9552 -0.6199
  109OSM   H11B11175   2.936   6.059  10.753  0.3729  2.6910 -0.4864
  109OSM      P11176   2.907   5.824  10.889 -0.0057 -0.0920 -0.0662
  109OSM    O1311177   2.963   5.713  10.973  0.5292  0.8569 -0.3212
  109OSM    O1411178   2.770   5.864  10.905  0.0576 -0.2555  0.9185
  109OSM    O1111179   2.936   5.806  10.737 -0.2381 -0.2308  0.2322
  109OSM    O1211180   3.002   5.952  10.922 -0.3717 -0.3892  0.4138
  109OSM    C1S11181   2.865   5.696  10.667  0.7145 -0.3401  0.4933
  109OSM    H1S11182   2.761   5.689  10.705  1.2361 -1.3403  1.8294
  109OSM    H1T11183   2.919   5.604  10.697  1.0913 -0.3323 -0.1507
  109OSM     NF11184   2.757   5.648  10.450  0.1014 -0.5358 -0.7623
  109OSM    HNF11185   2.791   5.575  10.392  0.3942 -2.2713  1.4394
  109OSM    C2S11186   2.865   5.720  10.512 -0.2601 -0.7403 -0.5753
  109OSM    H2S11187   2.846   5.828  10.495  1.0881 -0.1970  1.0664
  109OSM    C3S11188   3.008   5.691  10.451  0.4653  0.7714  0.5148
  109OSM    H3S11189   3.035   5.584  10.449 -2.3127  0.0064  0.4415
  109OSM     O311190   3.115   5.744  10.534  0.0464 -0.0531  0.1247
  109OSM    HO311191   3.064   5.782  10.606 -1.5503  2.8963 -2.2944
  109OSM    C4S11192   3.009   5.737  10.309  0.6884 -0.1308 -0.4150
  109OSM    H4S11193   2.992   5.658  10.234  1.3513 -1.3213  0.6711
  109OSM    C5S11194   3.039   5.865  10.266  0.2067 -0.1263  0.4640
  109OSM    H5S11195   3.074   5.937  10.341  2.8051  0.8690 -1.5415
  109OSM    C6S11196   3.047   5.919  10.120 -0.2958 -0.3619  0.1638
  109OSM    H6S11197   3.151   5.938  10.087  1.0954 -1.1647  3.6330
  109OSM    H6T11198   2.982   6.009  10.104  0.9228  0.8816  1.8542
  109OSM    C7S11199   2.998   5.824  10.016  0.2947 -0.1632  0.2858
  109OSM    H7S11200   2.897   5.781  10.033  1.0758 -1.9585  0.6809
  109OSM    H7T11201   3.056   5.729  10.007 -0.3782 -0.4793 -0.9805
  109OSM    C8S11202   2.987   5.892   9.879  0.0399  0.0078  0.5669
  109OSM    H8S11203   3.087   5.925   9.846 -0.5877  1.6121  0.1832
  109OSM    H8T11204   2.929   5.986   9.886  3.0169  2.1995 -1.5761
  109OSM    C9S11205   2.935   5.799   9.766 -0.2590  0.3097 -0.3290
  109OSM    H9S11206   2.835   5.758   9.794  0.4729 -1.9227 -0.7618
  109OSM    H9T11207   2.995   5.706   9.759  3.0767  2.2888  0.0491
  109OSM   C10S11208   2.938   5.868   9.627  0.2042  0.5993  0.6149
  109OSM   H10S11209   3.045   5.880   9.600  0.0066 -1.2326 -1.2035
  109OSM   H10T11210   2.892   5.969   9.623 -2.0450 -0.3882  0.1797
  109OSM   C11S11211   2.875   5.781   9.518  0.8814  0.2824  0.1088
  109OSM   H11S11212   2.770   5.815   9.504  0.4036 -1.1406  0.0399
  109OSM   H11T11213   2.874   5.676   9.553 -0.2196 -0.1969 -1.2727
  109OSM   C12S11214   2.933   5.799   9.383 -0.4520 -0.4022  0.1085
  109OSM   H12S11215   3.008   5.718   9.377 -1.0682 -0.9270 -0.7548
  109OSM   H12T11216   2.978   5.901   9.385 -1.9413  0.2693  1.2600
  109OSM   C13S11217   2.832   5.782   9.267  1.2939  0.2588 -0.0958
  109OSM   H13S11218   2.772   5.875   9.277  0.0685 -0.4759 -0.4376
  109OSM   H13T11219   2.771   5.694   9.295  1.4361  0.7911  2.0481
  109OSM   C14S11220   2.897   5.790   9.137 -0.6984  0.2781  0.4901
  109OSM   H14S11221   2.977   5.713   9.125 -1.4726 -0.2340 -2.2703
  109OSM   H14T11222   2.946   5.888   9.119  0.6025 -0.2666  0.9833
  109OSM   C15S11223   2.793   5.760   9.023  0.1998 -0.1868  0.5080
  109OSM   H15S11224   2.726   5.848   9.022 -1.0510 -1.1013  0.8900
  109OSM   H15T11225   2.745   5.662   9.043 -0.7815  0.5170  1.7323
  109OSM   C16S11226   2.869   5.756   8.884  0.0825 -0.2157  0.0730
  109OSM   H16S11227   2.915   5.655   8.880  0.3426 -0.1811  1.5196
  109OSM   H16T11228   2.939   5.841   8.866 -0.3511  0.1290  0.0195
  109OSM   C17S11229   2.765   5.759   8.771 -0.2963  0.1913 -0.5442
  109OSM   H17S11230   2.726   5.863   8.772 -0.9857 -0.0182  1.8859
  109OSM   H17T11231   2.677   5.692   8.785 -1.0560  1.5870  1.8360
  109OSM   C18S11232   2.821   5.724   8.636  0.1305 -0.2233 -0.9651
  109OSM   H18S11233   2.732   5.710   8.570 -1.0426  0.0777  0.4936
  109OSM   H18T11234   2.873   5.625   8.640 -1.1702 -0.9007 -0.0015
  109OSM   H18U11235   2.893   5.798   8.597  1.2914 -0.8012  0.0096
  109OSM    C1F11236   2.627   5.691  10.467 -0.2475 -0.1231  0.5663
  109OSM     OF11237   2.599   5.806  10.507 -0.2188  0.7905  0.1678
  109OSM    C2F11238   2.519   5.590  10.449  0.7298  0.1683  0.3470
  109OSM    H2F11239   2.425   5.646  10.430 -0.4013 -0.9655  2.2341
  109OSM    H2G11240   2.503   5.531  10.542  1.7390 -1.7526 -0.6467
  109OSM    C3F11241   2.532   5.473  10.342  0.3939 -0.6032  0.2845
  109OSM    H3F11242   2.453   5.400  10.369 -1.0654  0.9589  0.4457
  109OSM    H3G11243   2.634   5.430  10.349  1.8995  2.2831 -1.7591
  109OSM    C4F11244   2.500   5.522  10.201  0.1517 -0.1757  0.6908
  109OSM    H4F11245   2.595   5.575  10.177 -0.9113  1.7576  0.6272
  109OSM    H4G11246   2.410   5.586  10.194 -0.4930 -1.2050 -1.7101
  109OSM    C5F11247   2.477   5.405  10.113 -0.3441  0.3104  0.0048
  109OSM    H5F11248   2.404   5.340  10.165 -0.4630  0.1450 -0.3608
  109OSM    H5G11249   2.557   5.329  10.100  1.1205  2.1892 -3.0994
  109OSM    C6F11250   2.437   5.472   9.976  0.5527  0.6364 -0.3343
  109OSM    H6F11251   2.522   5.530   9.935  0.8327  0.1759 -0.4190
  109OSM    H6G11252   2.349   5.536   9.999  1.5155  1.5994  0.8050
  109OSM    C7F11253   2.391   5.356   9.878 -0.1816 -0.0392 -0.1703
  109OSM    H7F11254   2.320   5.283   9.923  1.3936 -1.9598 -0.6501
  109OSM    H7G11255   2.481   5.305   9.839  0.8543  0.5970  1.2846
  109OSM    C8F11256   2.314   5.420   9.758 -0.3729  0.0104  0.5005
  109OSM    H8F11257   2.236   5.488   9.798  0.7090  1.4257  0.2863
  109OSM    H8G11258   2.266   5.338   9.699  1.2863 -0.0488 -0.8630
  109OSM    C9F11259   2.413   5.492   9.672 -0.3198  0.2658 -0.2874
  109OSM    H9F11260   2.450   5.582   9.723  1.2465 -1.4272  1.7825
  109OSM   C10F11261   2.454   5.457   9.545  0.1212 -0.0852 -0.2208
  109OSM   H10F11262   2.527   5.530   9.508  0.9845  0.0947  1.7159
  109OSM   C11F11263   2.407   5.343   9.455 -0.1711 -0.1896 -0.1563
  109OSM   H11F11264   2.313   5.370   9.403  0.8658  0.4350 -1.7559
  109OSM   H11G11265   2.365   5.263   9.521 -2.9917  2.3959  1.4142
  109OSM   C12F11266   2.506   5.286   9.353 -0.1251  0.0016  0.0181
  109OSM   H12F11267   2.488   5.178   9.332  0.8267  0.1188 -1.5487
  109OSM   H12G11268   2.613   5.285   9.383 -0.2835 -1.1758  0.5923
  109OSM   C13F11269   2.500   5.367   9.220 -0.8028  0.1979  0.3696
  109OSM   H13F11270   2.513   5.477   9.226 -0.4589  0.1500  0.5499
  109OSM   H13G11271   2.398   5.336   9.188 -0.0938 -4.3287  1.8020
  109OSM   C14F11272   2.594   5.328   9.106  0.0961 -0.4761 -0.2261
  109OSM   H14F11273   2.573   5.225   9.070 -2.0113  0.3801 -1.6488
  109OSM   H14G11274   2.701   5.338   9.134  0.2753  0.3155 -1.1595
  109OSM   C15F11275   2.566   5.408   8.978  0.0255  0.9092 -0.4820
  109OSM   H15F11276   2.610   5.510   8.981 -1.8162  1.7927 -1.3813
  109OSM   H15G11277   2.456   5.417   8.963 -0.2725 -0.8855  0.3017
  109OSM   C16F11278   2.630   5.339   8.855  0.4964 -0.0559  0.2286
  109OSM   H16F11279   2.589   5.236   8.850 -1.0954  0.5848 -0.3387
  109OSM   H16G11280   2.739   5.326   8.875  0.5076 -0.0140  0.1963
  109OSM   C17F11281   2.596   5.406   8.717 -0.3757 -0.0835  0.3077
  109OSM   H17F11282   2.610   5.514   8.738  0.7744 -0.3849  1.2073
  109OSM   H17G11283   2.489   5.390   8.691 -0.4767  1.3524 -0.2828
  109OSM   C18F11284   2.680   5.367   8.597 -0.1069 -0.0089 -0.3089
  109OSM   H18F11285   2.637   5.270   8.564  0.0115 -0.4697  0.8459
  109OSM   H18G11286   2.785   5.360   8.633 -0.1315  0.0994 -0.2152
  109OSM   H18H11287   2.673   5.448   8.521 -0.5482 -0.4119 -0.6976
  110OSM      N11288   2.560   2.779  11.032  0.0338  0.7612  0.3452
  110OSM    C1511289   2.526   2.906  11.099 -0.1122 -0.0702 -0.0421
  110OSM   H15A11290   2.423   2.902  11.130  0.0622  0.2104  0.5935
  110OSM   H15B11291   2.537   2.985  11.026 -2.7536 -0.4321 -0.9186
  110OSM   H15C11292   2.586   2.909  11.189  0.0744 -2.6257  0.0020
  110OSM    C1411293   2.539   2.668  11.130 -0.6026  0.6145 -0.0900
  110OSM   H14A11294   2.538   2.572  11.080  0.0894 -0.3926  1.7216
  110OSM   H14B11295   2.438   2.674  11.169 -0.3881  1.1617  0.4011
  110OSM   H14C11296   2.602   2.670  11.218 -0.4007  0.8510 -0.2400
  110OSM    C1311297   2.466   2.761  10.916  0.3895 -0.8406 -0.3567
  110OSM   H13A11298   2.365   2.755  10.951 -0.4400  1.3118 -2.1519
  110OSM   H13B11299   2.496   2.674  10.860  1.5341 -0.0345 -1.0480
  110OSM   H13C11300   2.461   2.845  10.848  0.5501 -1.0686 -0.6545
  110OSM    C1211301   2.705   2.784  10.986  0.2812 -0.0690  0.1353
  110OSM   H12A11302   2.739   2.684  10.963  0.7026  0.6018 -2.5770
  110OSM   H12B11303   2.769   2.816  11.067  0.1187  0.9006 -0.1080
  110OSM    C1111304   2.731   2.868  10.861  0.2405 -0.0888 -0.6070
  110OSM   H11A11305   2.660   2.832  10.783  1.3846 -1.7612 -0.9337
  110OSM   H11B11306   2.830   2.847  10.814 -0.6620 -0.8933 -2.2198
  110OSM      P11307   2.813   3.091  10.959  0.4047 -0.0940  0.4022
  110OSM    O1311308   2.742   3.218  10.994 -0.2224  0.0586 -0.5684
  110OSM    O1411309   2.876   3.022  11.074  0.3361 -0.3470 -0.2968
  110OSM    O1111310   2.925   3.121  10.850  0.1829  0.6706 -0.7108
  110OSM    O1211311   2.708   3.004  10.897 -0.5605  0.5880  1.0584
  110OSM    C1S11312   2.896   3.171  10.725 -0.4216 -0.0611  0.7637
  110OSM    H1S11313   2.891   3.282  10.729 -1.8529 -0.0727 -0.0504
  110OSM    H1T11314   2.798   3.134  10.688 -0.5312 -0.8124  1.7507
  110OSM     NF11315   2.953   3.193  10.482 -1.2268  1.2189 -0.2775
  110OSM    HNF11316   2.913   3.122  10.425 -1.6176  1.3063 -0.1151
  110OSM    C2S11317   3.000   3.137  10.609 -0.7650 -0.8873 -0.0825
  110OSM    H2S11318   3.093   3.187  10.645 -1.3350 -2.7598  4.7391
  110OSM    C3S11319   3.028   2.981  10.609  0.7038 -0.4452 -0.3563
  110OSM    H3S11320   2.935   2.925  10.585  0.7491 -0.2255 -1.0755
  110OSM     O311321   3.084   2.933  10.730  0.1481  0.0984  0.0341
  110OSM    HO311322   3.045   2.998  10.790 -2.4671 -0.5896 -0.7768
  110OSM    C4S11323   3.119   2.958  10.494 -0.5928 -0.1295 -0.2682
  110OSM    H4S11324   3.224   2.987  10.509 -0.4742 -0.5664 -0.2303
  110OSM    C5S11325   3.078   2.900  10.378 -0.2166 -0.6026 -0.3399
  110OSM    H5S11326   2.973   2.868  10.374 -0.9675  1.5816  0.3167
  110OSM    C6S11327   3.159   2.884  10.257 -0.3600  0.2630 -0.3384
  110OSM    H6S11328   3.178   2.977  10.201  1.5175  0.6022  0.7833
  110OSM    H6T11329   3.096   2.827  10.186  1.8121 -0.0489 -2.1249
  110OSM    C7S11330   3.296   2.816  10.264 -0.0494 -0.3805  0.4372
  110OSM    H7S11331   3.276   2.707  10.273 -0.9929 -0.2508 -0.0194
  110OSM    H7T11332   3.344   2.840  10.362 -0.4636 -0.3482  0.6346
  110OSM    C8S11333   3.371   2.847  10.140 -0.4826 -0.4157 -0.2532
  110OSM    H8S11334   3.477   2.814  10.131  0.4160  1.7256  1.4243
  110OSM    H8T11335   3.392   2.956  10.136 -0.7646 -0.3720 -0.5205
  110OSM    C9S11336   3.297   2.812  10.001 -0.7691 -0.2914  1.1877
  110OSM    H9S11337   3.367   2.822   9.916 -0.6848 -0.2199  1.2656
  110OSM    H9T11338   3.205   2.868   9.973 -2.6665 -2.5343  2.5184
  110OSM   C10S11339   3.244   2.666  10.012  0.3535 -0.8167  0.4901
  110OSM   H10S11340   3.186   2.632   9.925  0.9314  0.3301 -0.3733
  110OSM   H10T11341   3.162   2.672  10.087 -1.9945 -3.7627 -1.6238
  110OSM   C11S11342   3.355   2.568  10.039  0.7224  0.1377  0.3502
  110OSM   H11S11343   3.413   2.595  10.131  3.7515 -0.4465 -1.2512
  110OSM   H11T11344   3.436   2.581   9.964  0.3718 -0.5833 -0.1632
  110OSM   C12S11345   3.303   2.427  10.041  0.5297  0.6846 -0.3396
  110OSM   H12S11346   3.235   2.412   9.954  1.1836 -2.1723 -0.4557
  110OSM   H12T11347   3.234   2.411  10.126  1.6668  1.2246  0.7140
  110OSM   C13S11348   3.416   2.319  10.038 -0.5380 -0.0099 -0.6121
  110OSM   H13S11349   3.376   2.216  10.050 -2.0446  0.7272  1.2389
  110OSM   H13T11350   3.478   2.333  10.130 -0.1084  0.4742 -0.9666
  110OSM   C14S11351   3.502   2.312   9.911  0.3117 -0.6735  0.0366
  110OSM   H14S11352   3.604   2.271   9.927  1.4075  2.0248  0.5275
  110OSM   H14T11353   3.528   2.420   9.900  1.0005 -0.5791  2.1621
  110OSM   C15S11354   3.427   2.254   9.785  0.5499 -0.4180  0.1027
  110OSM   H15S11355   3.319   2.275   9.792  0.4232 -1.2991  1.0021
  110OSM   H15T11356   3.458   2.147   9.791  4.2269  0.5307  0.3810
  110OSM   C16S11357   3.484   2.309   9.654  0.0835  0.5144  0.0931
  110OSM   H16S11358   3.441   2.236   9.582 -0.4987 -0.2236  1.1703
  110OSM   H16T11359   3.595   2.305   9.661  0.0352 -0.4329  0.4917
  110OSM   C17S11360   3.448   2.453   9.616 -0.3665 -0.0994 -0.6414
  110OSM   H17S11361   3.488   2.506   9.705 -3.0574  1.8185 -0.4467
  110OSM   H17T11362   3.337   2.449   9.620 -0.3233 -1.7771 -0.6059
  110OSM   C18S11363   3.497   2.522   9.485 -0.0654  0.1312 -0.5819
  110OSM   H18S11364   3.453   2.480   9.391  0.1708 -0.5286 -0.4023
  110OSM   H18T11365   3.606   2.503   9.477  0.1576  0.2295  1.7514
  110OSM   H18U11366   3.469   2.629   9.486  0.3445  0.2334  0.0410
  110OSM    C1F11367   2.956   3.321  10.455 -0.1753 -0.1380  0.3353
  110OSM     OF11368   2.980   3.402  10.543  0.1946  0.2496 -0.0888
  110OSM    C2F11369   2.916   3.359  10.312 -0.1971  0.0945  0.4975
  110OSM    H2F11370   2.805   3.359  10.307 -0.2226 -0.1943  0.9607
  110OSM    H2G11371   2.947   3.274  10.247 -1.1573  0.4044 -0.3853
  110OSM    C3F11372   2.979   3.486  10.254  0.5251  0.3057 -0.0983
  110OSM    H3F11373   3.084   3.497  10.290  0.2749  3.7395 -0.0842
  110OSM    H3G11374   2.925   3.575  10.293  0.0946 -0.3596  0.8651
  110OSM    C4F11375   2.981   3.489  10.098  0.0343 -0.7556 -0.2882
  110OSM    H4F11376   3.052   3.421  10.046 -0.6460 -2.4492  0.8855
  110OSM    H4G11377   3.012   3.588  10.058  0.0212 -1.8611 -3.2492
  110OSM    C5F11378   2.839   3.484  10.045  0.5203  0.8128  0.7808
  110OSM    H5F11379   2.783   3.563  10.101 -1.1712  0.1471  0.0812
  110OSM    H5G11380   2.800   3.383  10.069 -0.5194  1.1928  0.7595
  110OSM    C6F11381   2.832   3.516   9.896 -0.3257 -0.3696 -0.1373
  110OSM    H6F11382   2.864   3.622   9.884 -2.5305  0.3643 -0.0166
  110OSM    H6G11383   2.728   3.512   9.859 -0.0089 -2.4304 -0.9634
  110OSM    C7F11384   2.910   3.411   9.803 -0.4509  0.2606 -0.0302
  110OSM    H7F11385   3.018   3.432   9.818 -0.5674  0.4915  0.5005
  110OSM    H7G11386   2.892   3.435   9.696 -0.1053  0.0266 -0.1426
  110OSM    C8F11387   2.878   3.266   9.836 -0.0475 -0.4710  0.0374
  110OSM    H8F11388   2.908   3.258   9.942  1.0688  0.6294 -0.1656
  110OSM    H8G11389   2.947   3.204   9.774 -0.7032 -1.1519 -0.0226
  110OSM    C9F11390   2.727   3.242   9.809 -0.6986 -0.0705  0.2359
  110OSM    H9F11391   2.665   3.289   9.887  1.2875  2.7977  0.2176
  110OSM   C10F11392   2.673   3.197   9.692  0.0607 -0.2646 -0.5743
  110OSM   H10F11393   2.566   3.172   9.697 -0.2674  1.2567  1.7267
  110OSM   C11F11394   2.756   3.150   9.570  0.9006  0.3687 -0.6415
  110OSM   H11F11395   2.707   3.061   9.525  2.5505  0.7346 -3.3545
  110OSM   H11G11396   2.853   3.112   9.611 -0.5175 -1.1843  1.5064
  110OSM   C12F11397   2.793   3.260   9.467  0.3090 -0.0779 -0.1382
  110OSM   H12F11398   2.853   3.340   9.514 -0.0835 -0.2224  0.6336
  110OSM   H12G11399   2.703   3.307   9.421  0.8503 -0.0955 -1.2580
  110OSM   C13F11400   2.877   3.203   9.350  0.6468 -0.0620  0.6899
  110OSM   H13F11401   2.982   3.192   9.384  1.9258  3.1774 -1.6843
  110OSM   H13G11402   2.886   3.288   9.278 -0.4206  0.2161  0.8737
  110OSM   C14F11403   2.804   3.089   9.268  0.4748  0.3585  0.1189
  110OSM   H14F11404   2.697   3.113   9.252  0.5083 -0.2871 -1.1528
  110OSM   H14G11405   2.802   2.999   9.334  0.3609 -0.3921 -0.8902
  110OSM   C15F11406   2.851   3.059   9.127 -0.2319  0.2505  0.0495
  110OSM   H15F11407   2.962   3.050   9.131 -0.1536  0.6531 -1.0064
  110OSM   H15G11408   2.829   3.144   9.059 -0.3353  1.5854  1.6629
  110OSM   C16F11409   2.795   2.929   9.063  0.2602  1.0239 -0.1723
  110OSM   H16F11410   2.686   2.933   9.085  0.1546 -0.7219 -0.2024
  110OSM   H16G11411   2.827   2.838   9.118  1.2369  1.1943 -0.4538
  110OSM   C17F11412   2.828   2.924   8.909 -0.3642 -0.1767 -0.0370
  110OSM   H17F11413   2.931   2.886   8.893  0.7084  2.3804  0.3038
  110OSM   H17G11414   2.832   3.033   8.886  0.9083 -0.0935  0.4886
  110OSM   C18F11415   2.737   2.848   8.820  0.3865 -0.7474  0.2346
  110OSM   H18F11416   2.766   2.840   8.713 -0.7202 -0.4917 -0.0965
  110OSM   H18G11417   2.637   2.897   8.817  0.4571 -0.6482 -0.8465
  110OSM   H18H11418   2.724   2.743   8.855  0.3200 -0.9857 -0.5021
  111OSM      N11419   5.159   1.850  10.828  0.4197 -0.3875  0.5124
  111OSM    C1511420   5.302   1.873  10.859 -0.4273  0.2313 -0.0180
  111OSM   H15A11421   5.359   1.862  10.768 -0.9946 -1.7840 -0.1722
  111OSM   H15B11422   5.344   1.807  10.933 -1.6348 -2.2294 -1.4033
  111OSM   H15C11423   5.316   1.979  10.880 -1.6028  0.3419  0.2768
  111OSM    C1411424   5.133   1.702  10.794 -0.4994  0.1583 -0.5632
  111OSM   H14A11425   5.028   1.678  10.794 -0.2426 -1.0243 -0.6490
  111OSM   H14B11426   5.168   1.635  10.871 -0.2366 -0.1968 -0.9909
  111OSM   H14C11427   5.163   1.671  10.695  0.0845 -0.0850 -0.3156
  111OSM    C1311428   5.078   1.879  10.948 -0.0649 -0.7090 -0.0328
  111OSM   H13A11429   5.076   1.985  10.970 -0.4901 -1.1078  2.0176
  111OSM   H13B11430   5.106   1.818  11.032 -1.3888 -1.5020 -0.1391
  111OSM   H13C11431   4.973   1.858  10.935 -0.7084  2.2404 -0.3525
  111OSM    C1211432   5.118   1.936  10.706  0.0089 -1.0609  0.3608
  111OSM   H12A11433   5.200   1.925  10.637  1.3125 -1.0139  1.8634
  111OSM   H12B11434   5.107   2.038  10.738  0.4251 -0.5813 -0.9393
  111OSM    C1111435   4.980   1.900  10.637 -0.1834  0.2820 -0.7052
  111OSM   H11A11436   4.993   1.803  10.584 -0.1974  0.6615 -1.4203
  111OSM   H11B11437   4.967   1.975  10.556 -0.1589  0.1944 -0.7909
  111OSM      P11438   4.760   1.798  10.755  0.1097 -0.1027 -0.1998
  111OSM    O1311439   4.804   1.695  10.853 -0.2376 -0.0692 -0.2883
  111OSM    O1411440   4.644   1.879  10.787 -0.4981 -0.4685  0.3021
  111OSM    O1111441   4.738   1.729  10.614  0.3436  0.3123  0.1976
  111OSM    O1211442   4.881   1.902  10.731 -0.7105 -0.4812 -0.0665
  111OSM    C1S11443   4.610   1.717  10.550  0.6320 -0.0563 -0.8047
  111OSM    H1S11444   4.544   1.804  10.568 -0.1374 -1.1192  2.1488
  111OSM    H1T11445   4.563   1.624  10.590  3.4669 -2.0592 -1.7621
  111OSM     NF11446   4.505   1.696  10.328  0.3647  0.5252 -0.4180
  111OSM    HNF11447   4.468   1.607  10.304 -0.0815 -0.0375  2.1086
  111OSM    C2S11448   4.633   1.698  10.397 -0.6381  0.1456 -0.4051
  111OSM    H2S11449   4.693   1.788  10.372  1.0201 -1.1972 -1.4106
  111OSM    C3S11450   4.718   1.569  10.368  0.3553 -0.0112 -1.0011
  111OSM    H3S11451   4.653   1.483  10.395 -0.1751 -0.1889 -2.7076
  111OSM     O311452   4.840   1.563  10.443  0.3850 -0.1272  0.0627
  111OSM    HO311453   4.823   1.630  10.509 -2.4291 -0.1112 -0.5493
  111OSM    C4S11454   4.743   1.557  10.222 -0.4289  0.4107 -0.0273
  111OSM    H4S11455   4.692   1.470  10.179  1.0707 -1.6817  2.2122
  111OSM    C5S11456   4.820   1.642  10.151 -0.1257 -0.7311  0.0250
  111OSM    H5S11457   4.855   1.734  10.200 -0.5606  0.6037 -2.0375
  111OSM    C6S11458   4.845   1.619  10.004  0.2652 -0.3737  0.1659
  111OSM    H6S11459   4.892   1.520   9.988  2.2665  0.6265 -0.5004
  111OSM    H6T11460   4.918   1.697   9.975  0.5689 -0.4991  0.5898
  111OSM    C7S11461   4.713   1.619   9.914  0.5647 -0.1673  0.4681
  111OSM    H7S11462   4.644   1.702   9.942 -1.0461 -1.2410 -0.1512
  111OSM    H7T11463   4.666   1.518   9.921 -1.4708  0.6897  0.0810
  111OSM    C8S11464   4.741   1.643   9.763  0.4031  0.5757  0.1991
  111OSM    H8S11465   4.798   1.552   9.734 -2.3419 -1.2512  0.2619
  111OSM    H8T11466   4.790   1.740   9.738 -0.2663  1.0177  0.5782
  111OSM    C9S11467   4.610   1.651   9.680 -0.6887  0.4093  0.8186
  111OSM    H9S11468   4.558   1.743   9.714  1.5723  2.8059 -1.6872
  111OSM    H9T11469   4.558   1.554   9.689 -0.7211  0.5314  2.0551
  111OSM   C10S11470   4.644   1.670   9.533  0.3807  1.0421 -0.2963
  111OSM   H10S11471   4.721   1.592   9.517  0.2188  0.7323  0.3898
  111OSM   H10T11472   4.691   1.769   9.512  2.6614  0.3194  1.0472
  111OSM   C11S11473   4.527   1.641   9.432  0.2860  0.2417  0.4567
  111OSM   H11S11474   4.478   1.731   9.389 -0.8822 -1.4843 -2.0812
  111OSM   H11T11475   4.442   1.589   9.480 -0.6662  1.3070 -0.0256
  111OSM   C12S11476   4.566   1.564   9.300  0.1643 -0.6712  0.7712
  111OSM   H12S11477   4.478   1.552   9.234 -0.2152  0.4384  1.0527
  111OSM   H12T11478   4.598   1.461   9.327  0.0451 -0.5770  1.2727
  111OSM   C13S11479   4.668   1.644   9.220 -0.1865 -0.2206 -0.1469
  111OSM   H13S11480   4.751   1.672   9.288  0.9143 -0.9173 -1.1666
  111OSM   H13T11481   4.622   1.739   9.185 -0.3315 -1.1339 -2.6393
  111OSM   C14S11482   4.726   1.575   9.094  0.2270 -0.5269  0.0029
  111OSM   H14S11483   4.661   1.511   9.031 -0.4336 -2.0691  2.1250
  111OSM   H14T11484   4.805   1.504   9.126  0.3443 -0.4104 -0.0293
  111OSM   C15S11485   4.808   1.670   9.014  0.1161  0.3144 -0.1337
  111OSM   H15S11486   4.895   1.632   8.955  1.7616  1.6834  1.3114
  111OSM   H15T11487   4.867   1.731   9.086  0.5202 -1.0852  0.7550
  111OSM   C16S11488   4.715   1.750   8.924 -0.5819 -0.4602  0.1702
  111OSM   H16S11489   4.657   1.810   8.997 -1.9406 -1.5855  0.0500
  111OSM   H16T11490   4.642   1.690   8.866  0.2936 -1.9624  0.5745
  111OSM   C17S11491   4.798   1.836   8.827 -0.9733  0.4540  0.2908
  111OSM   H17S11492   4.876   1.790   8.763 -0.6429  3.1080 -1.3404
  111OSM   H17T11493   4.851   1.916   8.882 -0.8018 -0.4840  1.5536
  111OSM   C18S11494   4.699   1.903   8.729  0.2957 -0.9529  0.8375
  111OSM   H18S11495   4.627   1.842   8.670 -2.5130  3.6735 -0.9999
  111OSM   H18T11496   4.763   1.954   8.654 -0.1876 -0.3403  0.8431
  111OSM   H18U11497   4.640   1.986   8.773  2.1600  0.1650  1.3330
  111OSM    C1F11498   4.432   1.806  10.302 -0.2928  0.2969 -0.0182
  111OSM     OF11499   4.425   1.896  10.389 -0.0943 -0.2004  0.9035
  111OSM    C2F11500   4.369   1.824  10.169 -0.0224  0.3384 -0.2016
  111OSM    H2F11501   4.278   1.763  10.154  0.4442 -0.6076  0.6900
  111OSM    H2G11502   4.443   1.789  10.094 -0.7913 -1.0658 -0.3452
  111OSM    C3F11503   4.334   1.977  10.146  0.1424  0.0830 -0.1144
  111OSM    H3F11504   4.428   2.035  10.151 -0.1735  0.5511  0.5981
  111OSM    H3G11505   4.283   2.017  10.237  2.2021  1.9409  0.2990
  111OSM    C4F11506   4.258   2.014  10.017 -0.6302 -0.1015  0.2166
  111OSM    H4F11507   4.257   2.124  10.004  1.5209  0.2000  2.0427
  111OSM    H4G11508   4.155   1.974  10.019 -0.4360 -0.6452  2.6143
  111OSM    C5F11509   4.327   1.967   9.884  0.6680 -0.3437  0.7045
  111OSM    H5F11510   4.368   1.867   9.908  0.7836 -0.5330 -0.2642
  111OSM    H5G11511   4.416   2.026   9.852 -0.7739  1.8682  0.5646
  111OSM    C6F11512   4.236   1.993   9.764  0.3331  0.1928  0.3525
  111OSM    H6F11513   4.216   2.101   9.745  0.2472  0.1674  0.2955
  111OSM    H6G11514   4.130   1.961   9.776  0.8265 -2.5755 -1.6579
  111OSM    C7F11515   4.293   1.935   9.631 -1.3875 -0.1055  0.3307
  111OSM    H7F11516   4.278   1.825   9.627  0.7547 -0.4067 -0.7548
  111OSM    H7G11517   4.402   1.953   9.624 -1.3287 -1.0302 -2.2370
  111OSM    C8F11518   4.225   1.996   9.505  0.1158 -0.1736  0.2837
  111OSM    H8F11519   4.209   2.103   9.533 -0.0021  0.1112 -0.7903
  111OSM    H8G11520   4.119   1.964   9.516  0.7317 -1.4656  3.2158
  111OSM    C9F11521   4.281   1.980   9.366  0.5214  0.7826  0.0405
  111OSM    H9F11522   4.370   2.042   9.343 -0.2715  1.9004 -0.0801
  111OSM   C10F11523   4.230   1.903   9.269  0.7682  0.1020  0.2191
  111OSM   H10F11524   4.291   1.889   9.178  3.9096  1.7523  1.8871
  111OSM   C11F11525   4.105   1.816   9.292  0.5067  0.0766 -0.0127
  111OSM   H11F11526   4.053   1.821   9.194  1.8409  1.2007 -0.6961
  111OSM   H11G11527   4.034   1.869   9.359  3.5508  2.0437  1.9334
  111OSM   C12F11528   4.124   1.671   9.335  0.0331 -0.4212 -0.4132
  111OSM   H12F11529   4.030   1.623   9.372 -0.8144  0.7391 -1.0022
  111OSM   H12G11530   4.195   1.674   9.420 -0.0962  2.1059 -0.3091
  111OSM   C13F11531   4.193   1.572   9.233 -0.4894  0.2314 -0.3199
  111OSM   H13F11532   4.210   1.482   9.296 -0.4261 -0.1240 -0.8374
  111OSM   H13G11533   4.284   1.620   9.191  0.0281 -0.4285  0.0328
  111OSM   C14F11534   4.108   1.534   9.109 -0.4159 -0.2780  0.1613
  111OSM   H14F11535   4.088   1.624   9.047 -1.8902  0.6856  1.9346
  111OSM   H14G11536   4.009   1.491   9.137 -1.0159  1.2887  0.6132
  111OSM   C15F11537   4.179   1.427   9.020 -0.2914 -0.2084 -0.1981
  111OSM   H15F11538   4.101   1.405   8.944 -1.6042 -0.2630  1.1296
  111OSM   H15G11539   4.206   1.336   9.079 -0.2192 -0.2823 -0.3447
  111OSM   C16F11540   4.299   1.490   8.946  0.1487 -0.6860 -0.1410
  111OSM   H16F11541   4.400   1.474   8.991  1.4925  0.3174 -2.5883
  111OSM   H16G11542   4.280   1.599   8.952  2.8154 -0.1719  0.3313
  111OSM   C17F11543   4.299   1.447   8.798  0.0432  0.3393 -0.4898
  111OSM   H17F11544   4.202   1.476   8.752 -0.2389  0.2353  0.0293
  111OSM   H17G11545   4.300   1.337   8.790  1.6040  0.4740 -3.8504
  111OSM   C18F11546   4.426   1.509   8.738 -0.6380  0.1070 -0.3819
  111OSM   H18F11547   4.419   1.620   8.734  2.1412  0.4165  0.7855
  111OSM   H18G11548   4.436   1.464   8.637  0.3393  1.6847 -1.0227
  111OSM   H18H11549   4.523   1.495   8.791 -1.3131 -0.8164  0.6553
  112OSM      N11550   3.413   0.155  10.997  0.4808 -0.1696  0.1265
  112OSM    C1511551   3.416   0.052  11.100 -0.1209  0.5172 -0.2081
  112OSM   H15A11552   3.485  -0.028  11.076  1.8267  2.3158 -0.9769
  112OSM   H15B11553   3.319   0.012  11.124  0.8842 -1.2535  1.1638
  112OSM   H15C11554   3.459   0.099  11.187 -0.7658 -0.6088  0.7307
  112OSM    C1411555   3.322   0.269  11.039 -0.0602 -0.5337 -0.8070
  112OSM   H14A11556   3.219   0.237  11.043  1.2506 -5.5359 -0.1537
  112OSM   H14B11557   3.337   0.353  10.973  1.6848  0.6840  1.0019
  112OSM   H14C11558   3.350   0.314  11.133 -0.7769  1.4913 -1.5119
  112OSM    C1311559   3.548   0.211  11.004 -0.2056  0.9099  0.0883
  112OSM   H13A11560   3.562   0.239  11.107 -0.4007  1.6850 -0.0884
  112OSM   H13B11561   3.553   0.297  10.940  0.0617  0.5721 -0.3522
  112OSM   H13C11562   3.619   0.135  10.973 -0.6196  0.3197  0.5533
  112OSM    C1211563   3.380   0.109  10.854  0.6600  0.0506 -0.4872
  112OSM   H12A11564   3.366   0.197  10.793 -3.8075 -0.4674 -0.5494
  112OSM   H12B11565   3.278   0.073  10.861 -0.0857  2.0926 -0.3975
  112OSM    C1111566   3.471   0.007  10.776 -0.2686  0.9096 -0.2090
  112OSM   H11A11567   3.544   0.076  10.729  1.9875  0.7005  2.6835
  112OSM   H11B11568   3.417  -0.046  10.695 -0.1764  0.4304  0.0342
  112OSM      P11569   3.702  -0.099  10.850  0.0923  0.5187  0.1162
  112OSM    O1311570   3.766   0.030  10.819 -0.0410  0.1506 -0.0734
  112OSM    O1411571   3.740  -0.158  10.978 -0.0747 -0.5598  0.1892
  112OSM    O1111572   3.732  -0.197  10.727  0.3138 -0.1418  0.0841
  112OSM    O1211573   3.543  -0.092  10.848 -0.2223  0.1819 -0.3587
  112OSM    C1S11574   3.637  -0.294  10.686 -0.8022 -0.3502  0.0037
  112OSM    H1S11575   3.534  -0.255  10.701 -0.6059  1.2251 -2.1909
  112OSM    H1T11576   3.645  -0.388  10.744 -1.7931 -0.1535  0.4765
  112OSM     NF11577   3.528  -0.420  10.499 -0.6511 -0.0322  0.5718
  112OSM    HNF11578   3.549  -0.518  10.501  0.6679  0.2308  2.7799
  112OSM    C2S11579   3.638  -0.325  10.530  0.4497  0.2736 -0.0155
  112OSM    H2S11580   3.610  -0.229  10.482  1.5735  0.0905 -1.0923
  112OSM    C3S11581   3.783  -0.366  10.492  0.7920 -0.0263  0.6636
  112OSM    H3S11582   3.816  -0.450  10.557 -0.1178 -0.6597  0.3339
  112OSM     O311583   3.888  -0.270  10.496  0.7299 -0.2727 -0.5823
  112OSM    HO311584   3.856  -0.189  10.538  2.2767  0.5131 -0.8495
  112OSM    C4S11585   3.775  -0.425  10.352  0.8060 -0.5055  0.3162
  112OSM    H4S11586   3.753  -0.533  10.346  0.5360 -0.4588  0.4227
  112OSM    C5S11587   3.799  -0.365  10.229 -0.1834 -0.2095  0.5952
  112OSM    H5S11588   3.803  -0.257  10.207 -1.7408 -0.7568 -3.2407
  112OSM    C6S11589   3.803  -0.450  10.103 -0.6712 -0.0781  0.6241
  112OSM    H6S11590   3.782  -0.559  10.115 -0.1814 -0.2084  0.3233
  112OSM    H6T11591   3.901  -0.423  10.058 -0.5715 -0.3958  0.6466
  112OSM    C7S11592   3.693  -0.388  10.018  0.0820  0.5992  0.4184
  112OSM    H7S11593   3.708  -0.278  10.011 -2.8908  1.0059 -1.8097
  112OSM    H7T11594   3.595  -0.408  10.067 -0.4924  0.6320 -0.6789
  112OSM    C8S11595   3.679  -0.457   9.886 -0.1196 -0.2887  0.0655
  112OSM    H8S11596   3.687  -0.568   9.892  1.7798 -0.1610  0.3369
  112OSM    H8T11597   3.750  -0.422   9.808  0.0442 -0.7977 -0.0189
  112OSM    C9S11598   3.531  -0.433   9.840  0.3463  0.3727 -0.3472
  112OSM    H9S11599   3.497  -0.327   9.835 -1.5273 -0.2133 -0.6071
  112OSM    H9T11600   3.456  -0.477   9.909 -1.0991  0.1625 -2.0041
  112OSM   C10S11601   3.504  -0.503   9.706  0.0211 -0.3488 -0.0566
  112OSM   H10S11602   3.397  -0.488   9.681 -0.3646  1.5386  2.3867
  112OSM   H10T11603   3.519  -0.613   9.711 -3.1132 -0.7879  1.3464
  112OSM   C11S11604   3.582  -0.432   9.591  0.1761 -0.0460 -0.5186
  112OSM   H11S11605   3.688  -0.464   9.592  0.7050  1.6513 -0.5281
  112OSM   H11T11606   3.583  -0.323   9.610 -0.2383 -0.3173  1.2444
  112OSM   C12S11607   3.512  -0.474   9.455 -0.0992  0.2150 -0.6234
  112OSM   H12S11608   3.402  -0.466   9.466 -0.2384 -0.1805 -1.6652
  112OSM   H12T11609   3.532  -0.582   9.439  1.3486  0.2803  0.4902
  112OSM   C13S11610   3.570  -0.409   9.329 -0.4173  0.3530  0.4329
  112OSM   H13S11611   3.666  -0.460   9.304  0.2525  1.8497 -0.1863
  112OSM   H13T11612   3.582  -0.299   9.343  1.6946  0.1549  0.5127
  112OSM   C14S11613   3.484  -0.445   9.209 -0.3315 -0.0004  0.1842
  112OSM   H14S11614   3.379  -0.428   9.238  0.5293  1.7811  2.5025
  112OSM   H14T11615   3.494  -0.553   9.185  0.7956  0.4064 -1.3306
  112OSM   C15S11616   3.506  -0.365   9.074  0.6316  0.6567 -0.2928
  112OSM   H15S11617   3.601  -0.398   9.025  0.5488  1.8194 -1.2901
  112OSM   H15T11618   3.513  -0.259   9.106 -1.4165  1.0264 -0.9386
  112OSM   C16S11619   3.400  -0.391   8.972  0.0227 -0.0220 -0.3558
  112OSM   H16S11620   3.298  -0.377   9.013 -2.1977 -3.2673 -4.0748
  112OSM   H16T11621   3.415  -0.492   8.928 -1.0304 -0.2918 -0.1278
  112OSM   C17S11622   3.415  -0.299   8.852 -0.1622  0.0300 -0.8121
  112OSM   H17S11623   3.525  -0.285   8.840  0.0297 -0.1689  0.5731
  112OSM   H17T11624   3.373  -0.200   8.879 -2.3112 -0.1613 -3.0715
  112OSM   C18S11625   3.346  -0.342   8.724 -0.5377  0.1785  0.1690
  112OSM   H18S11626   3.378  -0.432   8.668 -0.8151  0.6231 -0.7222
  112OSM   H18T11627   3.354  -0.259   8.650  3.0170  0.1990  0.4026
  112OSM   H18U11628   3.237  -0.358   8.743 -0.4377 -1.0087 -0.2117
  112OSM    C1F11629   3.404  -0.381  10.506  0.9823  0.4314 -1.1883
  112OSM     OF11630   3.382  -0.262  10.528  0.2070  0.0150 -0.3617
  112OSM    C2F11631   3.301  -0.490  10.516  0.3349  0.0500  0.0180
  112OSM    H2F11632   3.266  -0.493  10.622 -3.0281 -2.2305 -1.0091
  112OSM    H2G11633   3.345  -0.592  10.506  0.6479  0.1817  0.0282
  112OSM    C3F11634   3.187  -0.476  10.411 -0.2462 -0.1614 -0.1386
  112OSM    H3F11635   3.154  -0.369  10.412 -1.0641 -0.3927  0.9480
  112OSM    H3G11636   3.097  -0.533  10.444 -0.2657  0.2662  0.5833
  112OSM    C4F11637   3.230  -0.525  10.273 -0.4587 -0.1287  0.0238
  112OSM    H4F11638   3.276  -0.625  10.286  0.5810  0.5210  1.7670
  112OSM    H4G11639   3.311  -0.463  10.229 -1.4829 -0.0075 -1.8193
  112OSM    C5F11640   3.116  -0.523  10.174  0.1024 -0.2943 -1.1459
  112OSM    H5F11641   3.044  -0.439  10.184  0.6383  0.3998 -2.7161
  112OSM    H5G11642   3.047  -0.610  10.186  3.1304 -3.0282 -2.1098
  112OSM    C6F11643   3.161  -0.532  10.024  0.3423 -0.1145 -0.5961
  112OSM    H6F11644   3.234  -0.615  10.014  1.3570  0.4725  1.4649
  112OSM    H6G11645   3.227  -0.444  10.011  1.6376 -1.2175 -1.9828
  112OSM    C7F11646   3.049  -0.525   9.914 -0.4995  0.0774 -0.8385
  112OSM    H7F11647   3.029  -0.418   9.890 -0.4214 -0.1032 -1.7643
  112OSM    H7G11648   2.959  -0.579   9.949 -0.5070  1.9162  2.3763
  112OSM    C8F11649   3.093  -0.589   9.783 -0.2319 -0.2265  0.3700
  112OSM    H8F11650   3.128  -0.692   9.806  0.0291  0.4281  3.1916
  112OSM    H8G11651   3.173  -0.538   9.725 -1.0143  0.1381 -0.4088
  112OSM    C9F11652   2.970  -0.611   9.696  0.3413 -0.5178 -0.0843
  112OSM    H9F11653   2.885  -0.645   9.755 -0.7862  3.1868  0.6972
  112OSM   C10F11654   2.962  -0.576   9.570  0.0537  0.3349  0.0305
  112OSM   H10F11655   2.862  -0.577   9.524 -0.2892  0.4104  0.7580
  112OSM   C11F11656   3.069  -0.513   9.486 -0.2979 -0.3579  0.2891
  112OSM   H11F11657   3.171  -0.511   9.530 -0.8780 -0.9273  1.7421
  112OSM   H11G11658   3.033  -0.408   9.479  0.4589 -0.1329 -0.3353
  112OSM   C12F11659   3.076  -0.558   9.340  0.0310  1.2535  0.2356
  112OSM   H12F11660   3.129  -0.485   9.275 -1.2233  0.7827 -1.3619
  112OSM   H12G11661   2.973  -0.567   9.300  0.0045  1.4914  0.2470
  112OSM   C13F11662   3.159  -0.676   9.307  0.0465 -0.1479 -0.2786
  112OSM   H13F11663   3.139  -0.761   9.377  3.1826 -1.9798 -1.4084
  112OSM   H13G11664   3.267  -0.652   9.311  0.3471 -1.4253 -0.0636
  112OSM   C14F11665   3.121  -0.739   9.174  0.3586  0.7431 -0.7737
  112OSM   H14F11666   3.013  -0.763   9.187  0.5591  0.5806  0.8271
  112OSM   H14G11667   3.166  -0.840   9.170  2.1257  1.3626  1.4663
  112OSM   C15F11668   3.120  -0.654   9.053  0.4240 -0.3876 -0.6738
  112OSM   H15F11669   3.213  -0.593   9.044  0.4252  0.0266  1.5689
  112OSM   H15G11670   3.042  -0.579   9.078  0.7940 -0.4494  0.7756
  112OSM   C16F11671   3.069  -0.730   8.926  0.1317 -0.2171 -0.3883
  112OSM   H16F11672   2.961  -0.755   8.926  0.3727 -1.2806 -0.3746
  112OSM   H16G11673   3.118  -0.829   8.917  0.5823  0.1521 -2.7464
  112OSM   C17F11674   3.097  -0.638   8.812 -0.2900 -0.0483  0.1116
  112OSM   H17F11675   3.196  -0.590   8.825 -0.5693  0.9331 -1.0950
  112OSM   H17G11676   3.026  -0.552   8.811 -0.7024 -0.3836  0.2428
  112OSM   C18F11677   3.107  -0.708   8.666 -0.9345 -0.2153 -0.5131
  112OSM   H18F11678   3.138  -0.633   8.589  0.4771 -0.5043 -0.2634
  112OSM   H18G11679   3.006  -0.741   8.634 -0.9250 -1.4049  0.6319
  112OSM   H18H11680   3.175  -0.793   8.643 -0.3565  0.2660 -0.6091
  113OSM      N11681   4.080   6.512  10.878  0.6500 -0.5636 -0.6757
  113OSM    C1511682   3.997   6.453  10.982 -0.3624 -0.5201  0.2485
  113OSM   H15A11683   3.897   6.489  10.962 -0.0279 -0.3702 -1.2750
  113OSM   H15B11684   4.024   6.478  11.084 -0.0987  2.3658 -0.4329
  113OSM   H15C11685   3.994   6.346  10.974 -0.5396 -0.5160  0.2378
  113OSM    C1411686   4.068   6.661  10.882  0.1895  0.0506 -0.6234
  113OSM   H14A11687   4.143   6.710  10.821  0.5022 -0.6684 -0.8244
  113OSM   H14B11688   4.074   6.695  10.984  0.9372 -0.6105 -0.4390
  113OSM   H14C11689   3.972   6.695  10.846  0.5536  1.0768 -0.6743
  113OSM    C1311690   4.223   6.472  10.911 -0.4838  0.6088  0.2578
  113OSM   H13A11691   4.293   6.527  10.849 -0.7049  1.8074  1.0253
  113OSM   H13B11692   4.235   6.366  10.894  0.5635  0.8586 -0.6924
  113OSM   H13C11693   4.239   6.489  11.016  1.4175 -2.4309  0.5714
  113OSM    C1211694   4.034   6.464  10.739  0.2130 -0.7048  0.1791
  113OSM   H12A11695   4.081   6.526  10.664 -0.5813 -0.4178 -0.0936
  113OSM   H12B11696   3.935   6.505  10.731  0.5281  0.2798  1.0231
  113OSM    C1111697   4.040   6.321  10.699 -0.5735  0.3963 -0.3492
  113OSM   H11A11698   4.138   6.281  10.731 -0.9651  0.3763  0.8812
  113OSM   H11B11699   4.047   6.321  10.588  1.7618  3.8823 -0.3502
  113OSM      P11700   3.958   6.121  10.824  0.5523  0.3654  0.2159
  113OSM    O1311701   4.072   6.145  10.910 -0.1995 -0.1700  0.0570
  113OSM    O1411702   3.835   6.070  10.890  0.0862  0.4929 -0.1980
  113OSM    O1111703   3.994   6.007  10.718 -0.7187  0.3688  0.3011
  113OSM    O1211704   3.921   6.254  10.751 -0.8231  0.4576  0.4832
  113OSM    C1S11705   3.889   5.956  10.634 -0.9286 -0.4990  0.4219
  113OSM    H1S11706   3.789   5.959  10.683 -1.6313  0.1472 -0.9688
  113OSM    H1T11707   3.921   5.851  10.615  0.5840 -0.6206  3.2020
  113OSM     NF11708   3.758   5.987  10.436  0.0542  0.3238 -0.4404
  113OSM    HNF11709   3.765   5.911  10.371  3.9639  0.9512 -1.0252
  113OSM    C2S11710   3.884   6.025  10.497  0.3840  0.9335  0.1004
  113OSM    H2S11711   3.887   6.135  10.515  1.1436  0.9676 -0.2299
  113OSM    C3S11712   4.015   5.992  10.422 -0.1905 -0.1218  0.1873
  113OSM    H3S11713   4.028   5.883  10.405  0.0063  0.3064 -2.9919
  113OSM     O311714   4.122   6.033  10.505  0.0592  0.1880  0.6922
  113OSM    HO311715   4.080   6.050  10.589 -1.1735 -2.7640  0.8149
  113OSM    C4S11716   4.028   6.048  10.283 -0.7973 -0.3234 -0.3748
  113OSM    H4S11717   4.046   6.156  10.282 -0.6531 -0.2950  1.1977
  113OSM    C5S11718   4.034   5.982  10.168 -0.0384  0.3412  0.1554
  113OSM    H5S11719   4.023   5.873  10.158 -3.0447  0.6962 -1.5438
  113OSM    C6S11720   4.067   6.051  10.033 -0.8835 -0.1744 -0.3687
  113OSM    H6S11721   4.173   6.045  10.001 -0.2870  1.1900  1.2156
  113OSM    H6T11722   4.053   6.161  10.042 -0.7398 -0.1340 -0.6319
  113OSM    C7S11723   3.970   6.007   9.924 -0.0231 -0.0029  0.2189
  113OSM    H7S11724   3.868   6.032   9.963  0.9709  3.4235  0.9596
  113OSM    H7T11725   3.983   5.897   9.911  1.9190  0.1612  0.5777
  113OSM    C8S11726   3.997   6.074   9.793 -0.1578  0.1035  0.0563
  113OSM    H8S11727   4.098   6.056   9.750 -0.2711 -1.4969  0.3906
  113OSM    H8T11728   3.983   6.184   9.796  1.2680  0.3527 -1.1744
  113OSM    C9S11729   3.906   6.032   9.689  0.0637 -0.4883  0.3654
  113OSM    H9S11730   3.804   6.067   9.715  0.4859  1.6864 -0.7275
  113OSM    H9T11731   3.895   5.921   9.687 -0.9890 -0.5047  2.9190
  113OSM   C10S11732   3.925   6.094   9.552  0.6401 -0.1601  0.5968
  113OSM   H10S11733   4.028   6.071   9.518  0.9480  0.4254  1.1082
  113OSM   H10T11734   3.917   6.205   9.557  0.2741 -0.1659  0.2383
  113OSM   C11S11735   3.811   6.055   9.463 -0.1244  0.3670 -0.0498
  113OSM   H11S11736   3.713   6.096   9.494 -2.1609 -2.5392 -2.0870
  113OSM   H11T11737   3.794   5.945   9.472  0.8676  0.0772 -1.3319
  113OSM   C12S11738   3.842   6.089   9.316 -0.2562 -0.0211 -0.1541
  113OSM   H12S11739   3.938   6.056   9.272  0.7081  2.7438 -0.3382
  113OSM   H12T11740   3.860   6.198   9.307  1.7832 -0.3723 -0.7158
  113OSM   C13S11741   3.726   6.045   9.218 -0.3017  0.2228 -0.3748
  113OSM   H13S11742   3.632   6.092   9.254 -0.3513  1.1263 -1.6144
  113OSM   H13T11743   3.720   5.935   9.212  2.5543  0.0608 -2.4854
  113OSM   C14S11744   3.753   6.096   9.077 -0.0065  0.5484  0.7115
  113OSM   H14S11745   3.845   6.053   9.033 -2.2698 -0.8183 -3.2119
  113OSM   H14T11746   3.765   6.206   9.079 -1.3082  0.7212  0.1498
  113OSM   C15S11747   3.652   6.052   8.967  0.5628  0.2155  0.1851
  113OSM   H15S11748   3.548   6.044   9.006  0.6842 -0.3362  0.4058
  113OSM   H15T11749   3.681   5.951   8.930 -0.9948 -0.1325 -0.1868
  113OSM   C16S11750   3.662   6.135   8.844  0.2765 -0.5391  0.8167
  113OSM   H16S11751   3.767   6.132   8.807 -0.4365  0.7920 -1.5754
  113OSM   H16T11752   3.650   6.243   8.864 -0.8777 -0.3428 -0.6934
  113OSM   C17S11753   3.564   6.095   8.728  0.3577  0.0271 -0.0488
  113OSM   H17S11754   3.460   6.106   8.765 -0.1160 -1.0218 -1.0229
  113OSM   H17T11755   3.588   5.989   8.704  2.8543  0.7259 -0.9695
  113OSM   C18S11756   3.578   6.171   8.602  0.7186 -0.2701  0.0263
  113OSM   H18S11757   3.504   6.126   8.532  0.7081 -0.9535  0.4676
  113OSM   H18T11758   3.679   6.160   8.557  0.7757 -0.4295  0.1969
  113OSM   H18U11759   3.564   6.281   8.609  1.3594 -0.1577 -0.3474
  113OSM    C1F11760   3.643   6.026  10.472  0.6464  0.4102 -1.1539
  113OSM     OF11761   3.628   6.129  10.532 -0.3218 -0.3607 -0.0108
  113OSM    C2F11762   3.527   5.946  10.412 -0.0043  0.2945 -0.0762
  113OSM    H2F11763   3.440   5.954  10.481  1.1352 -0.6269  1.5051
  113OSM    H2G11764   3.545   5.837  10.420 -0.2119  0.3232  0.8575
  113OSM    C3F11765   3.489   5.982  10.273  0.8596 -0.3451 -0.7426
  113OSM    H3F11766   3.486   6.093  10.275 -0.3854 -0.2994  3.7386
  113OSM    H3G11767   3.388   5.943  10.247  0.4686  1.1528 -1.5416
  113OSM    C4F11768   3.579   5.930  10.153 -0.2865  0.0986 -0.0074
  113OSM    H4F11769   3.556   5.821  10.152  2.3169 -0.5140 -0.6647
  113OSM    H4G11770   3.685   5.943  10.184 -0.4440  0.4173  0.4088
  113OSM    C5F11771   3.545   6.013  10.025  0.5222 -0.3951 -0.2230
  113OSM    H5F11772   3.594   6.112  10.037 -3.1206  1.3089  2.3291
  113OSM    H5G11773   3.440   6.049  10.022  0.5146 -0.4448 -0.5712
  113OSM    C6F11774   3.580   5.941   9.895  0.3005  0.6440  0.0974
  113OSM    H6F11775   3.681   5.898   9.905 -0.4591 -1.0701  0.8507
  113OSM    H6G11776   3.562   6.018   9.817 -0.3238  0.0545 -0.3626
  113OSM    C7F11777   3.480   5.820   9.867 -0.0176  0.1215  0.7510
  113OSM    H7F11778   3.376   5.858   9.876 -0.6055 -1.3781  0.6313
  113OSM    H7G11779   3.494   5.740   9.944  1.6417 -0.2354  0.1108
  113OSM    C8F11780   3.512   5.777   9.724 -0.0006  0.1014 -0.7929
  113OSM    H8F11781   3.444   5.692   9.702  4.4144 -4.0990  0.0291
  113OSM    H8G11782   3.610   5.727   9.720 -0.3484 -0.7639  0.7885
  113OSM    C9F11783   3.506   5.884   9.610  0.0013  0.5424  0.4523
  113OSM    H9F11784   3.570   5.971   9.631 -0.8713  2.2406 -3.2324
  113OSM   C10F11785   3.426   5.877   9.503  0.2802  0.0267 -0.5399
  113OSM   H10F11786   3.432   5.949   9.420 -0.2874 -1.8091 -2.2450
  113OSM   C11F11787   3.319   5.767   9.471 -0.5936 -0.1838  0.6946
  113OSM   H11F11788   3.222   5.795   9.516 -0.0118  1.9129  0.7738
  113OSM   H11G11789   3.337   5.671   9.525  0.6280 -0.2009  0.3004
  113OSM   C12F11790   3.302   5.729   9.324  0.0749 -0.6289 -0.7321
  113OSM   H12F11791   3.249   5.809   9.268 -2.3029 -1.8944 -0.4576
  113OSM   H12G11792   3.238   5.638   9.329  0.7040 -1.0483 -0.2628
  113OSM   C13F11793   3.430   5.687   9.251  0.5040 -0.3845 -0.0979
  113OSM   H13F11794   3.477   5.602   9.305 -1.0805 -3.0864 -2.6658
  113OSM   H13G11795   3.507   5.766   9.238  0.7770 -0.7837 -0.9846
  113OSM   C14F11796   3.409   5.636   9.105  0.0115  0.3073 -0.1431
  113OSM   H14F11797   3.351   5.542   9.110  1.2073 -0.3991  1.3848
  113OSM   H14G11798   3.508   5.604   9.066  0.5528 -0.5454  1.8058
  113OSM   C15F11799   3.342   5.735   9.004 -0.6070 -0.5569  0.0718
  113OSM   H15F11800   3.415   5.816   8.985  0.6451 -1.1973  1.9222
  113OSM   H15G11801   3.245   5.777   9.038  1.4473  2.7336  2.4060
  113OSM   C16F11802   3.325   5.681   8.862 -0.1399  0.7109 -0.1497
  113OSM   H16F11803   3.242   5.608   8.863  0.5399 -0.1348  2.2931
  113OSM   H16G11804   3.425   5.638   8.839  1.1735  2.8256  1.2622
  113OSM   C17F11805   3.290   5.777   8.747 -0.2437  0.1933 -1.3366
  113OSM   H17F11806   3.378   5.843   8.735  0.3687  0.1563  1.8683
  113OSM   H17G11807   3.210   5.850   8.771 -0.9376 -0.1906 -2.4244
  113OSM   C18F11808   3.258   5.709   8.620  0.1973  0.4083  0.2555
  113OSM   H18F11809   3.231   5.782   8.541  1.0255  1.0266  0.5358
  113OSM   H18G11810   3.173   5.637   8.623 -0.4615  1.1499 -0.2509
  113OSM   H18H11811   3.353   5.670   8.578  0.9083  1.0558  1.2311
  114OSM      N11812   4.917   5.122  11.649 -0.2635 -0.0566 -0.0914
  114OSM    C1511813   5.051   5.148  11.607 -0.8436  0.1637  0.9828
  114OSM   H15A11814   5.121   5.108  11.679  0.7890  1.2343  0.0620
  114OSM   H15B11815   5.060   5.255  11.601 -3.6308  0.5717  2.3730
  114OSM   H15C11816   5.076   5.101  11.512  1.8248  0.7967  1.3108
  114OSM    C1411817   4.901   4.975  11.671  0.5245 -0.1050 -0.6050
  114OSM   H14A11818   4.989   4.927  11.711  1.1300  0.8130 -0.7851
  114OSM   H14B11819   4.875   4.927  11.578  0.6912 -0.5532 -0.4230
  114OSM   H14C11820   4.819   4.956  11.739  1.6532 -1.3649  0.4536
  114OSM    C1311821   4.901   5.190  11.782 -0.1434  0.0578 -0.4573
  114OSM   H13A11822   4.799   5.179  11.815 -0.7112 -0.0764 -2.1642
  114OSM   H13B11823   4.924   5.295  11.779  0.8316 -0.1283 -0.0873
  114OSM   H13C11824   4.972   5.157  11.857 -1.0394 -1.3131 -0.1697
  114OSM    C1211825   4.816   5.172  11.546  0.3453 -0.2712  0.6163
  114OSM   H12A11826   4.818   5.280  11.535 -0.6224 -0.2387  0.6437
  114OSM   H12B11827   4.714   5.160  11.580 -0.4684  0.9288 -1.2178
  114OSM    C1111828   4.822   5.115  11.402  0.2770  0.6772 -0.7193
  114OSM   H11A11829   4.930   5.118  11.377  0.2236  0.2997 -0.9938
  114OSM   H11B11830   4.766   5.183  11.334 -0.8499  0.3058 -0.2013
  114OSM      P11831   4.615   4.956  11.367  0.1994 -0.0774  0.1712
  114OSM    O1311832   4.589   4.810  11.377  0.4065 -0.0989 -0.4056
  114OSM    O1411833   4.533   5.044  11.451 -0.2722 -0.4801  0.3196
  114OSM    O1111834   4.596   5.007  11.216  0.3212 -0.1454 -0.0236
  114OSM    O1211835   4.769   4.985  11.400 -0.3276  0.1489  0.3603
  114OSM    C1S11836   4.600   4.911  11.107 -0.1304 -0.3063  0.4623
  114OSM    H1S11837   4.494   4.884  11.083 -0.8584  0.0657  2.9774
  114OSM    H1T11838   4.669   4.829  11.135 -0.0497 -0.1728  0.6550
  114OSM     NF11839   4.678   4.868  10.874  0.4230 -0.2451  0.9302
  114OSM    HNF11840   4.771   4.852  10.842  0.6703 -0.3363  1.6803
  114OSM    C2S11841   4.649   4.978  10.967  0.2216  0.1793 -0.0187
  114OSM    H2S11842   4.568   5.037  10.919 -1.7900 -1.5929  1.0007
  114OSM    C3S11843   4.776   5.073  10.991 -0.2429  0.0520 -0.1051
  114OSM    H3S11844   4.852   5.004  11.031 -0.6797  1.9288  4.6073
  114OSM     O311845   4.755   5.183  11.085 -0.1738  0.1867 -1.2311
  114OSM    HO311846   4.677   5.153  11.133  1.9406 -0.6701  1.9359
  114OSM    C4S11847   4.820   5.134  10.856  0.4660 -0.3755  0.0913
  114OSM    H4S11848   4.918   5.091  10.832  0.2601 -0.4694 -0.6020
  114OSM    C5S11849   4.754   5.225  10.779  0.2435 -0.1361  0.2755
  114OSM    H5S11850   4.656   5.256  10.820 -0.5182 -2.9772  0.8189
  114OSM    C6S11851   4.804   5.285  10.643 -0.1614  1.2548 -0.6650
  114OSM    H6S11852   4.819   5.395  10.643 -0.4253  1.2918 -0.3787
  114OSM    H6T11853   4.728   5.261  10.566  0.4019 -2.8305 -0.1677
  114OSM    C7S11854   4.935   5.225  10.579 -0.1443 -0.2359  0.6463
  114OSM    H7S11855   5.010   5.228  10.661  1.5653  0.1395 -0.8869
  114OSM    H7T11856   4.965   5.307  10.511  0.8179  0.7968  2.2579
  114OSM    C8S11857   4.930   5.084  10.524 -0.8860  0.8063 -0.8370
  114OSM    H8S11858   4.849   5.078  10.449 -1.3582  0.3120 -0.3036
  114OSM    H8T11859   4.914   5.010  10.606 -1.7632  0.7421 -1.0546
  114OSM    C9S11860   5.065   5.041  10.454  0.7127 -0.7303  0.3031
  114OSM    H9S11861   5.149   5.058  10.524  1.3309  0.3435 -0.6509
  114OSM    H9T11862   5.082   5.106  10.365  0.6024  0.0657  0.8479
  114OSM   C10S11863   5.062   4.893  10.390  0.4036 -0.4014  0.1627
  114OSM   H10S11864   4.974   4.878  10.324  0.9205 -0.6161 -0.4810
  114OSM   H10T11865   5.043   4.824  10.475 -2.9694 -0.6765 -0.6664
  114OSM   C11S11866   5.198   4.855  10.333  1.0997 -0.2670 -0.2820
  114OSM   H11S11867   5.275   4.866  10.412 -0.7638 -0.4339  1.6342
  114OSM   H11T11868   5.230   4.931  10.257  0.6792  0.2138  0.0141
  114OSM   C12S11869   5.195   4.722  10.263 -0.3053  0.4354  0.5328
  114OSM   H12S11870   5.098   4.716  10.209  0.3831  1.9484 -0.9188
  114OSM   H12T11871   5.200   4.639  10.337 -1.6085  0.4211  0.6409
  114OSM   C13S11872   5.314   4.689  10.167 -0.7627 -0.2712 -0.4260
  114OSM   H13S11873   5.278   4.600  10.111  0.5796 -1.1761  0.1163
  114OSM   H13T11874   5.406   4.675  10.227 -1.0267  2.2061  0.7081
  114OSM   C14S11875   5.345   4.787  10.049  0.3297 -0.5172 -0.2251
  114OSM   H14S11876   5.405   4.872  10.086  0.1043  1.0718 -3.2008
  114OSM   H14T11877   5.245   4.827  10.019  0.8155  0.6805 -0.3035
  114OSM   C15S11878   5.416   4.723   9.933 -0.8516 -0.3550 -0.3804
  114OSM   H15S11879   5.349   4.638   9.910  0.5641 -2.0582  1.4310
  114OSM   H15T11880   5.513   4.675   9.957 -0.6989 -0.6147 -1.4615
  114OSM   C16S11881   5.421   4.822   9.814  0.5223 -0.0808  0.4589
  114OSM   H16S11882   5.506   4.894   9.813  0.6412 -0.2201 -0.1602
  114OSM   H16T11883   5.329   4.883   9.812  0.4251 -0.2246  0.5304
  114OSM   C17S11884   5.422   4.749   9.681 -0.1999 -0.0483 -0.1791
  114OSM   H17S11885   5.335   4.679   9.683 -0.6396  0.4723 -0.7793
  114OSM   H17T11886   5.513   4.686   9.668 -0.8923 -0.6133 -3.0717
  114OSM   C18S11887   5.417   4.842   9.554 -0.4560 -0.2241 -0.0030
  114OSM   H18S11888   5.495   4.921   9.560 -0.0503 -0.5257 -1.0026
  114OSM   H18T11889   5.321   4.896   9.567  0.8976  2.6349 -1.0959
  114OSM   H18U11890   5.424   4.792   9.454  3.8634 -0.2985  0.1601
  114OSM    C1F11891   4.576   4.802  10.825  0.8905 -0.1295 -0.5771
  114OSM     OF11892   4.458   4.837  10.854 -0.5382  0.0807  0.2262
  114OSM    C2F11893   4.605   4.690  10.731 -0.9982 -0.3795  0.1040
  114OSM    H2F11894   4.533   4.606  10.740 -2.2759  0.6132 -0.5361
  114OSM    H2G11895   4.709   4.657  10.753 -0.5654  0.3588 -0.7646
  114OSM    C3F11896   4.622   4.752  10.588  0.8975  0.1807  0.1259
  114OSM    H3F11897   4.699   4.832  10.592 -0.0604  1.3073 -1.8343
  114OSM    H3G11898   4.524   4.793  10.555  0.2203 -0.8314  0.8272
  114OSM    C4F11899   4.678   4.650  10.490 -0.7965 -0.1250  0.3310
  114OSM    H4F11900   4.626   4.552  10.500 -1.4124 -0.1434 -2.3124
  114OSM    H4G11901   4.786   4.631  10.511 -0.5308 -0.6677 -1.3414
  114OSM    C5F11902   4.675   4.712  10.348 -0.1073  0.5791  0.0984
  114OSM    H5F11903   4.731   4.807  10.341 -0.0998  0.5681  0.0083
  114OSM    H5G11904   4.569   4.719  10.316 -0.3254  0.9812  0.8931
  114OSM    C6F11905   4.737   4.619  10.249 -0.0251 -0.2115 -0.6459
  114OSM    H6F11906   4.674   4.528  10.242  0.1906 -0.2985 -1.6393
  114OSM    H6G11907   4.834   4.580  10.287  0.0838 -2.1345 -2.6502
  114OSM    C7F11908   4.743   4.692  10.108 -0.0934  0.5172 -0.4154
  114OSM    H7F11909   4.804   4.783  10.122  0.2307  0.4140 -1.1329
  114OSM    H7G11910   4.642   4.735  10.091 -0.8497 -0.8449  0.3681
  114OSM    C8F11911   4.786   4.597   9.997  0.4585 -0.5402 -0.3481
  114OSM    H8F11912   4.738   4.645   9.910  2.1015  0.5685 -0.6822
  114OSM    H8G11913   4.738   4.498  10.015  1.8659 -0.9219  1.6918
  114OSM    C9F11914   4.934   4.588   9.987 -1.2244  0.2972 -0.2107
  114OSM    H9F11915   4.972   4.536  10.077 -0.0759 -0.5628 -1.1613
  114OSM   C10F11916   5.028   4.638   9.898 -0.4136  0.0340 -0.1839
  114OSM   H10F11917   5.134   4.620   9.921 -0.9953 -1.9000  1.2220
  114OSM   C11F11918   4.994   4.727   9.782  0.1427  0.4478 -0.2749
  114OSM   H11F11919   5.062   4.815   9.786  0.7008  0.0208 -0.1845
  114OSM   H11G11920   4.890   4.767   9.782 -0.5650 -1.0979  2.6243
  114OSM   C12F11921   5.013   4.630   9.664 -0.1487 -0.4322 -0.5471
  114OSM   H12F11922   4.950   4.540   9.679 -0.0507 -0.7305 -1.7954
  114OSM   H12G11923   5.121   4.609   9.650 -0.1472  0.4236 -2.0896
  114OSM   C13F11924   4.947   4.689   9.540 -0.8768  0.3042  1.1728
  114OSM   H13F11925   4.992   4.790   9.529  0.8922 -0.5135  0.5750
  114OSM   H13G11926   4.839   4.703   9.563 -1.8009 -0.0045 -2.3765
  114OSM   C14F11927   4.967   4.616   9.411  0.0967  0.5708 -0.2383
  114OSM   H14F11928   4.954   4.506   9.417 -3.2095  0.7673 -1.3753
  114OSM   H14G11929   5.068   4.645   9.375 -0.0484  2.9518  1.0442
  114OSM   C15F11930   4.864   4.666   9.302 -0.0622 -0.0751  0.3583
  114OSM   H15F11931   4.884   4.775   9.290 -3.1504  0.6206  0.6342
  114OSM   H15G11932   4.763   4.651   9.346  0.3045 -0.0899  1.2261
  114OSM   C16F11933   4.876   4.607   9.165 -0.7504  0.4362 -0.1445
  114OSM   H16F11934   4.872   4.496   9.173  0.0627  0.2252 -2.0329
  114OSM   H16G11935   4.968   4.625   9.106 -0.8002 -2.7913 -1.4172
  114OSM   C17F11936   4.771   4.662   9.079  1.0172  0.6389  0.3575
  114OSM   H17F11937   4.749   4.769   9.101 -0.4929  0.2210  1.0356
  114OSM   H17G11938   4.671   4.618   9.102  0.8044  0.5301 -0.7426
  114OSM   C18F11939   4.785   4.638   8.924  0.2373 -0.2902  0.0876
  114OSM   H18F11940   4.685   4.668   8.887  0.3121 -0.0048  0.1141
  114OSM   H18G11941   4.796   4.529   8.908 -0.1923 -0.2715 -0.3638
  114OSM   H18H11942   4.871   4.700   8.889 -1.5629  0.3313 -3.7822
  115OSM      N11943   0.859   1.777   6.236 -0.1514  0.0499 -0.2888
  115OSM    C1511944   0.978   1.858   6.223 -0.0511 -0.0038 -0.0397
  115OSM   H15A11945   0.954   1.962   6.241 -0.1007 -0.1321  0.6352
  115OSM   H15B11946   1.039   1.845   6.134 -1.9569  1.3417 -1.6159
  115OSM   H15C11947   1.046   1.835   6.304 -0.3280  0.2375  0.2581
  115OSM    C1411948   0.909   1.637   6.240 -0.0973 -0.1430  0.3322
  115OSM   H14A11949   0.976   1.619   6.323 -0.2833  0.7070  0.6798
  115OSM   H14B11950   0.974   1.618   6.155 -1.2868 -1.6040 -0.2991
  115OSM   H14C11951   0.824   1.570   6.244 -0.5238  0.3869  0.2159
  115OSM    C1311952   0.778   1.808   6.352  0.1742 -0.5975 -0.4674
  115OSM   H13A11953   0.708   1.731   6.382  0.1699  0.3724  2.3574
  115OSM   H13B11954   0.710   1.889   6.333 -1.1098 -0.8898  2.3546
  115OSM   H13C11955   0.827   1.814   6.448 -0.0205 -0.3865 -0.3810
  115OSM    C1211956   0.768   1.788   6.108  0.6779  0.1947 -0.4792
  115OSM   H12A11957   0.821   1.746   6.024 -0.1953 -0.1578 -0.8709
  115OSM   H12B11958   0.746   1.889   6.076 -1.3930 -0.5070 -1.4891
  115OSM    C1111959   0.631   1.717   6.127  0.7001  0.1069 -0.6177
  115OSM   H11A11960   0.557   1.741   6.048  1.5320  3.8672 -0.4193
  115OSM   H11B11961   0.587   1.756   6.222  3.2889  2.0835 -0.1265
  115OSM      P11962   0.525   1.497   6.212  0.1863 -0.1135 -0.2343
  115OSM    O1311963   0.396   1.550   6.169 -0.0701  0.4087  0.8948
  115OSM    O1411964   0.557   1.352   6.192  0.1189  0.5063 -0.1189
  115OSM    O1111965   0.548   1.534   6.362 -0.3089  0.2265  0.1051
  115OSM    O1211966   0.645   1.569   6.140  0.1088 -0.4999 -0.1534
  115OSM    C1S11967   0.576   1.435   6.465  0.2548  0.1385 -0.6573
  115OSM    H1S11968   0.657   1.362   6.444  0.1234 -0.7470  1.5769
  115OSM    H1T11969   0.489   1.366   6.468 -0.1196  0.6360  0.8563
  115OSM     NF11970   0.599   1.389   6.696  0.0778  0.3273 -0.9163
  115OSM    HNF11971   0.519   1.383   6.755  0.4989  0.3525 -0.3386
  115OSM    C2S11972   0.599   1.493   6.603  0.5202 -0.0082 -0.2879
  115OSM    H2S11973   0.703   1.532   6.607  0.6248 -0.3644  1.0708
  115OSM    C3S11974   0.506   1.611   6.636 -0.3942  0.9844  0.3150
  115OSM    H3S11975   0.402   1.576   6.618 -0.0535  0.6237 -1.0711
  115OSM     O311976   0.511   1.712   6.540 -0.1149  0.3622  0.0125
  115OSM    HO311977   0.531   1.658   6.463  2.3861  0.6426  0.3722
  115OSM    C4S11978   0.532   1.668   6.766 -0.2419  0.1554 -0.4022
  115OSM    H4S11979   0.637   1.696   6.785  0.3694 -1.2952 -1.4501
  115OSM    C5S11980   0.443   1.675   6.866  0.0715 -0.1748 -0.3358
  115OSM    H5S11981   0.345   1.625   6.862 -0.7506  0.9074  2.9220
  115OSM    C6S11982   0.483   1.729   7.002  0.0906 -0.0178  0.2775
  115OSM    H6S11983   0.407   1.800   7.043  0.3713  0.5836 -0.2304
  115OSM    H6T11984   0.582   1.778   6.997 -1.3886  3.2131 -3.8268
  115OSM    C7S11985   0.509   1.605   7.092  0.1739 -0.2037 -0.0720
  115OSM    H7S11986   0.571   1.533   7.034  1.3549 -0.3101  1.2889
  115OSM    H7T11987   0.411   1.558   7.115 -0.7427  0.9762 -1.3271
  115OSM    C8S11988   0.547   1.652   7.239  0.1880 -0.3713 -0.0989
  115OSM    H8S11989   0.477   1.735   7.263  0.9984 -0.1802  1.7747
  115OSM    H8T11990   0.648   1.698   7.234 -0.7671  1.8594  0.1084
  115OSM    C9S11991   0.542   1.542   7.343 -0.2714 -0.0433 -0.2587
  115OSM    H9S11992   0.627   1.476   7.317 -1.4956 -1.3587 -1.1118
  115OSM    H9T11993   0.442   1.494   7.346 -2.7177  4.4662 -0.2966
  115OSM   C10S11994   0.569   1.597   7.486  0.5192  0.3602  0.6098
  115OSM   H10S11995   0.501   1.683   7.508  1.5817  1.0991  1.0869
  115OSM   H10T11996   0.674   1.629   7.472  0.2400  1.3042  0.5827
  115OSM   C11S11997   0.566   1.493   7.588  0.1608 -0.3975 -0.2434
  115OSM   H11S11998   0.651   1.424   7.572 -1.2059 -2.1875 -0.0563
  115OSM   H11T11999   0.469   1.441   7.575  0.7247 -1.2689 -1.1452
  115OSM   C12S12000   0.573   1.545   7.736  0.0598 -1.1170  0.2066
  115OSM   H12S12001   0.478   1.597   7.763 -0.3241 -1.4923 -0.3868
  115OSM   H12T12002   0.658   1.614   7.750 -1.6205  1.3007 -0.7762
  115OSM   C13S12003   0.568   1.437   7.842 -0.3157  0.1255 -0.0077
  115OSM   H13S12004   0.655   1.369   7.832 -2.2626 -2.3687 -1.3072
  115OSM   H13T12005   0.486   1.366   7.817  1.1201 -1.1189 -1.4008
  115OSM   C14S12006   0.567   1.482   7.982 -0.0171  0.7363 -0.5056
  115OSM   H14S12007   0.476   1.542   8.005 -0.9749 -1.8337  3.4553
  115OSM   H14T12008   0.654   1.548   8.002 -0.6410  0.6195  3.3655
  115OSM   C15S12009   0.571   1.376   8.093 -0.1347 -0.4653  0.0232
  115OSM   H15S12010   0.612   1.440   8.174  1.5391  1.7359 -2.4096
  115OSM   H15T12011   0.655   1.304   8.081 -0.7549 -0.9456 -1.5421
  115OSM   C16S12012   0.439   1.306   8.123 -0.2401  0.1228 -0.0988
  115OSM   H16S12013   0.461   1.225   8.196 -1.0872 -0.9221 -0.9891
  115OSM   H16T12014   0.405   1.261   8.028 -1.8530  0.1321  0.4315
  115OSM   C17S12015   0.324   1.395   8.170 -0.3989 -0.4945  0.3625
  115OSM   H17S12016   0.235   1.331   8.190 -1.1987 -0.6212 -3.0660
  115OSM   H17T12017   0.286   1.456   8.085 -2.4419 -3.4870 -1.0445
  115OSM   C18S12018   0.362   1.479   8.293  0.5595 -0.1436  0.1938
  115OSM   H18S12019   0.419   1.571   8.269  0.4229  0.0340  0.5410
  115OSM   H18T12020   0.414   1.412   8.364 -0.4350 -0.2232  0.8689
  115OSM   H18U12021   0.268   1.511   8.343  0.8827 -1.3842  1.6903
  115OSM    C1F12022   0.689   1.290   6.712 -0.4439 -0.1503  0.0768
  115OSM     OF12023   0.796   1.304   6.656 -0.7451  0.3021 -0.1510
  115OSM    C2F12024   0.668   1.172   6.795  0.7795 -0.5164 -0.2706
  115OSM    H2F12025   0.670   1.075   6.740  0.9056 -1.7341  1.7664
  115OSM    H2G12026   0.567   1.175   6.842  0.3030 -0.6561 -1.2515
  115OSM    C3F12027   0.780   1.155   6.913  0.0971  0.4578  0.6978
  115OSM    H3F12028   0.882   1.151   6.869  0.0802 -2.0549  0.7296
  115OSM    H3G12029   0.762   1.051   6.949 -1.2513  0.1970 -0.6245
  115OSM    C4F12030   0.767   1.257   7.016  1.0846  0.2559 -0.4176
  115OSM    H4F12031   0.676   1.242   7.078  0.3569  2.4164 -0.8867
  115OSM    H4G12032   0.764   1.362   6.982  1.9543  0.7065  0.7992
  115OSM    C5F12033   0.894   1.255   7.100  0.2488  0.1139 -0.1793
  115OSM    H5F12034   0.982   1.293   7.044  0.0416 -1.7484 -1.8949
  115OSM    H5G12035   0.925   1.152   7.128 -0.3265  0.2558  1.0314
  115OSM    C6F12036   0.884   1.331   7.234 -0.1279  0.0495  0.0716
  115OSM    H6F12037   0.787   1.296   7.276 -1.3975  3.7171  0.5885
  115OSM    H6G12038   0.874   1.437   7.202  0.0112  0.4208  1.2337
  115OSM    C7F12039   1.005   1.294   7.323 -0.2485  0.7082  0.0402
  115OSM    H7F12040   1.095   1.330   7.269 -0.0437  0.7354  0.3940
  115OSM    H7G12041   1.020   1.185   7.314  2.4811  0.9252  1.0307
  115OSM    C8F12042   0.997   1.339   7.466  0.3638  0.4061  0.1326
  115OSM    H8F12043   1.061   1.280   7.535  0.6492  0.5442 -0.0144
  115OSM    H8G12044   0.893   1.347   7.506  0.3412  1.3585 -0.0795
  115OSM    C9F12045   1.048   1.484   7.476  0.0086  0.5778 -0.0151
  115OSM    H9F12046   0.997   1.559   7.414 -0.7661  0.0552 -0.0193
  115OSM   C10F12047   1.138   1.539   7.561  0.4594 -0.6899  0.3970
  115OSM   H10F12048   1.161   1.646   7.552  0.6766 -0.8236 -0.8437
  115OSM   C11F12049   1.218   1.472   7.660  0.8449  0.0818  0.9124
  115OSM   H11F12050   1.293   1.408   7.608 -1.0658  0.0468 -2.0491
  115OSM   H11G12051   1.156   1.402   7.719  0.3056 -1.4964 -1.3818
  115OSM   C12F12052   1.297   1.573   7.744  0.5407  0.0400  0.1915
  115OSM   H12F12053   1.222   1.634   7.797  2.0010  2.3124 -0.2141
  115OSM   H12G12054   1.350   1.657   7.694  1.1000  0.3511  1.2773
  115OSM   C13F12055   1.393   1.505   7.843  0.1980  0.1909 -0.3624
  115OSM   H13F12056   1.476   1.448   7.795  0.2906  0.7621 -0.8866
  115OSM   H13G12057   1.335   1.418   7.882  0.0146  1.1395  1.6030
  115OSM   C14F12058   1.429   1.584   7.978  0.3851 -0.2266 -0.0320
  115OSM   H14F12059   1.466   1.504   8.046  0.4870  0.5271  0.8218
  115OSM   H14G12060   1.332   1.628   8.010  0.7880  0.9848 -0.4391
  115OSM   C15F12061   1.530   1.704   7.965  0.0943 -1.0139  1.0518
  115OSM   H15F12062   1.535   1.746   8.068 -1.5025  1.9142  0.0487
  115OSM   H15G12063   1.494   1.770   7.883  0.4222 -0.8334  1.0491
  115OSM   C16F12064   1.668   1.647   7.929 -0.9786  0.5236  0.2798
  115OSM   H16F12065   1.678   1.545   7.970  0.9806 -0.3877 -2.2296
  115OSM   H16G12066   1.749   1.705   7.979 -0.9264  2.2390 -1.6599
  115OSM   C17F12067   1.705   1.650   7.786 -0.2343  0.1398  0.5730
  115OSM   H17F12068   1.705   1.757   7.756 -1.5972  0.5667  1.9862
  115OSM   H17G12069   1.622   1.593   7.739  0.0643  0.4834 -0.4031
  115OSM   C18F12070   1.846   1.589   7.742  0.5505 -0.0562  0.7414
  115OSM   H18F12071   1.869   1.619   7.637 -2.5792  1.2337  0.3109
  115OSM   H18G12072   1.860   1.480   7.753  2.4925  0.1509  0.5498
  115OSM   H18H12073   1.915   1.630   7.819 -0.2112  2.5145  0.1690
  116OSM      N12074   6.582   6.374   6.356  0.3837  0.1274 -0.2477
  116OSM    C1512075   6.719   6.434   6.347  0.4864  0.0143  0.7208
  116OSM   H15A12076   6.761   6.443   6.247  2.0002 -0.0210  1.3257
  116OSM   H15B12077   6.792   6.385   6.409 -0.2692 -1.2997  0.6088
  116OSM   H15C12078   6.725   6.539   6.374  2.1927 -0.1092  0.9256
  116OSM    C1412079   6.520   6.384   6.496  0.1752  0.2122  0.0617
  116OSM   H14A12080   6.575   6.322   6.565 -0.1036  1.9157  1.8976
  116OSM   H14B12081   6.415   6.357   6.503  0.1814  0.4678  1.5000
  116OSM   H14C12082   6.518   6.486   6.531 -0.9965  0.5284 -0.8542
  116OSM    C1312083   6.485   6.464   6.275  0.0116 -0.1740 -0.0058
  116OSM   H13A12084   6.523   6.468   6.174 -0.7206 -1.7200 -0.3839
  116OSM   H13B12085   6.500   6.559   6.323  0.6266 -0.1015 -0.3358
  116OSM   H13C12086   6.381   6.435   6.277  0.0126 -0.2758 -0.9412
  116OSM    C1212087   6.570   6.227   6.317 -0.2795 -0.8422 -0.5875
  116OSM   H12A12088   6.572   6.218   6.209 -1.7105 -0.9893 -0.6201
  116OSM   H12B12089   6.469   6.203   6.348 -0.1125 -1.4683 -0.5169
  116OSM    C1112090   6.667   6.130   6.382  0.3398  0.0160 -0.4304
  116OSM   H11A12091   6.622   6.032   6.357 -0.7656  0.5986 -0.8158
  116OSM   H11B12092   6.662   6.156   6.490 -1.1586 -0.2994 -0.3951
  116OSM      P12093   6.877   6.033   6.239  0.0308 -0.0579 -0.3420
  116OSM    O1312094   6.787   6.005   6.130  0.3740  0.5240 -0.5926
  116OSM    O1412095   7.008   6.090   6.206  0.4941  0.0282 -0.2943
  116OSM    O1112096   6.899   5.905   6.320 -0.0152  0.3396 -0.3468
  116OSM    O1212097   6.801   6.136   6.337  0.9252  0.2563 -0.2259
  116OSM    C1S12098   6.947   5.893   6.456  0.1273 -0.6883  0.6945
  116OSM    H1S12099   6.918   5.985   6.511  0.7114 -0.6356  0.9204
  116OSM    H1T12100   7.058   5.884   6.458  0.2172 -0.1489 -0.8133
  116OSM     NF12101   6.942   5.794   6.677 -0.1851 -0.2833  0.0423
  116OSM    HNF12102   7.036   5.766   6.697 -0.1010  0.0721  0.1559
  116OSM    C2S12103   6.894   5.773   6.542 -0.4741 -0.4967  0.0957
  116OSM    H2S12104   6.783   5.772   6.534 -0.5178  0.4035  0.5484
  116OSM    C3S12105   6.955   5.645   6.467 -0.3722 -0.3266  0.0853
  116OSM    H3S12106   7.066   5.653   6.465 -0.4406  0.6020 -1.6216
  116OSM     O312107   6.928   5.635   6.326  0.1917 -0.0487 -0.4028
  116OSM    HO312108   6.889   5.721   6.306  0.8324  0.1937 -0.6285
  116OSM    C4S12109   6.914   5.523   6.540 -0.5488  0.3443 -0.3415
  116OSM    H4S12110   6.990   5.478   6.605 -1.8590 -2.2564 -0.5016
  116OSM    C5S12111   6.793   5.462   6.522 -0.4942 -0.7929 -0.2825
  116OSM    H5S12112   6.721   5.500   6.449  0.5520  2.5908  0.3032
  116OSM    C6S12113   6.741   5.335   6.576  0.5875  0.0228 -0.4605
  116OSM    H6S12114   6.721   5.254   6.503 -1.8074  2.3445 -2.6246
  116OSM    H6T12115   6.637   5.356   6.610  0.5940  1.6563 -1.3226
  116OSM    C7S12116   6.807   5.270   6.698 -0.3990  1.0828  0.4500
  116OSM    H7S12117   6.810   5.345   6.780 -0.9291  0.3147  1.1925
  116OSM    H7T12118   6.907   5.240   6.662 -0.7723 -0.5227  0.6718
  116OSM    C8S12119   6.733   5.147   6.745  0.5242  0.3947  0.0082
  116OSM    H8S12120   6.725   5.075   6.661  2.8782  0.9695 -0.7936
  116OSM    H8T12121   6.629   5.177   6.770  1.0161  3.3654 -1.1383
  116OSM    C9S12122   6.800   5.078   6.873 -0.0457 -0.1743 -0.0428
  116OSM    H9S12123   6.910   5.084   6.867 -0.1386  1.9683 -0.0394
  116OSM    H9T12124   6.783   4.968   6.861  0.2826 -0.2113 -0.1901
  116OSM   C10S12125   6.736   5.124   7.006 -0.3022 -0.5127  0.1442
  116OSM   H10S12126   6.628   5.101   7.003  0.2910 -3.9389 -3.9948
  116OSM   H10T12127   6.752   5.228   7.042  1.8672 -0.6357 -0.3158
  116OSM   C11S12128   6.799   5.044   7.118  0.0345  0.1656  0.3772
  116OSM   H11S12129   6.908   5.063   7.121  0.5955 -2.4226 -0.6859
  116OSM   H11T12130   6.794   4.933   7.108 -1.6811  0.0710  1.7830
  116OSM   C12S12131   6.751   5.080   7.253 -0.0881 -0.3739 -0.1241
  116OSM   H12S12132   6.641   5.070   7.248 -0.1088  0.1718 -0.8954
  116OSM   H12T12133   6.787   5.184   7.264 -0.4858 -0.2702  0.2478
  116OSM   C13S12134   6.803   4.999   7.372  0.8737 -0.0267 -0.3859
  116OSM   H13S12135   6.910   4.970   7.364  1.2055  1.0830 -0.1334
  116OSM   H13T12136   6.738   4.909   7.370  0.5339  0.1948  0.4214
  116OSM   C14S12137   6.765   5.059   7.509  0.5907 -0.9689  0.2551
  116OSM   H14S12138   6.671   5.118   7.518 -0.0405 -1.9692  0.3747
  116OSM   H14T12139   6.854   5.119   7.539  0.7417 -1.5967  1.1034
  116OSM   C15S12140   6.753   4.951   7.611  0.1607  0.1428 -0.0643
  116OSM   H15S12141   6.840   4.882   7.612 -0.7831 -1.1024 -0.2779
  116OSM   H15T12142   6.665   4.891   7.579  0.4925 -0.6488  0.4941
  116OSM   C16S12143   6.751   5.005   7.757 -0.2821 -0.5912  0.2249
  116OSM   H16S12144   6.790   5.109   7.751 -0.6407 -0.4812 -0.3240
  116OSM   H16T12145   6.811   4.942   7.825 -0.2139 -0.2473  0.4855
  116OSM   C17S12146   6.609   4.998   7.816  0.3549 -0.1360  0.0370
  116OSM   H17S12147   6.576   4.892   7.809 -2.4722  0.0676  5.1760
  116OSM   H17T12148   6.537   5.058   7.757  0.4080 -1.8741 -1.9341
  116OSM   C18S12149   6.603   5.021   7.967  0.4662 -0.6734  0.3827
  116OSM   H18S12150   6.622   5.122   8.008  0.1653  0.2412 -1.6488
  116OSM   H18T12151   6.664   4.951   8.029  1.7153  0.5832  0.6239
  116OSM   H18U12152   6.501   4.986   7.992 -0.1312  0.2069 -0.7448
  116OSM    C1F12153   6.880   5.870   6.768  0.6707 -0.7503  0.1205
  116OSM     OF12154   6.775   5.937   6.743 -0.0935  0.4213  0.5705
  116OSM    C2F12155   6.946   5.878   6.901  0.7606 -0.1021 -0.0884
  116OSM    H2F12156   6.998   5.976   6.911 -0.8639  0.7022  0.8752
  116OSM    H2G12157   7.016   5.791   6.908 -1.1621 -2.0066 -2.7168
  116OSM    C3F12158   6.843   5.866   7.016  0.3957 -0.6369 -0.6221
  116OSM    H3F12159   6.811   5.760   7.012 -0.9948 -0.2484 -0.4707
  116OSM    H3G12160   6.759   5.935   6.994  0.4309 -0.8487 -1.4554
  116OSM    C4F12161   6.901   5.902   7.155 -0.7753  0.1107 -0.3837
  116OSM    H4F12162   7.002   5.856   7.166 -1.4341 -0.9648  1.4606
  116OSM    H4G12163   6.837   5.874   7.241  0.6473  1.4663  1.2005
  116OSM    C5F12164   6.920   6.056   7.171 -1.2837  0.4464  0.5091
  116OSM    H5F12165   6.833   6.105   7.122  0.7606  1.4266 -2.4088
  116OSM    H5G12166   7.013   6.084   7.117 -0.0664 -2.0288  1.1672
  116OSM    C6F12167   6.950   6.094   7.318  0.1409 -0.4303 -0.2906
  116OSM    H6F12168   7.026   6.027   7.362  4.2619  1.9076 -3.1476
  116OSM    H6G12169   6.860   6.082   7.383  0.1528 -0.5945 -0.3051
  116OSM    C7F12170   6.984   6.244   7.323 -0.5734 -0.5634 -0.0124
  116OSM    H7F12171   6.904   6.314   7.290  1.7368  3.2064  1.7259
  116OSM    H7G12172   7.070   6.254   7.253 -2.5987 -1.2125 -2.8063
  116OSM    C8F12173   7.036   6.300   7.464 -0.0899  0.2952  0.5727
  116OSM    H8F12174   7.051   6.409   7.448  3.1600 -0.3652 -2.0795
  116OSM    H8G12175   7.138   6.262   7.488  0.6815  2.2427  0.5945
  116OSM    C9F12176   6.936   6.262   7.571 -0.0012  0.0481  0.4681
  116OSM    H9F12177   6.850   6.330   7.578 -1.2508 -1.5814  1.9269
  116OSM   C10F12178   6.953   6.165   7.663  0.1324 -0.1018  0.1768
  116OSM   H10F12179   6.870   6.148   7.732 -0.1608  1.1540  0.1561
  116OSM   C11F12180   7.067   6.061   7.671  0.6056 -0.2953  0.1933
  116OSM   H11F12181   7.133   6.082   7.758  1.2471  1.2241 -0.6246
  116OSM   H11G12182   7.140   6.067   7.587  2.0277  0.4188  1.4172
  116OSM   C12F12183   7.017   5.919   7.682  0.1054 -0.3931  0.5579
  116OSM   H12F12184   6.971   5.882   7.587  2.3198 -1.6946 -0.0995
  116OSM   H12G12185   6.936   5.916   7.757 -0.2006  2.2291  0.3970
  116OSM   C13F12186   7.128   5.818   7.720  0.2247 -0.2795 -0.3437
  116OSM   H13F12187   7.100   5.716   7.755  0.5276 -0.6240 -1.0882
  116OSM   H13G12188   7.168   5.864   7.812  2.2802 -1.0294 -0.8077
  116OSM   C14F12189   7.240   5.807   7.617 -0.2996 -0.5229  0.0204
  116OSM   H14F12190   7.320   5.739   7.655  0.5044 -0.0821 -0.8288
  116OSM   H14G12191   7.294   5.901   7.592  2.5020 -1.6235  1.5190
  116OSM   C15F12192   7.204   5.753   7.474  0.3912  0.0035  0.2470
  116OSM   H15F12193   7.096   5.766   7.449  0.1863 -0.7499  0.6887
  116OSM   H15G12194   7.210   5.642   7.479 -1.6337 -0.1859 -0.4775
  116OSM   C16F12195   7.289   5.806   7.351 -0.8449 -0.5140 -0.6496
  116OSM   H16F12196   7.278   5.916   7.352 -0.0868 -0.4246 -1.2689
  116OSM   H16G12197   7.241   5.752   7.266  0.1948 -1.6656 -0.5277
  116OSM   C17F12198   7.431   5.763   7.361 -0.1720 -0.5873 -0.3149
  116OSM   H17F12199   7.425   5.660   7.401  3.5304  0.1547  2.7632
  116OSM   H17G12200   7.482   5.827   7.436 -0.8633  0.3817 -0.6437
  116OSM   C18F12201   7.499   5.761   7.226 -0.8141  0.4793  0.4625
  116OSM   H18F12202   7.608   5.770   7.246 -0.6610 -0.9947  0.3420
  116OSM   H18G12203   7.467   5.838   7.152 -1.2811 -1.4536 -1.4511
  116OSM   H18H12204   7.478   5.663   7.179 -0.9677 -0.0393  1.5783
  117OSM      N12205   4.753   0.440   6.029  0.3825 -0.1537 -0.4236
  117OSM    C1512206   4.716   0.588   6.028 -0.1177  0.2819 -0.3352
  117OSM   H15A12207   4.742   0.637   5.935 -0.4470  0.2483 -0.4451
  117OSM   H15B12208   4.763   0.641   6.109  2.2503 -1.5968 -0.3683
  117OSM   H15C12209   4.609   0.594   6.037 -0.1443 -0.3583 -0.1358
  117OSM    C1412210   4.708   0.380   5.903 -0.6547  0.2865 -0.2082
  117OSM   H14A12211   4.603   0.399   5.889 -0.6957 -0.9297 -1.8384
  117OSM   H14B12212   4.725   0.274   5.895  1.0718  0.5989 -1.4009
  117OSM   H14C12213   4.762   0.429   5.823  0.6354 -0.4953  0.1661
  117OSM    C1312214   4.900   0.421   6.047  0.5778 -0.4694 -0.3523
  117OSM   H13A12215   4.951   0.418   5.952 -0.8816 -1.1538 -1.1562
  117OSM   H13B12216   4.924   0.329   6.096 -1.5054 -1.4496 -1.0481
  117OSM   H13C12217   4.932   0.492   6.122 -2.6432  0.7663  0.0276
  117OSM    C1212218   4.682   0.377   6.145  0.0903 -1.1562  0.2963
  117OSM   H12A12219   4.721   0.277   6.144  0.6126 -1.1880  4.5246
  117OSM   H12B12220   4.575   0.365   6.134 -0.2772  0.3899  1.6483
  117OSM    C1112221   4.699   0.441   6.282 -0.1282  0.5014  0.1138
  117OSM   H11A12222   4.804   0.477   6.291  0.3624 -0.5464 -1.1456
  117OSM   H11B12223   4.671   0.368   6.362 -0.7791 -1.1346 -1.5331
  117OSM      P12224   4.456   0.530   6.296  0.6488  0.0399 -0.0791
  117OSM    O1312225   4.405   0.636   6.213  0.3338 -0.6308  0.5296
  117OSM    O1412226   4.416   0.389   6.274  0.4312  0.4982  0.4281
  117OSM    O1112227   4.431   0.562   6.447 -0.3074  0.0439 -0.3803
  117OSM    O1212228   4.612   0.549   6.290 -0.1056  0.1582  0.3149
  117OSM    C1S12229   4.476   0.468   6.547 -0.5992  0.2325  0.6529
  117OSM    H1S12230   4.586   0.456   6.537 -0.7707 -0.6021 -0.6007
  117OSM    H1T12231   4.427   0.368   6.538  0.0662 -0.0569  0.1020
  117OSM     NF12232   4.543   0.450   6.783 -0.0428  0.0116  0.1739
  117OSM    HNF12233   4.498   0.387   6.845  0.3061  1.1267  1.6021
  117OSM    C2S12234   4.465   0.522   6.693  0.4267  0.4352  0.0500
  117OSM    H2S12235   4.502   0.626   6.701 -0.8297  1.1298 -2.1714
  117OSM    C3S12236   4.309   0.525   6.726  0.0167 -0.4863  0.1691
  117OSM    H3S12237   4.277   0.420   6.743 -0.9016  0.0748  2.2591
  117OSM     O312238   4.219   0.581   6.622  0.0659 -0.5843 -0.4727
  117OSM    HO312239   4.277   0.612   6.552  0.8024  2.5234  1.3277
  117OSM    C4S12240   4.286   0.604   6.857 -0.2902  0.0939  0.8684
  117OSM    H4S12241   4.285   0.714   6.852 -0.1745  0.0469 -0.3639
  117OSM    C5S12242   4.258   0.546   6.979 -0.3065 -0.0115 -0.1953
  117OSM    H5S12243   4.261   0.438   7.000 -0.0253 -0.1812 -1.0522
  117OSM    C6S12244   4.251   0.620   7.110  0.9460 -0.1731  0.7491
  117OSM    H6S12245   4.309   0.565   7.187  2.6115 -0.4858 -0.6697
  117OSM    H6T12246   4.141   0.620   7.128  0.6016  0.3924 -1.1007
  117OSM    C7S12247   4.283   0.770   7.118 -0.3294 -0.3907 -0.5311
  117OSM    H7S12248   4.228   0.815   7.032 -0.7325  0.2459  0.0500
  117OSM    H7T12249   4.393   0.778   7.103 -0.5252 -2.6118 -4.4508
  117OSM    C8S12250   4.249   0.831   7.257  0.0614 -0.5479 -0.0234
  117OSM    H8S12251   4.141   0.813   7.276  0.0269 -0.8630 -0.5303
  117OSM    H8T12252   4.276   0.939   7.257 -1.4615 -0.0800 -2.6344
  117OSM    C9S12253   4.333   0.780   7.368 -0.0219  0.1055  0.0234
  117OSM    H9S12254   4.440   0.796   7.345 -0.3424  1.1894 -0.7893
  117OSM    H9T12255   4.322   0.670   7.377  3.0904 -0.3540 -0.5409
  117OSM   C10S12256   4.305   0.837   7.507 -0.1256 -0.1237  0.4983
  117OSM   H10S12257   4.200   0.824   7.539  0.1268 -2.4154  0.5826
  117OSM   H10T12258   4.334   0.944   7.518  0.8395 -0.2508 -0.6055
  117OSM   C11S12259   4.390   0.770   7.612 -0.0959  0.8859  0.1334
  117OSM   H11S12260   4.497   0.790   7.585  0.0738  0.0328  0.1270
  117OSM   H11T12261   4.392   0.659   7.608  1.6092  0.7964  1.8039
  117OSM   C12S12262   4.386   0.818   7.763  0.7902  0.7725 -0.6164
  117OSM   H12S12263   4.290   0.794   7.813  2.1277  0.1448  1.8387
  117OSM   H12T12264   4.394   0.929   7.759  0.9253  0.7391 -2.1802
  117OSM   C13S12265   4.505   0.775   7.856 -0.0870 -0.5016 -0.3087
  117OSM   H13S12266   4.608   0.772   7.815  0.7956  0.1110  1.7014
  117OSM   H13T12267   4.480   0.669   7.880  2.8586 -1.1252  0.4475
  117OSM   C14S12268   4.492   0.856   7.987 -0.1690 -0.2783  0.1381
  117OSM   H14S12269   4.501   0.783   8.070  0.4786 -1.8079 -1.2098
  117OSM   H14T12270   4.392   0.903   7.995 -1.4628 -3.0123  1.0480
  117OSM   C15S12271   4.601   0.964   7.998  0.1426 -0.2253  0.0264
  117OSM   H15S12272   4.575   1.031   7.913  0.8034  1.1919  0.9064
  117OSM   H15T12273   4.702   0.918   8.000  0.2321 -0.0322  1.7458
  117OSM   C16S12274   4.574   1.049   8.124  0.4403  0.7921 -0.4785
  117OSM   H16S12275   4.602   0.989   8.213 -0.2439  1.2746  0.0700
  117OSM   H16T12276   4.464   1.067   8.120  0.6068  1.7730 -0.9967
  117OSM   C17S12277   4.646   1.189   8.128  0.0928 -0.3884  0.5256
  117OSM   H17S12278   4.614   1.237   8.222 -1.2896 -1.5038  0.6495
  117OSM   H17T12279   4.601   1.238   8.039  2.3187 -0.9744 -1.0101
  117OSM   C18S12280   4.795   1.187   8.094 -0.2624  0.1532 -0.0661
  117OSM   H18S12281   4.866   1.135   8.162 -0.1962 -0.4609 -0.5937
  117OSM   H18T12282   4.820   1.295   8.090 -2.4585  0.7149  0.3953
  117OSM   H18U12283   4.813   1.144   7.993  2.3473 -0.5594  0.6051
  117OSM    C1F12284   4.678   0.465   6.790 -0.0704  0.6360 -0.5222
  117OSM     OF12285   4.745   0.524   6.709 -0.3171 -0.2218  0.0884
  117OSM    C2F12286   4.742   0.389   6.901  0.6683  0.5302 -0.2797
  117OSM    H2F12287   4.699   0.287   6.902 -2.4893  1.7467 -0.3149
  117OSM    H2G12288   4.709   0.443   6.992 -0.4697 -0.3075 -0.1814
  117OSM    C3F12289   4.895   0.382   6.902  0.8317  0.4954  0.2733
  117OSM    H3F12290   4.932   0.484   6.924  2.5168  0.3080 -1.4532
  117OSM    H3G12291   4.944   0.364   6.804  0.9015  0.0586  0.3816
  117OSM    C4F12292   4.944   0.279   7.014  0.2971 -0.2463  0.4623
  117OSM    H4F12293   4.880   0.188   7.020 -0.7253  0.3297 -1.0662
  117OSM    H4G12294   4.936   0.325   7.115  1.7852  1.3379 -0.1021
  117OSM    C5F12295   5.086   0.236   6.998  0.2890 -0.2239 -0.0938
  117OSM    H5F12296   5.150   0.324   7.023  0.9310 -0.2133 -1.7026
  117OSM    H5G12297   5.099   0.215   6.890 -4.1166  1.5839 -1.1948
  117OSM    C6F12298   5.121   0.120   7.091  0.1340  0.1962  0.7810
  117OSM    H6F12299   5.099   0.018   7.053  1.2819 -0.2292  1.2201
  117OSM    H6G12300   5.067   0.135   7.186  1.3184  3.1766  1.0925
  117OSM    C7F12301   5.269   0.115   7.129 -0.4633  0.2620  0.7706
  117OSM    H7F12302   5.298   0.219   7.152  1.2936 -0.0608  0.1611
  117OSM    H7G12303   5.314   0.088   7.032 -2.2537 -1.4475  0.3402
  117OSM    C8F12304   5.296   0.002   7.237  1.2643 -0.3057 -0.4629
  117OSM    H8F12305   5.256  -0.095   7.201  0.8686 -0.4572  0.3700
  117OSM    H8G12306   5.240   0.025   7.330  0.8068  0.0982 -0.8285
  117OSM    C9F12307   5.440  -0.017   7.254 -0.6648 -0.0514 -0.3406
  117OSM    H9F12308   5.496   0.049   7.186 -2.2191  0.3628 -1.2607
  117OSM   C10F12309   5.508  -0.102   7.336 -0.4921 -0.2947 -0.0596
  117OSM   H10F12310   5.615  -0.111   7.313 -0.1865  0.9509  0.7549
  117OSM   C11F12311   5.449  -0.199   7.439 -0.4833  0.2884  0.1171
  117OSM   H11F12312   5.377  -0.271   7.393  0.8500 -0.7808 -0.3525
  117OSM   H11G12313   5.384  -0.143   7.509 -2.2701 -3.2994  1.5709
  117OSM   C12F12314   5.567  -0.279   7.504  0.1992 -0.1539 -0.0412
  117OSM   H12F12315   5.635  -0.314   7.424 -0.3464  1.3243 -1.1946
  117OSM   H12G12316   5.521  -0.365   7.558 -1.9912  0.9317 -0.0482
  117OSM   C13F12317   5.659  -0.192   7.585 -0.6808  0.0021 -0.9994
  117OSM   H13F12318   5.695  -0.109   7.522 -2.1981  0.5543 -1.1628
  117OSM   H13G12319   5.755  -0.241   7.615 -0.6646  1.2821  1.2987
  117OSM   C14F12320   5.598  -0.147   7.724  0.6404  1.4745 -0.1319
  117OSM   H14F12321   5.525  -0.067   7.699 -0.2276  0.0537 -2.4821
  117OSM   H14G12322   5.686  -0.114   7.782  3.3717 -3.0281 -1.1912
  117OSM   C15F12323   5.522  -0.255   7.806  0.9000 -0.1191  0.2309
  117OSM   H15F12324   5.582  -0.346   7.828  0.6233 -0.2675  0.3750
  117OSM   H15G12325   5.434  -0.286   7.746  0.7907 -0.2130  0.4400
  117OSM   C16F12326   5.461  -0.211   7.929 -0.2760  0.8675 -0.1384
  117OSM   H16F12327   5.393  -0.292   7.963  0.9090  0.3649  1.1283
  117OSM   H16G12328   5.403  -0.119   7.907  2.3821  1.9426 -3.4005
  117OSM   C17F12329   5.548  -0.197   8.060 -0.1666  0.0895  0.3544
  117OSM   H17F12330   5.607  -0.291   8.059 -0.8223 -0.3265 -0.3214
  117OSM   H17G12331   5.615  -0.110   8.049 -1.2800  0.9445  0.1615
  117OSM   C18F12332   5.466  -0.186   8.192  0.1204 -0.3208 -0.2942
  117OSM   H18F12333   5.388  -0.265   8.185 -0.5152  0.2153  0.5913
  117OSM   H18G12334   5.428  -0.082   8.198 -0.2628 -0.5593  2.1972
  117OSM   H18H12335   5.530  -0.199   8.281 -0.1013  1.9864  0.2582
  118OSM      N12336   0.032   2.884   5.970 -0.2311 -0.5042 -0.0270
  118OSM    C1512337  -0.089   2.937   5.891 -0.3211  0.2068 -0.0596
  118OSM   H15A12338  -0.182   2.890   5.919 -0.9156  1.5311  0.2642
  118OSM   H15B12339  -0.069   2.917   5.787  0.3977 -3.9254  0.7042
  118OSM   H15C12340  -0.114   3.041   5.905 -2.3541  0.0991 -2.2954
  118OSM    C1412341   0.048   2.740   5.950  0.4617 -0.1332 -0.1936
  118OSM   H14A12342  -0.041   2.686   5.979 -0.1604 -0.1245 -1.9767
  118OSM   H14B12343   0.140   2.719   6.003  0.6111 -0.9696 -0.7687
  118OSM   H14C12344   0.055   2.708   5.847 -0.6815  0.9487 -0.6409
  118OSM    C1312345   0.165   2.948   5.925  0.3707  0.0668  0.4250
  118OSM   H13A12346   0.190   2.936   5.821  1.6657 -2.6636  0.9555
  118OSM   H13B12347   0.242   2.909   5.989 -1.0371 -1.9834  0.9748
  118OSM   H13C12348   0.169   3.055   5.939 -0.5889  0.1518  0.1376
  118OSM    C1212349   0.018   2.915   6.114  0.0822 -0.3086  0.5144
  118OSM   H12A12350  -0.078   2.877   6.147 -1.4721  1.0009 -2.1675
  118OSM   H12B12351   0.006   3.018   6.142  0.3163  0.0669 -0.7158
  118OSM    C1112352   0.105   2.848   6.223 -0.0161 -0.5727 -0.3967
  118OSM   H11A12353   0.086   2.895   6.322  0.6774 -1.1421  0.0180
  118OSM   H11B12354   0.206   2.876   6.186 -1.1132  3.7229 -0.6925
  118OSM      P12355  -0.063   2.665   6.298 -0.3404  0.1920 -0.5193
  118OSM    O1312356  -0.155   2.778   6.312  0.0659 -0.3487  0.1369
  118OSM    O1412357  -0.113   2.544   6.223  0.2075 -0.6927  0.4283
  118OSM    O1112358  -0.010   2.623   6.443  0.7777 -0.1009 -0.2093
  118OSM    O1212359   0.072   2.710   6.227 -0.6403 -0.0496 -0.4162
  118OSM    C1S12360   0.040   2.495   6.465  0.8770  0.0764 -0.1107
  118OSM    H1S12361   0.128   2.482   6.398  1.0884  0.0766  0.1683
  118OSM    H1T12362  -0.035   2.421   6.431 -0.1435  0.1964  1.7380
  118OSM     NF12363   0.176   2.370   6.630  0.3974 -0.3469  0.0722
  118OSM    HNF12364   0.133   2.280   6.625  0.5796 -0.3864 -1.2211
  118OSM    C2S12365   0.080   2.476   6.609  0.1474 -1.0166  0.2160
  118OSM    H2S12366   0.126   2.569   6.649 -0.8111 -0.4797  0.0923
  118OSM    C3S12367  -0.053   2.461   6.689  1.2316 -0.0940  0.4504
  118OSM    H3S12368  -0.101   2.365   6.662  1.1804  0.3851 -1.3338
  118OSM     O312369  -0.156   2.552   6.651 -0.0263 -0.2938 -0.0333
  118OSM    HO312370  -0.126   2.597   6.571 -0.9571 -1.2556 -0.9504
  118OSM    C4S12371  -0.024   2.470   6.837 -0.4866 -0.3366 -0.1642
  118OSM    H4S12372   0.043   2.393   6.879  0.0422 -0.1110 -0.5890
  118OSM    C5S12373  -0.055   2.569   6.926 -0.7347  0.3761 -0.6932
  118OSM    H5S12374  -0.112   2.655   6.887 -1.7058 -0.4854 -1.2018
  118OSM    C6S12375  -0.014   2.568   7.073  0.1941 -0.3101  0.3609
  118OSM    H6S12376  -0.103   2.547   7.135  0.3152 -0.3883  0.5074
  118OSM    H6T12377   0.018   2.673   7.091  0.9320 -0.5958  0.7526
  118OSM    C7S12378   0.106   2.475   7.107 -0.1003 -0.0918  0.1492
  118OSM    H7S12379   0.192   2.514   7.049  1.5899 -1.3668  1.6601
  118OSM    H7T12380   0.089   2.368   7.084  0.9904 -0.1946 -0.2350
  118OSM    C8S12381   0.153   2.489   7.254 -0.1160  0.1496 -0.5670
  118OSM    H8S12382   0.155   2.596   7.285  2.6210  0.0542 -0.1519
  118OSM    H8T12383   0.257   2.450   7.264 -0.0862  0.6369  1.2872
  118OSM    C9S12384   0.056   2.419   7.346 -0.6127  0.1328 -0.7332
  118OSM    H9S12385   0.052   2.311   7.318  0.5389 -0.2931  0.6317
  118OSM    H9T12386  -0.049   2.455   7.341 -0.9583 -0.6913  0.1196
  118OSM   C10S12387   0.102   2.436   7.493 -0.0265 -0.7932  0.1894
  118OSM   H10S12388   0.091   2.544   7.515  1.5051 -0.3497 -0.9940
  118OSM   H10T12389   0.210   2.408   7.487  0.3167  0.6756 -1.2371
  118OSM   C11S12390   0.022   2.348   7.589  0.3528  0.6491 -0.5480
  118OSM   H11S12391   0.001   2.250   7.541  0.4059 -0.0960  0.9073
  118OSM   H11T12392  -0.074   2.394   7.620 -0.0627 -1.8473  2.3706
  118OSM   C12S12393   0.101   2.311   7.718  0.1848  0.2624  0.1965
  118OSM   H12S12394   0.162   2.396   7.757 -0.3632  0.2847  1.0260
  118OSM   H12T12395   0.176   2.235   7.686  0.3694  0.9039 -0.9608
  118OSM   C13S12396   0.016   2.263   7.833 -0.6323  0.2266  0.0320
  118OSM   H13S12397  -0.064   2.188   7.815 -0.5014  0.1135 -0.0703
  118OSM   H13T12398  -0.039   2.350   7.876 -0.1998 -0.1503  1.4147
  118OSM   C14S12399   0.101   2.205   7.949 -0.6931  0.3610  0.4907
  118OSM   H14S12400   0.159   2.285   7.999 -1.7964  0.8291  1.0333
  118OSM   H14T12401   0.173   2.132   7.906 -0.7668 -0.6477  2.0167
  118OSM   C15S12402   0.016   2.138   8.054  0.0735  0.0311 -0.1427
  118OSM   H15S12403  -0.050   2.057   8.016 -1.2060  0.9758  0.0186
  118OSM   H15T12404  -0.057   2.214   8.088  0.3566  0.6373 -0.8738
  118OSM   C16S12405   0.100   2.091   8.170 -0.0779  0.5445  0.7449
  118OSM   H16S12406   0.158   2.171   8.221 -0.8299  0.6213  1.5042
  118OSM   H16T12407   0.174   2.025   8.121 -2.3037 -0.3722 -1.6164
  118OSM   C17S12408   0.013   2.004   8.267  0.0730  0.0092  0.1157
  118OSM   H17S12409  -0.007   1.907   8.216 -0.3892 -0.0747  0.4489
  118OSM   H17T12410  -0.079   2.058   8.301 -0.4359 -0.3223 -0.6914
  118OSM   C18S12411   0.096   1.962   8.398  0.6351 -0.3570  0.5310
  118OSM   H18S12412   0.135   2.052   8.450 -2.3035  0.5737  1.2996
  118OSM   H18T12413   0.181   1.897   8.367  0.4517 -0.5547  0.4364
  118OSM   H18U12414   0.026   1.915   8.471 -2.7333  2.4792 -0.5663
  118OSM    C1F12415   0.308   2.382   6.626 -0.5772 -0.3448  0.1892
  118OSM     OF12416   0.352   2.485   6.582  0.1997 -0.7496 -1.4408
  118OSM    C2F12417   0.400   2.273   6.670  0.3241  0.5916  0.3320
  118OSM    H2F12418   0.453   2.234   6.581  0.4470 -0.2922  0.7736
  118OSM    H2G12419   0.341   2.193   6.720  0.6260  1.1938  1.7005
  118OSM    C3F12420   0.511   2.327   6.762  0.2391 -0.0212 -0.4855
  118OSM    H3F12421   0.568   2.407   6.710  3.0026 -2.0407 -0.7802
  118OSM    H3G12422   0.586   2.245   6.764 -0.5453 -0.7856 -1.1324
  118OSM    C4F12423   0.451   2.370   6.900  0.6240 -0.5675  0.1244
  118OSM    H4F12424   0.391   2.284   6.937 -0.8281 -0.4578 -1.8763
  118OSM    H4G12425   0.382   2.453   6.876 -0.5389 -1.8923 -1.2851
  118OSM    C5F12426   0.552   2.406   7.007  0.6205  0.5195 -0.5891
  118OSM    H5F12427   0.486   2.431   7.093  0.5137 -1.4059 -0.0812
  118OSM    H5G12428   0.601   2.503   6.980 -2.8869  2.7424  0.4009
  118OSM    C6F12429   0.647   2.303   7.066  0.1089  0.0058  0.4311
  118OSM    H6F12430   0.731   2.282   6.996 -0.2057 -0.2902  0.1361
  118OSM    H6G12431   0.575   2.221   7.089 -2.1156  1.5599 -0.5718
  118OSM    C7F12432   0.708   2.351   7.191 -0.0619  0.8629  0.5532
  118OSM    H7F12433   0.755   2.452   7.181  0.3140  0.9333  2.6478
  118OSM    H7G12434   0.780   2.279   7.235 -1.5430 -0.8205  0.3274
  118OSM    C8F12435   0.617   2.372   7.311  0.1085 -0.6833  0.8145
  118OSM    H8F12436   0.533   2.442   7.293  2.1063  1.5281 -0.6344
  118OSM    H8G12437   0.681   2.417   7.390  1.4130 -1.4642  0.2359
  118OSM    C9F12438   0.553   2.248   7.367  0.0579 -0.1135  0.4370
  118OSM    H9F12439   0.510   2.174   7.298  1.9657 -2.2233  1.3768
  118OSM   C10F12440   0.543   2.216   7.502  0.6837 -0.0846  0.7712
  118OSM   H10F12441   0.489   2.124   7.526  1.1268 -0.7460 -0.6609
  118OSM   C11F12442   0.598   2.279   7.629  0.0033 -0.0701 -0.7109
  118OSM   H11F12443   0.655   2.372   7.607  0.0872  0.1200  0.2572
  118OSM   H11G12444   0.657   2.204   7.686  0.4018  0.3541 -0.5584
  118OSM   C12F12445   0.477   2.328   7.713 -0.0673 -0.2937  0.6472
  118OSM   H12F12446   0.401   2.248   7.715  0.0347 -0.3954  0.4602
  118OSM   H12G12447   0.430   2.410   7.655  1.4884 -0.9252 -1.6606
  118OSM   C13F12448   0.528   2.392   7.844  0.5148 -0.4501 -0.3319
  118OSM   H13F12449   0.437   2.423   7.899  0.3821  2.7251 -2.1522
  118OSM   H13G12450   0.580   2.487   7.820  1.7611 -0.4652  1.9863
  118OSM   C14F12451   0.616   2.305   7.938 -0.6511  0.6600 -0.6493
  118OSM   H14F12452   0.718   2.301   7.893 -0.4223 -1.9628 -0.0603
  118OSM   H14G12453   0.574   2.203   7.953  0.8990 -0.0917 -1.1686
  118OSM   C15F12454   0.629   2.370   8.081  0.3188  0.4102  0.3996
  118OSM   H15F12455   0.617   2.481   8.077  1.1314  0.4855 -0.3176
  118OSM   H15G12456   0.728   2.349   8.126 -0.4874 -1.4905  1.3667
  118OSM   C16F12457   0.534   2.312   8.177 -0.5919 -0.1909  0.1560
  118OSM   H16F12458   0.542   2.201   8.178 -0.6074 -0.2129 -1.2075
  118OSM   H16G12459   0.424   2.320   8.166 -1.0020 -2.0826  2.0540
  118OSM   C17F12460   0.560   2.370   8.322  0.3744  0.1312  0.5887
  118OSM   H17F12461   0.521   2.471   8.346 -1.7646 -1.2079  3.4136
  118OSM   H17G12462   0.667   2.356   8.350 -0.1822 -1.4139  2.1092
  118OSM   C18F12463   0.482   2.294   8.427 -0.1324  0.6477 -0.3687
  118OSM   H18F12464   0.492   2.333   8.530 -2.0051  0.7381 -0.1799
  118OSM   H18G12465   0.505   2.186   8.419  0.8780  0.8736 -0.6776
  118OSM   H18H12466   0.372   2.303   8.408 -0.0151  0.8287 -0.9987
  119OSM      N12467   2.117   1.442   5.758  0.2895  0.4678 -0.0618
  119OSM    C1512468   2.240   1.513   5.768 -0.9259 -0.2130 -0.4263
  119OSM   H15A12469   2.238   1.607   5.820 -0.2718  0.5239 -1.6926
  119OSM   H15B12470   2.287   1.532   5.673  0.3093  0.7007  0.3314
  119OSM   H15C12471   2.310   1.447   5.818 -1.3080  0.3887  0.9564
  119OSM    C1412472   2.026   1.534   5.682 -0.0421 -0.6549 -0.8049
  119OSM   H14A12473   1.935   1.477   5.669 -1.4314  1.3702 -0.3982
  119OSM   H14B12474   2.074   1.571   5.593  0.3633  0.4981 -0.1227
  119OSM   H14C12475   1.997   1.622   5.737 -0.7296 -0.8153 -0.9007
  119OSM    C1312476   2.125   1.322   5.666  0.4721 -0.4881  0.3305
  119OSM   H13A12477   2.021   1.290   5.664 -0.3069  1.6306  2.4569
  119OSM   H13B12478   2.194   1.243   5.692  1.6677 -0.2386 -1.8438
  119OSM   H13C12479   2.161   1.349   5.568 -1.2507  0.7397 -0.0166
  119OSM    C1212480   2.051   1.408   5.896  0.2570 -0.1481  0.0332
  119OSM   H12A12481   2.108   1.329   5.943  0.2255  0.3588  0.9495
  119OSM   H12B12482   1.949   1.379   5.874  0.0117  0.0752  0.8348
  119OSM    C1112483   2.029   1.525   5.995 -0.2906 -0.5993 -0.0435
  119OSM   H11A12484   2.116   1.595   5.990 -1.1601  0.5175  0.1621
  119OSM   H11B12485   2.026   1.483   6.099 -0.2024  2.8898  1.5021
  119OSM      P12486   1.883   1.738   6.014  0.0106  0.5033 -0.4293
  119OSM    O1312487   1.993   1.826   5.961 -0.2792 -0.0662  0.0310
  119OSM    O1412488   1.740   1.777   5.998 -0.0577 -0.2987  0.4263
  119OSM    O1112489   1.917   1.704   6.165  0.2561 -0.0073 -0.1883
  119OSM    O1212490   1.905   1.590   5.957  0.4530 -0.2596  0.2458
  119OSM    C1S12491   1.904   1.810   6.259  0.2468  0.3623 -0.3145
  119OSM    H1S12492   1.798   1.834   6.282  0.0327  0.2055 -1.1112
  119OSM    H1T12493   1.947   1.908   6.227  0.2531  0.5999  0.4147
  119OSM     NF12494   1.962   1.898   6.477  0.3106  0.4917  0.0779
  119OSM    HNF12495   2.045   1.952   6.492  0.8424 -0.4695  0.6820
  119OSM    C2S12496   1.978   1.779   6.393 -0.0445  0.2371 -0.6538
  119OSM    H2S12497   1.920   1.696   6.437  0.3197 -0.5538 -1.6167
  119OSM    C3S12498   2.130   1.729   6.363  0.2776 -0.5035 -0.4038
  119OSM    H3S12499   2.195   1.788   6.295  2.3040 -0.7448  1.1938
  119OSM     O312500   2.116   1.597   6.317 -0.2981  0.1265  0.1909
  119OSM    HO312501   2.043   1.613   6.257 -0.1583 -2.6858 -0.8806
  119OSM    C4S12502   2.211   1.715   6.487  0.7996  0.4620  0.6542
  119OSM    H4S12503   2.161   1.652   6.562 -1.0437  1.1456  0.0378
  119OSM    C5S12504   2.328   1.762   6.513 -0.3652 -0.0377  0.5546
  119OSM    H5S12505   2.385   1.811   6.433 -0.3638 -2.8558 -1.3454
  119OSM    C6S12506   2.414   1.752   6.640  0.9875  0.2019 -0.6100
  119OSM    H6S12507   2.522   1.767   6.622  0.8193  0.0183 -1.9481
  119OSM    H6T12508   2.402   1.648   6.678 -0.9353 -0.0272 -1.6656
  119OSM    C7S12509   2.377   1.849   6.750 -0.1735 -0.0727  0.1251
  119OSM    H7S12510   2.338   1.950   6.725  1.3673  0.3907 -0.5108
  119OSM    H7T12511   2.468   1.863   6.812  0.3061 -3.4811  0.3454
  119OSM    C8S12512   2.273   1.787   6.855 -0.2522 -0.4726 -0.4834
  119OSM    H8S12513   2.326   1.719   6.925  1.7794  0.8243 -0.6575
  119OSM    H8T12514   2.198   1.718   6.812 -1.8663  1.2286 -0.5281
  119OSM    C9S12515   2.205   1.890   6.933  0.2891  0.1203  0.6665
  119OSM    H9S12516   2.127   1.944   6.875 -0.2823 -1.1979  0.1467
  119OSM    H9T12517   2.271   1.974   6.961 -1.2782  2.0049 -0.9775
  119OSM   C10S12518   2.147   1.850   7.068 -0.6129 -0.8790  0.4661
  119OSM   H10S12519   2.087   1.757   7.053  0.9368 -1.5864 -1.9280
  119OSM   H10T12520   2.083   1.929   7.113  0.6310  0.5577 -0.2174
  119OSM   C11S12521   2.255   1.804   7.169  0.1266 -0.1073 -0.1011
  119OSM   H11S12522   2.326   1.883   7.200  0.6529 -1.1438  1.4806
  119OSM   H11T12523   2.325   1.732   7.121  1.1132  0.6789  0.1245
  119OSM   C12S12524   2.197   1.757   7.303 -0.3105  0.5922 -0.5232
  119OSM   H12S12525   2.132   1.666   7.300  0.5310 -0.1986  2.1804
  119OSM   H12T12526   2.131   1.833   7.350 -0.9915 -0.2340 -0.1019
  119OSM   C13S12527   2.318   1.734   7.397  0.4323  0.1430 -0.8740
  119OSM   H13S12528   2.379   1.827   7.404  0.1859  0.2228  0.3759
  119OSM   H13T12529   2.382   1.656   7.350  0.6863  0.3813 -0.9290
  119OSM   C14S12530   2.283   1.676   7.537  0.2190 -0.5977 -0.8160
  119OSM   H14S12531   2.380   1.638   7.577  1.4186  2.5122 -0.4531
  119OSM   H14T12532   2.218   1.587   7.532 -0.0019 -0.5087  0.2081
  119OSM   C15S12533   2.227   1.793   7.619  0.3461  0.3041  0.2033
  119OSM   H15S12534   2.128   1.820   7.575  0.5771  2.0651  0.7114
  119OSM   H15T12535   2.282   1.889   7.617  0.5905  0.2105  1.6131
  119OSM   C16S12536   2.214   1.745   7.771  0.0750 -0.2861 -0.0966
  119OSM   H16S12537   2.319   1.733   7.806 -0.3744 -0.5648  1.1996
  119OSM   H16T12538   2.174   1.642   7.757  2.6588 -1.3164 -0.3916
  119OSM   C17S12539   2.120   1.826   7.855  0.7244 -0.4961  0.1693
  119OSM   H17S12540   2.018   1.837   7.813  0.6055  2.2708  1.0136
  119OSM   H17T12541   2.158   1.930   7.862 -2.0079  0.7270 -1.6301
  119OSM   C18S12542   2.099   1.752   7.995 -0.3776  0.8997  0.3043
  119OSM   H18S12543   2.085   1.643   7.976 -0.0643  0.5505  1.9482
  119OSM   H18T12544   2.010   1.787   8.052 -1.1947 -0.9318  0.2250
  119OSM   H18U12545   2.194   1.765   8.050  0.5902 -1.1902 -0.7405
  119OSM    C1F12546   1.840   1.945   6.517 -0.2894 -0.0316 -0.2008
  119OSM     OF12547   1.740   1.878   6.497  0.1653  0.5213  0.3786
  119OSM    C2F12548   1.845   2.075   6.594  0.9216  0.8006  0.3103
  119OSM    H2F12549   1.842   2.166   6.530  0.1804  1.3035  1.0384
  119OSM    H2G12550   1.949   2.078   6.633  2.1165 -1.8641 -2.2793
  119OSM    C3F12551   1.745   2.080   6.706  0.3435  0.4120  0.4556
  119OSM    H3F12552   1.772   1.991   6.767 -2.1383  0.8554  2.3948
  119OSM    H3G12553   1.639   2.066   6.673 -0.6918  0.2248  3.5445
  119OSM    C4F12554   1.752   2.205   6.794 -0.1166 -0.2739  0.9581
  119OSM    H4F12555   1.672   2.197   6.871  0.1440 -2.6362  1.0537
  119OSM    H4G12556   1.728   2.291   6.728  0.7726 -1.9634 -1.7281
  119OSM    C5F12557   1.891   2.234   6.865 -0.5539  0.7220 -0.0087
  119OSM    H5F12558   1.946   2.284   6.782 -2.5502  1.3784 -0.9969
  119OSM    H5G12559   1.948   2.144   6.897 -1.2420  0.0702 -0.5640
  119OSM    C6F12560   1.880   2.337   6.972  0.1510  0.3412 -0.3376
  119OSM    H6F12561   1.831   2.428   6.933 -0.5742  0.2133  0.2556
  119OSM    H6G12562   1.985   2.359   7.000  1.6966 -2.4753 -3.1290
  119OSM    C7F12563   1.802   2.289   7.097  0.3018  0.1879  0.3211
  119OSM    H7F12564   1.704   2.247   7.068  0.5789 -1.3111  1.4436
  119OSM    H7G12565   1.787   2.389   7.144  0.2986  0.1463  0.4071
  119OSM    C8F12566   1.881   2.196   7.195 -0.5011  0.8613 -0.2626
  119OSM    H8F12567   1.964   2.264   7.223 -0.7618  1.1716 -0.2448
  119OSM    H8G12568   1.923   2.106   7.144 -3.2320 -1.8679  1.8628
  119OSM    C9F12569   1.800   2.149   7.313 -0.0909 -0.0223  0.1544
  119OSM    H9F12570   1.751   2.053   7.293  0.4672 -0.0683 -1.0829
  119OSM   C10F12571   1.771   2.227   7.419 -1.0375  0.4130  0.2965
  119OSM   H10F12572   1.729   2.170   7.504 -0.9013  1.4513  1.0742
  119OSM   C11F12573   1.827   2.364   7.464 -0.5147  0.2894  0.6391
  119OSM   H11F12574   1.737   2.407   7.513 -0.0375  2.2251 -0.0925
  119OSM   H11G12575   1.848   2.417   7.368  0.8220 -0.1007  0.6941
  119OSM   C12F12576   1.949   2.358   7.551  0.0719 -0.0219 -0.6765
  119OSM   H12F12577   1.981   2.460   7.584 -0.8619  0.3331 -0.8200
  119OSM   H12G12578   2.028   2.296   7.505  0.6688  0.2591 -0.0477
  119OSM   C13F12579   1.927   2.279   7.683 -0.7283 -0.1622 -0.1740
  119OSM   H13F12580   2.020   2.289   7.743  1.0027 -1.5634 -2.4497
  119OSM   H13G12581   1.903   2.172   7.663 -1.3604 -0.3431  1.4405
  119OSM   C14F12582   1.827   2.333   7.786  0.8555  0.4799 -0.0829
  119OSM   H14F12583   1.724   2.328   7.745  1.0147 -0.6924 -0.3826
  119OSM   H14G12584   1.835   2.439   7.819  0.3091  0.0935  1.3698
  119OSM   C15F12585   1.832   2.243   7.910 -0.2258  0.1894  0.1212
  119OSM   H15F12586   1.809   2.309   7.996 -2.3250 -1.5829  1.0317
  119OSM   H15G12587   1.934   2.207   7.933  0.2180  1.1920 -0.2678
  119OSM   C16F12588   1.729   2.129   7.917 -0.4407 -0.6220  0.0190
  119OSM   H16F12589   1.721   2.081   7.818 -1.0748 -0.6472  0.0747
  119OSM   H16G12590   1.627   2.168   7.943 -1.0944 -2.1861 -0.0966
  119OSM   C17F12591   1.748   2.022   8.030  0.0721 -0.4284  0.0886
  119OSM   H17F12592   1.838   1.961   8.006  1.6162  1.9576 -0.5579
  119OSM   H17G12593   1.658   1.957   8.028  0.4491 -0.9692 -1.6643
  119OSM   C18F12594   1.760   2.091   8.161 -0.3100 -0.2473 -0.2373
  119OSM   H18F12595   1.718   2.037   8.249  0.9909 -1.0494 -0.0959
  119OSM   H18G12596   1.701   2.185   8.154 -0.3475 -0.2485  0.0434
  119OSM   H18H12597   1.866   2.115   8.183 -0.7930  1.3314  0.5520
  120OSM      N12598   5.777   5.892   6.506 -0.4611 -0.1817  0.3975
  120OSM    C1512599   5.694   5.852   6.388  0.2294 -0.1953 -0.8746
  120OSM   H15A12600   5.607   5.804   6.430  1.0436 -2.0622 -1.2150
  120OSM   H15B12601   5.746   5.782   6.323  0.8101 -0.5784 -0.0157
  120OSM   H15C12602   5.665   5.942   6.336 -0.6688 -0.7315 -1.3314
  120OSM    C1412603   5.696   5.982   6.585 -0.2979 -0.4824 -0.0059
  120OSM   H14A12604   5.755   6.023   6.665  1.7574 -2.9241 -0.1473
  120OSM   H14B12605   5.613   5.938   6.637 -0.7529  0.3204 -0.0260
  120OSM   H14C12606   5.645   6.054   6.522  0.6427  0.6318  0.4784
  120OSM    C1312607   5.809   5.780   6.594 -0.2701  0.5676 -0.2746
  120OSM   H13A12608   5.877   5.715   6.541  0.8243  0.0407  1.6454
  120OSM   H13B12609   5.724   5.714   6.612  0.9720 -1.5016 -1.5641
  120OSM   H13C12610   5.851   5.810   6.689 -1.5476  0.4342  0.3669
  120OSM    C1212611   5.903   5.963   6.461 -0.2656 -0.4985 -0.0047
  120OSM   H12A12612   5.942   6.030   6.537 -2.9026  1.2239 -0.0536
  120OSM   H12B12613   5.876   6.033   6.384 -0.9947  0.6665  1.2689
  120OSM    C1112614   6.017   5.877   6.401 -0.0229  0.1615  1.2763
  120OSM   H11A12615   5.975   5.800   6.332  0.8400 -0.8416  1.8319
  120OSM   H11B12616   6.071   5.821   6.481  1.6068  0.5092  0.4574
  120OSM      P12617   6.184   6.078   6.402 -0.0252  0.3402 -0.1638
  120OSM    O1312618   6.307   6.097   6.326 -0.5970  0.3408  0.4768
  120OSM    O1412619   6.100   6.198   6.436 -0.1099 -0.6124 -0.0887
  120OSM    O1112620   6.211   6.003   6.543 -0.3016  0.4655 -1.2905
  120OSM    O1212621   6.101   5.965   6.329 -0.1374 -0.5985 -0.4367
  120OSM    C1S12622   6.314   6.062   6.630 -0.8815  0.0873 -0.2710
  120OSM    H1S12623   6.264   6.135   6.697 -1.9796 -3.7780  3.5937
  120OSM    H1T12624   6.397   6.117   6.582  0.9140  1.7872  4.2361
  120OSM     NF12625   6.465   6.033   6.826  0.0391  0.3352 -0.1956
  120OSM    HNF12626   6.564   6.040   6.816 -0.0058 -1.1624 -2.3033
  120OSM    C2S12627   6.393   5.958   6.718 -0.0845 -0.8359  0.1563
  120OSM    H2S12628   6.319   5.887   6.761 -0.5064 -2.0506 -2.3767
  120OSM    C3S12629   6.480   5.865   6.613  0.2925 -0.2956 -0.0493
  120OSM    H3S12630   6.570   5.918   6.576 -0.2551  0.0743 -0.8768
  120OSM     O312631   6.416   5.822   6.496 -0.1179 -0.1805  0.3278
  120OSM    HO312632   6.340   5.879   6.486  0.6721  0.7011 -0.9715
  120OSM    C4S12633   6.521   5.740   6.691 -0.1367  0.1029  0.1892
  120OSM    H4S12634   6.615   5.739   6.748 -0.1668 -1.5046  0.2565
  120OSM    C5S12635   6.452   5.629   6.710  0.8980 -0.0352  0.1904
  120OSM    H5S12636   6.355   5.609   6.663  0.1428 -1.9214  2.3612
  120OSM    C6S12637   6.510   5.512   6.778 -0.1592  0.8309 -0.8134
  120OSM    H6S12638   6.621   5.510   6.776  0.0444  1.2688  2.9206
  120OSM    H6T12639   6.480   5.418   6.728  2.4707  0.0471 -1.0479
  120OSM    C7S12640   6.473   5.500   6.926 -0.3432  0.8423  0.7278
  120OSM    H7S12641   6.501   5.402   6.969 -0.9057  0.2800 -0.1736
  120OSM    H7T12642   6.363   5.501   6.938 -0.8020  1.5367 -2.5746
  120OSM    C8S12643   6.544   5.602   7.018  0.6308 -0.4270 -0.5400
  120OSM    H8S12644   6.554   5.707   6.983 -1.5305  0.3383  0.9154
  120OSM    H8T12645   6.648   5.569   7.041 -0.2997 -2.4953  1.0151
  120OSM    C9S12646   6.488   5.596   7.161 -0.5577 -0.2122  0.4689
  120OSM    H9S12647   6.515   5.497   7.203  2.0381  0.0485 -0.4245
  120OSM    H9T12648   6.380   5.622   7.155 -1.1121 -2.3193  0.5264
  120OSM   C10S12649   6.553   5.693   7.269 -0.6312 -0.2986  0.6176
  120OSM   H10S12650   6.520   5.797   7.249 -0.3786 -0.4774 -0.8586
  120OSM   H10T12651   6.664   5.694   7.267 -0.5051 -2.3223  2.6228
  120OSM   C11S12652   6.516   5.659   7.411  0.1361 -0.2288 -0.6707
  120OSM   H11S12653   6.493   5.552   7.426 -0.8661 -0.5958 -3.9839
  120OSM   H11T12654   6.426   5.717   7.443  1.0670 -0.0895  1.9736
  120OSM   C12S12655   6.615   5.708   7.520 -0.5607 -0.7302  0.0830
  120OSM   H12S12656   6.618   5.819   7.516 -1.7802 -0.7341 -1.2806
  120OSM   H12T12657   6.718   5.672   7.497  0.5349  2.8047 -1.2326
  120OSM   C13S12658   6.566   5.677   7.661  0.1863  0.2539  0.6078
  120OSM   H13S12659   6.576   5.573   7.699 -0.3187 -0.0454 -0.0545
  120OSM   H13T12660   6.459   5.704   7.655  0.6289  1.8680 -0.7896
  120OSM   C14S12661   6.621   5.769   7.774  0.1240 -0.2584  0.0930
  120OSM   H14S12662   6.619   5.876   7.747 -1.3862 -0.2627  0.1111
  120OSM   H14T12663   6.719   5.731   7.810 -0.8861  0.0515  3.4979
  120OSM   C15S12664   6.541   5.752   7.900 -0.3440 -0.0798 -0.1138
  120OSM   H15S12665   6.546   5.648   7.939  0.1200  0.2779  0.8352
  120OSM   H15T12666   6.435   5.774   7.876 -0.0556  1.0644 -0.3926
  120OSM   C16S12667   6.579   5.847   8.019  0.7278  0.2714  0.0508
  120OSM   H16S12668   6.568   5.952   7.987 -0.6225  1.1785  3.0809
  120OSM   H16T12669   6.686   5.832   8.046  1.0063 -0.5422 -1.4140
  120OSM   C17S12670   6.495   5.837   8.151  0.2311  0.1861  0.3423
  120OSM   H17S12671   6.393   5.879   8.139  0.4696  1.3513  2.1355
  120OSM   H17T12672   6.557   5.900   8.218  0.2126  0.9438 -0.3422
  120OSM   C18S12673   6.487   5.692   8.207 -0.3699 -0.0102 -0.5339
  120OSM   H18S12674   6.410   5.633   8.153 -0.9822 -0.4877  0.8071
  120OSM   H18T12675   6.457   5.693   8.314  0.4863  0.2327 -0.2915
  120OSM   H18U12676   6.587   5.650   8.185  0.7554  1.4536  1.5108
  120OSM    C1F12677   6.403   6.091   6.924 -0.0711  0.2065 -0.0865
  120OSM     OF12678   6.283   6.087   6.926  0.3289  0.6174  0.2945
  120OSM    C2F12679   6.496   6.142   7.030 -0.5948  0.4608  0.4242
  120OSM    H2F12680   6.592   6.092   7.005 -0.9899  0.5989 -1.4531
  120OSM    H2G12681   6.470   6.089   7.124  0.7189 -0.5329  0.2535
  120OSM    C3F12682   6.488   6.293   7.050  0.0102  0.2259  0.3087
  120OSM    H3F12683   6.390   6.335   7.081 -0.2384  0.7740 -1.1151
  120OSM    H3G12684   6.514   6.336   6.950 -0.1619 -1.9360 -0.7169
  120OSM    C4F12685   6.584   6.355   7.153  0.0542 -0.6532 -0.0867
  120OSM    H4F12686   6.589   6.465   7.135 -0.1414 -0.7910 -0.9937
  120OSM    H4G12687   6.686   6.312   7.160  0.5728  0.4643 -0.4202
  120OSM    C5F12688   6.532   6.355   7.296 -0.6970 -0.5981 -0.0150
  120OSM    H5F12689   6.422   6.361   7.288 -0.7131 -2.3885 -2.1787
  120OSM    H5G12690   6.568   6.447   7.348  0.8724 -1.3635  0.3341
  120OSM    C6F12691   6.567   6.238   7.396 -0.4944 -1.0797 -0.3728
  120OSM    H6F12692   6.532   6.290   7.488 -1.2161  0.7981 -1.6454
  120OSM    H6G12693   6.676   6.221   7.411 -0.5576 -0.3466  1.1498
  120OSM    C7F12694   6.487   6.110   7.384  0.5145 -0.1842  0.3808
  120OSM    H7F12695   6.558   6.036   7.341 -1.6474 -0.3789 -3.2527
  120OSM    H7G12696   6.405   6.123   7.310 -0.7347 -2.2393  1.3242
  120OSM    C8F12697   6.414   6.064   7.513  0.5563 -0.0772  0.3310
  120OSM    H8F12698   6.485   6.045   7.596  2.4537 -2.6173 -1.7034
  120OSM    H8G12699   6.384   5.958   7.498  2.2183 -0.5959  0.4978
  120OSM    C9F12700   6.289   6.146   7.552 -0.6114  0.2050  0.3151
  120OSM    H9F12701   6.216   6.157   7.470 -0.7332  0.3135  0.4368
  120OSM   C10F12702   6.277   6.215   7.667  0.7187 -0.0464  0.1427
  120OSM   H10F12703   6.185   6.273   7.684  2.4536  3.4718 -1.5550
  120OSM   C11F12704   6.379   6.216   7.780  0.2305 -0.1511  0.0581
  120OSM   H11F12705   6.459   6.293   7.776 -0.2200  0.3389  0.1874
  120OSM   H11G12706   6.432   6.119   7.789 -0.5821 -0.4348  3.0125
  120OSM   C12F12707   6.298   6.257   7.908  0.1986  0.5134 -0.1476
  120OSM   H12F12708   6.210   6.192   7.928  0.8563 -0.1019  0.8438
  120OSM   H12G12709   6.263   6.362   7.895 -0.3322  0.5499  1.3888
  120OSM   C13F12710   6.382   6.230   8.036  0.0546  0.4573  0.4099
  120OSM   H13F12711   6.463   6.306   8.035  1.8845 -1.4251  0.4301
  120OSM   H13G12712   6.429   6.131   8.047 -0.3963  0.4262  2.5737
  120OSM   C14F12713   6.311   6.272   8.168  0.4749 -0.6441  0.1381
  120OSM   H14F12714   6.224   6.209   8.197  0.0525  0.4473  1.3308
  120OSM   H14G12715   6.287   6.380   8.163 -1.0901 -0.9325  0.8919
  120OSM   C15F12716   6.408   6.270   8.287  0.6008  0.2170 -0.9763
  120OSM   H15F12717   6.499   6.320   8.248  0.9171  1.3272  1.0197
  120OSM   H15G12718   6.432   6.164   8.312 -2.4095 -0.3995 -0.2533
  120OSM   C16F12719   6.374   6.338   8.418  0.4315  0.8778 -0.4555
  120OSM   H16F12720   6.306   6.423   8.397 -1.9376 -0.7178  0.4650
  120OSM   H16G12721   6.464   6.376   8.472  0.6547 -0.3569  0.0756
  120OSM   C17F12722   6.290   6.255   8.514  0.5091  0.4441  0.4133
  120OSM   H17F12723   6.361   6.173   8.538 -1.1834 -1.7244 -1.4462
  120OSM   H17G12724   6.209   6.204   8.458  0.1926 -0.2371  1.4644
  120OSM   C18F12725   6.222   6.339   8.618 -0.0405  0.1864 -0.1885
  120OSM   H18F12726   6.171   6.262   8.680  0.3865 -1.0725 -1.3589
  120OSM   H18G12727   6.157   6.423   8.583 -1.0201 -0.4333  0.0893
  120OSM   H18H12728   6.299   6.385   8.683  0.9616 -2.6256  0.7455
  121OSM      N12729   0.903   0.849   6.163 -0.6375 -0.6786 -0.7921
  121OSM    C1512730   0.906   0.805   6.023 -0.1930 -0.5799  0.1821
  121OSM   H15A12731   0.821   0.851   5.974 -1.0290 -2.3310 -0.1033
  121OSM   H15B12732   0.896   0.701   5.995  0.3723 -0.0057 -2.3981
  121OSM   H15C12733   0.992   0.845   5.971 -1.4517  1.5314 -0.4139
  121OSM    C1412734   0.929   0.994   6.160 -0.1225 -0.0782  0.1037
  121OSM   H14A12735   1.030   1.016   6.131 -0.9944  3.3007 -0.8354
  121OSM   H14B12736   0.907   1.049   6.251  1.1732  1.9903 -0.7649
  121OSM   H14C12737   0.875   1.043   6.081  1.7793 -0.2671 -1.3795
  121OSM    C1312738   0.768   0.828   6.218 -0.6735 -0.0894  0.1364
  121OSM   H13A12739   0.759   0.872   6.317 -1.4614 -0.0600  0.0617
  121OSM   H13B12740   0.743   0.725   6.237  1.2465 -0.4015  1.2233
  121OSM   H13C12741   0.690   0.881   6.166 -0.9642 -0.6285  0.0162
  121OSM    C1212742   1.013   0.783   6.249 -0.2033 -0.1177  0.2877
  121OSM   H12A12743   1.030   0.846   6.335 -2.6058 -0.9288  1.4358
  121OSM   H12B12744   1.100   0.786   6.184 -0.5252  0.6140 -0.1158
  121OSM    C1112745   0.982   0.640   6.290 -0.0652  0.6150  0.3835
  121OSM   H11A12746   0.883   0.628   6.339  0.3699 -1.1974  0.9400
  121OSM   H11B12747   1.052   0.621   6.375  0.1381  1.3152  0.3765
  121OSM      P12748   1.015   0.408   6.191 -0.4144  0.0384 -0.1085
  121OSM    O1312749   0.895   0.340   6.138 -0.4060 -0.1349  0.1407
  121OSM    O1412750   1.138   0.380   6.116  0.1518  0.3680 -0.3206
  121OSM    O1112751   1.047   0.372   6.345 -0.3668 -0.2934  0.1775
  121OSM    O1212752   0.991   0.560   6.178 -0.1981  0.0152 -0.0805
  121OSM    C1S12753   1.175   0.385   6.408  0.3652 -0.1358  0.0360
  121OSM    H1S12754   1.235   0.466   6.362 -0.4235 -0.1059 -0.9721
  121OSM    H1T12755   1.237   0.293   6.392  0.0115 -0.3424 -0.1453
  121OSM     NF12756   1.275   0.448   6.629 -0.2863  0.3079  0.0536
  121OSM    HNF12757   1.301   0.397   6.710  0.6441  0.9176  0.1454
  121OSM    C2S12758   1.154   0.405   6.562  0.8259 -0.7241 -0.9825
  121OSM    H2S12759   1.092   0.497   6.577  2.4155  0.1810  0.5413
  121OSM    C3S12760   1.101   0.271   6.615 -0.5071  0.1517 -0.7676
  121OSM    H3S12761   1.171   0.188   6.588  0.2639  0.9615 -1.2972
  121OSM     O312762   0.966   0.245   6.572 -0.2735 -0.1911 -0.9679
  121OSM    HO312763   0.961   0.297   6.491 -1.7053 -0.1727 -0.8951
  121OSM    C4S12764   1.084   0.281   6.766 -0.9367 -0.6127  0.5245
  121OSM    H4S12765   1.025   0.361   6.813  0.2596  0.1098  0.8191
  121OSM    C5S12766   1.155   0.204   6.854 -0.1860 -0.2139  0.5472
  121OSM    H5S12767   1.229   0.137   6.808 -1.4963 -0.9267 -0.5891
  121OSM    C6S12768   1.172   0.223   7.002  0.2828  0.5676  0.5711
  121OSM    H6S12769   1.270   0.264   7.034 -0.3914  2.8060 -0.0631
  121OSM    H6T12770   1.154   0.126   7.053 -1.7811  0.5958 -0.0403
  121OSM    C7S12771   1.060   0.307   7.064  0.5301  0.3943  0.2997
  121OSM    H7S12772   0.961   0.274   7.026  0.4216 -1.2774  1.8498
  121OSM    H7T12773   1.084   0.410   7.033  3.5195 -0.0832  0.7423
  121OSM    C8S12774   1.071   0.297   7.215 -0.2987  0.2432 -0.3233
  121OSM    H8S12775   1.172   0.328   7.252 -1.5330  0.7595  2.9460
  121OSM    H8T12776   1.061   0.188   7.234 -0.5224  0.6061  1.8424
  121OSM    C9S12777   0.966   0.372   7.293  0.3697 -0.2130 -0.3844
  121OSM    H9S12778   0.869   0.341   7.247  0.4826  0.8087 -1.3682
  121OSM    H9T12779   0.968   0.481   7.273  1.4031  0.0407  1.0040
  121OSM   C10S12780   0.972   0.347   7.443  0.2307 -0.9192  0.2888
  121OSM   H10S12781   0.882   0.399   7.481  0.4268 -1.2388  1.2262
  121OSM   H10T12782   1.052   0.407   7.491 -0.1544  1.2724 -1.6506
  121OSM   C11S12783   0.995   0.202   7.484  0.2017 -0.1403 -0.3409
  121OSM   H11S12784   1.093   0.163   7.448 -0.2780 -1.0059 -0.7443
  121OSM   H11T12785   0.916   0.138   7.439  0.0421 -0.8268  0.8607
  121OSM   C12S12786   0.960   0.171   7.628 -0.0487 -0.2437  0.7893
  121OSM   H12S12787   0.945   0.061   7.628 -0.2346 -0.2423 -0.8117
  121OSM   H12T12788   0.869   0.220   7.667 -0.4020  0.1698 -0.5307
  121OSM   C13S12789   1.083   0.189   7.718  0.1938  0.4307 -0.4633
  121OSM   H13S12790   1.110   0.297   7.716 -0.9475  0.7191 -1.1973
  121OSM   H13T12791   1.169   0.127   7.683  1.8567  2.0639  0.5337
  121OSM   C14S12792   1.067   0.149   7.861 -0.3867  0.5550 -0.1379
  121OSM   H14S12793   1.099   0.044   7.877 -1.5115  0.3410  0.7840
  121OSM   H14T12794   0.967   0.162   7.906 -0.1983  0.5372  0.2914
  121OSM   C15S12795   1.159   0.230   7.954 -0.0804 -0.0773 -0.1984
  121OSM   H15S12796   1.111   0.330   7.965  0.1731  0.2750 -1.9923
  121OSM   H15T12797   1.263   0.227   7.916 -0.1949  1.1783 -0.6836
  121OSM   C16S12798   1.148   0.186   8.103 -0.3604  0.7653 -0.2697
  121OSM   H16S12799   1.234   0.241   8.146  0.1811 -0.5052  0.3199
  121OSM   H16T12800   1.169   0.077   8.105 -0.3126  0.7610 -0.8095
  121OSM   C17S12801   1.014   0.218   8.173 -0.5403 -0.0880  0.3075
  121OSM   H17S12802   0.937   0.148   8.134 -1.9580  0.8219  1.3895
  121OSM   H17T12803   0.992   0.325   8.156  1.8432  0.2657 -1.0415
  121OSM   C18S12804   1.013   0.205   8.325  0.1313  0.4483 -0.8408
  121OSM   H18S12805   0.923   0.246   8.374  0.1001  0.2777 -0.7556
  121OSM   H18T12806   1.097   0.263   8.368 -0.2015  0.8204 -0.6851
  121OSM   H18U12807   1.037   0.100   8.353  0.7420  0.6671 -0.5315
  121OSM    C1F12808   1.327   0.569   6.609  0.7013  0.1322 -0.2208
  121OSM     OF12809   1.284   0.647   6.527 -0.2176  0.5417  0.5078
  121OSM    C2F12810   1.458   0.596   6.678 -0.0315 -0.0046  0.3273
  121OSM    H2F12811   1.517   0.647   6.600 -1.1503  0.6046 -0.1384
  121OSM    H2G12812   1.499   0.498   6.713 -0.2315 -0.0362  0.4768
  121OSM    C3F12813   1.448   0.705   6.793 -0.1236  0.3311 -0.4079
  121OSM    H3F12814   1.383   0.787   6.754 -0.5839 -0.7972 -2.1252
  121OSM    H3G12815   1.550   0.743   6.818 -0.3439 -0.7348  2.4278
  121OSM    C4F12816   1.383   0.642   6.914 -0.7350 -0.1855  0.6252
  121OSM    H4F12817   1.286   0.597   6.883 -0.7188  1.0663 -1.4312
  121OSM    H4G12818   1.350   0.723   6.982 -3.7558 -0.6932 -0.0684
  121OSM    C5F12819   1.483   0.551   6.989 -0.7357 -0.5276  0.5758
  121OSM    H5F12820   1.580   0.603   7.002 -1.2401  0.2719  1.2686
  121OSM    H5G12821   1.507   0.466   6.923 -2.1908 -0.7305  0.2775
  121OSM    C6F12822   1.440   0.507   7.125 -0.0663  0.5716 -0.4942
  121OSM    H6F12823   1.527   0.451   7.165  1.0474  2.1324 -0.6126
  121OSM    H6G12824   1.355   0.438   7.107  0.1658 -0.1784  1.1824
  121OSM    C7F12825   1.387   0.612   7.231  0.9303  0.0948 -0.1150
  121OSM    H7F12826   1.298   0.664   7.188  0.2701 -2.0102 -1.4441
  121OSM    H7G12827   1.467   0.686   7.252  0.7383  0.2436  0.0962
  121OSM    C8F12828   1.352   0.548   7.371 -0.7283  0.4323 -0.1604
  121OSM    H8F12829   1.278   0.471   7.341 -1.6473  1.9192 -1.9275
  121OSM    H8G12830   1.295   0.615   7.439 -1.1862 -0.0253 -0.0884
  121OSM    C9F12831   1.467   0.481   7.437 -0.4913  0.3973 -0.3842
  121OSM    H9F12832   1.544   0.430   7.378  0.9789 -0.3560  2.0538
  121OSM   C10F12833   1.489   0.463   7.566 -0.1388 -0.2519  0.8017
  121OSM   H10F12834   1.578   0.404   7.593  0.1378  0.5832  1.7457
  121OSM   C11F12835   1.396   0.502   7.673  0.7283 -0.2164  0.4152
  121OSM   H11F12836   1.371   0.414   7.736 -1.5560  1.7847  2.4973
  121OSM   H11G12837   1.295   0.537   7.641  1.2711  1.5034  0.4923
  121OSM   C12F12838   1.457   0.607   7.767  0.0734  0.0329  0.2000
  121OSM   H12F12839   1.381   0.656   7.831 -0.9016 -1.3467  0.1463
  121OSM   H12G12840   1.486   0.697   7.709  0.8954 -1.3028 -1.5650
  121OSM   C13F12841   1.584   0.573   7.841  0.5682  0.1873 -0.3659
  121OSM   H13F12842   1.666   0.566   7.767  1.5509  2.4200  0.4260
  121OSM   H13G12843   1.568   0.484   7.906 -0.0423  0.5950  0.0521
  121OSM   C14F12844   1.634   0.692   7.930 -0.9248  0.1031 -0.4491
  121OSM   H14F12845   1.560   0.742   7.996  2.4067  1.5421  2.5580
  121OSM   H14G12846   1.683   0.765   7.862 -0.5719  0.6661  0.3941
  121OSM   C15F12847   1.734   0.655   8.042 -0.7704 -0.1700  0.0570
  121OSM   H15F12848   1.820   0.599   8.000 -0.9041  0.3579 -0.9372
  121OSM   H15G12849   1.689   0.573   8.101 -1.3253 -1.2339 -1.7886
  121OSM   C16F12850   1.804   0.774   8.120 -0.0130  1.1199  0.2263
  121OSM   H16F12851   1.725   0.843   8.157 -1.0149  0.4222 -0.5403
  121OSM   H16G12852   1.864   0.835   8.050 -1.3924  2.3822  0.0894
  121OSM   C17F12853   1.882   0.715   8.235 -0.0090 -0.3076 -0.3457
  121OSM   H17F12854   1.954   0.641   8.194  1.4996 -0.0243  1.5980
  121OSM   H17G12855   1.810   0.657   8.297  0.3234 -0.8014 -0.4157
  121OSM   C18F12856   1.955   0.820   8.315  0.5225  0.4588 -0.0254
  121OSM   H18F12857   1.888   0.879   8.380  1.3652  1.2182  0.1709
  121OSM   H18G12858   2.006   0.898   8.254  0.5422 -0.7313 -1.6063
  121OSM   H18H12859   2.020   0.777   8.394 -1.2980  1.8609  2.3681
  122OSM      N12860   5.928   2.735   6.188 -0.2484 -0.3165 -0.4098
  122OSM    C1512861   5.797   2.702   6.121  0.4845 -0.1440  0.1658
  122OSM   H15A12862   5.811   2.642   6.033 -1.6780  1.0575 -1.0655
  122OSM   H15B12863   5.751   2.792   6.082 -1.2349 -0.8020  0.5922
  122OSM   H15C12864   5.731   2.651   6.190  1.1966 -0.0791  0.9221
  122OSM    C1412865   6.031   2.794   6.091 -0.0801  0.0017 -0.2521
  122OSM   H14A12866   5.999   2.893   6.064  0.6336 -0.3046 -2.4682
  122OSM   H14B12867   6.049   2.731   6.005 -1.7249  0.0002 -0.6292
  122OSM   H14C12868   6.124   2.819   6.139  2.6685 -0.2701 -4.8448
  122OSM    C1312869   5.907   2.841   6.295 -0.5912  0.0776 -0.5952
  122OSM   H13A12870   5.835   2.793   6.359  1.3768 -2.6118 -0.2514
  122OSM   H13B12871   5.874   2.933   6.250  0.6000 -0.4864 -2.7713
  122OSM   H13C12872   5.998   2.860   6.348 -0.2245 -1.5288 -0.5922
  122OSM    C1212873   5.986   2.612   6.256 -0.0208  0.3468  0.1219
  122OSM   H12A12874   5.929   2.579   6.341 -0.1404 -3.9719 -1.3565
  122OSM   H12B12875   6.081   2.633   6.302  0.2559 -2.3236  0.9613
  122OSM    C1112876   5.997   2.483   6.166  0.2608  0.3282  0.2010
  122OSM   H11A12877   5.905   2.473   6.105  1.8733  1.1185 -2.5493
  122OSM   H11B12878   6.007   2.387   6.220  0.5514  0.4307  0.3346
  122OSM      P12879   6.248   2.479   6.118  0.1827 -0.4433  0.2636
  122OSM    O1312880   6.308   2.354   6.063 -0.6478  0.2224 -0.0531
  122OSM    O1412881   6.306   2.607   6.076  0.1195  0.4829  0.5249
  122OSM    O1112882   6.240   2.473   6.279  0.3924  0.0449 -0.2310
  122OSM    O1212883   6.098   2.493   6.069 -0.0729  0.1187 -0.3042
  122OSM    C1S12884   6.334   2.553   6.356  0.3035 -0.4761  0.0926
  122OSM    H1S12885   6.302   2.655   6.326  1.8078  0.2483  0.8640
  122OSM    H1T12886   6.437   2.540   6.317  0.6057 -0.0468  0.7402
  122OSM     NF12887   6.402   2.640   6.567  0.6427 -0.1857  0.6343
  122OSM    HNF12888   6.485   2.622   6.619  0.5311  1.1747  1.3333
  122OSM    C2S12889   6.334   2.531   6.505 -0.5840  0.2200 -1.1073
  122OSM    H2S12890   6.229   2.520   6.538 -0.2752  0.1639 -0.1084
  122OSM    C3S12891   6.384   2.389   6.536  1.0970 -0.5317 -0.7970
  122OSM    H3S12892   6.478   2.361   6.483 -0.0666 -2.6498 -1.8752
  122OSM     O312893   6.288   2.296   6.483 -0.9717 -0.4554 -0.5028
  122OSM    HO312894   6.228   2.346   6.428 -0.4080 -2.1427 -2.8128
  122OSM    C4S12895   6.413   2.364   6.688 -0.3432  0.6421  0.1951
  122OSM    H4S12896   6.505   2.409   6.728  0.9365 -1.1665 -0.5545
  122OSM    C5S12897   6.342   2.307   6.786 -0.2034 -0.3717 -0.0710
  122OSM    H5S12898   6.244   2.265   6.759  0.5912 -1.8774 -0.7586
  122OSM    C6S12899   6.393   2.298   6.929 -0.2316  0.2340  0.1504
  122OSM    H6S12900   6.315   2.248   6.989 -0.5458  1.0900  0.4702
  122OSM    H6T12901   6.407   2.397   6.978  0.8622  0.3365 -0.3344
  122OSM    C7S12902   6.522   2.223   6.953 -0.2437 -0.1336 -0.0493
  122OSM    H7S12903   6.595   2.267   6.882  0.0007 -0.9027 -0.2783
  122OSM    H7T12904   6.507   2.117   6.926  1.2081  0.1241 -2.1125
  122OSM    C8S12905   6.573   2.253   7.092 -0.4842 -0.4304 -0.2941
  122OSM    H8S12906   6.557   2.361   7.110  0.6703 -0.3627  0.4208
  122OSM    H8T12907   6.681   2.228   7.102 -0.5731 -0.5749  0.3499
  122OSM    C9S12908   6.497   2.177   7.207  0.4678  0.3612 -0.1413
  122OSM    H9S12909   6.534   2.072   7.209 -0.2806 -0.0210 -2.6349
  122OSM    H9T12910   6.393   2.178   7.170  0.5484  0.0670 -0.3820
  122OSM   C10S12911   6.508   2.243   7.343 -0.8371  0.2817 -0.1717
  122OSM   H10S12912   6.610   2.282   7.362 -0.7857  1.3847 -2.3462
  122OSM   H10T12913   6.495   2.163   7.419  2.0352  0.7809  0.9816
  122OSM   C11S12914   6.412   2.362   7.366 -0.3407  0.0070 -0.2917
  122OSM   H11S12915   6.303   2.344   7.349 -0.3844 -2.8481  2.1959
  122OSM   H11T12916   6.427   2.441   7.290 -0.1779  0.9324  0.6731
  122OSM   C12S12917   6.430   2.435   7.506  0.1900 -0.3986  0.8924
  122OSM   H12S12918   6.361   2.520   7.523  0.7738  0.4132 -0.6431
  122OSM   H12T12919   6.530   2.483   7.517  0.6373 -1.3387  0.9894
  122OSM   C13S12920   6.399   2.344   7.632  0.0108  0.0612  0.1726
  122OSM   H13S12921   6.465   2.255   7.636  0.1161  0.1732  1.4172
  122OSM   H13T12922   6.294   2.316   7.610  0.1045 -0.6138  0.5521
  122OSM   C14S12923   6.427   2.431   7.755  0.2845  0.1269  0.2404
  122OSM   H14S12924   6.375   2.529   7.760  1.6813  0.8631  0.8853
  122OSM   H14T12925   6.536   2.451   7.756  0.6591 -1.6108 -1.3458
  122OSM   C15S12926   6.383   2.354   7.889  0.0742 -0.8176  0.1455
  122OSM   H15S12927   6.446   2.262   7.888 -1.4676 -1.9342 -1.5232
  122OSM   H15T12928   6.278   2.323   7.869 -0.2436 -0.0198  0.5470
  122OSM   C16S12929   6.393   2.430   8.024 -0.0968 -0.0077  0.8763
  122OSM   H16S12930   6.310   2.503   8.033 -0.2995 -0.4554  3.2097
  122OSM   H16T12931   6.493   2.477   8.030 -0.1469  0.4540 -1.0721
  122OSM   C17S12932   6.376   2.336   8.151  0.2662 -0.1979  0.0020
  122OSM   H17S12933   6.361   2.408   8.234 -1.2773  1.3863 -1.5748
  122OSM   H17T12934   6.481   2.299   8.158  0.6242  0.6725 -0.6129
  122OSM   C18S12935   6.264   2.238   8.152  0.8143  0.0614 -0.5035
  122OSM   H18S12936   6.162   2.280   8.144 -0.1520 -2.2294 -0.8984
  122OSM   H18T12937   6.265   2.181   8.247 -0.4763 -1.7981 -1.5560
  122OSM   H18U12938   6.261   2.165   8.068 -1.2124  0.0347 -0.4586
  122OSM    C1F12939   6.357   2.767   6.561  0.0834  0.0303 -0.6458
  122OSM     OF12940   6.245   2.792   6.517  0.2594  0.5854 -0.2746
  122OSM    C2F12941   6.454   2.881   6.590  0.1575  0.3199  0.0021
  122OSM    H2F12942   6.505   2.903   6.494 -0.0514 -2.0781 -0.7305
  122OSM    H2G12943   6.542   2.859   6.653  1.4893  3.1513 -0.7153
  122OSM    C3F12944   6.382   3.007   6.646 -0.4231  0.5083 -0.0154
  122OSM    H3F12945   6.290   3.040   6.592 -0.5604 -1.7235 -1.2690
  122OSM    H3G12946   6.460   3.085   6.635 -1.7385  1.7968 -0.6782
  122OSM    C4F12947   6.361   2.985   6.799  0.4156 -0.4374  0.3566
  122OSM    H4F12948   6.304   2.889   6.804 -2.7361  1.2453 -0.6720
  122OSM    H4G12949   6.286   3.063   6.823  0.8272  0.4281 -1.0446
  122OSM    C5F12950   6.480   2.980   6.893  0.2442  0.3124 -1.2108
  122OSM    H5F12951   6.547   3.066   6.875  1.1795 -0.2143 -0.3694
  122OSM    H5G12952   6.537   2.888   6.869  0.2630  0.0206 -0.1173
  122OSM    C6F12953   6.443   2.977   7.050  0.4146 -0.3762  0.2654
  122OSM    H6F12954   6.334   2.955   7.059  0.1336  1.1304  0.8797
  122OSM    H6G12955   6.440   3.081   7.091  0.7384 -0.3093  0.1207
  122OSM    C7F12956   6.521   2.890   7.137 -0.1091  0.6327  0.1786
  122OSM    H7F12957   6.626   2.921   7.159  0.3599  0.6034 -1.7889
  122OSM    H7G12958   6.545   2.795   7.083  0.8770  0.0200  1.6354
  122OSM    C8F12959   6.463   2.846   7.270  0.0178 -0.5389 -0.7974
  122OSM    H8F12960   6.370   2.788   7.253 -1.4690  1.9942 -1.7501
  122OSM    H8G12961   6.423   2.927   7.334  0.8516 -0.8661  0.1693
  122OSM    C9F12962   6.560   2.761   7.352 -0.2623 -0.0689 -0.0677
  122OSM    H9F12963   6.612   2.677   7.304  2.7414  0.2771  2.2125
  122OSM   C10F12964   6.572   2.767   7.487 -0.8487 -1.4469 -0.5191
  122OSM   H10F12965   6.638   2.693   7.534  1.0416 -0.4274 -1.4313
  122OSM   C11F12966   6.506   2.860   7.588 -0.4229 -0.2966 -0.6315
  122OSM   H11F12967   6.424   2.920   7.542  0.5743 -0.6700 -3.0688
  122OSM   H11G12968   6.589   2.923   7.626 -0.0418 -1.2142  0.1057
  122OSM   C12F12969   6.441   2.792   7.711  0.3608 -0.2866 -0.4692
  122OSM   H12F12970   6.515   2.734   7.770 -2.6608 -1.2402  2.7407
  122OSM   H12G12971   6.358   2.722   7.688  0.1946 -0.6939  1.2550
  122OSM   C13F12972   6.368   2.898   7.803  0.5560  0.1458 -0.4197
  122OSM   H13F12973   6.274   2.922   7.748  1.1656  1.4830 -0.9374
  122OSM   H13G12974   6.433   2.989   7.805  0.5865  0.1286 -0.6061
  122OSM   C14F12975   6.322   2.858   7.944 -0.0063  0.2459  0.2346
  122OSM   H14F12976   6.248   2.776   7.930  0.9770 -0.7578  0.7521
  122OSM   H14G12977   6.278   2.946   7.995 -0.7366  0.3828 -0.6084
  122OSM   C15F12978   6.442   2.804   8.024  0.1261 -0.3743 -0.5940
  122OSM   H15F12979   6.537   2.860   8.031  0.9347 -1.4507 -2.2586
  122OSM   H15G12980   6.483   2.715   7.972  0.6353 -0.8988  0.6839
  122OSM   C16F12981   6.405   2.769   8.169 -0.2637 -0.4603 -0.1962
  122OSM   H16F12982   6.310   2.712   8.178  0.4218 -1.5101  0.6454
  122OSM   H16G12983   6.391   2.870   8.211 -0.2552 -0.8355  0.7263
  122OSM   C17F12984   6.516   2.710   8.260 -0.0098 -0.5808  0.6159
  122OSM   H17F12985   6.604   2.778   8.263 -1.5471  1.6891 -1.8082
  122OSM   H17G12986   6.547   2.612   8.218 -2.5310 -1.3624  0.4332
  122OSM   C18F12987   6.449   2.682   8.394  0.2398  0.7099 -0.3731
  122OSM   H18F12988   6.504   2.612   8.460 -1.4176 -0.1550  0.1546
  122OSM   H18G12989   6.351   2.634   8.374  1.0466 -0.7730 -0.9747
  122OSM   H18H12990   6.427   2.778   8.446 -0.4884  0.5779 -0.4204
  123OSM      N12991   6.084   4.919   6.412  0.1878 -0.1033 -0.0221
  123OSM    C1512992   6.094   4.791   6.485 -0.0113 -0.1911 -0.4550
  123OSM   H15A12993   6.150   4.803   6.577 -0.1495  0.3162 -0.4354
  123OSM   H15B12994   6.138   4.715   6.422  0.5841  1.9028 -2.6754
  123OSM   H15C12995   5.999   4.762   6.527  0.8375 -0.6495  1.2590
  123OSM    C1412996   6.213   4.970   6.369  0.5702 -0.4919  0.0367
  123OSM   H14A12997   6.265   4.910   6.296 -0.4364  2.3912 -3.3222
  123OSM   H14B12998   6.275   4.996   6.454  0.3167  0.4997 -0.0794
  123OSM   H14C12999   6.199   5.068   6.327  4.4154  0.0973 -0.2384
  123OSM    C1313000   6.005   4.891   6.291  0.1511  0.7685 -0.1746
  123OSM   H13A13001   6.048   4.805   6.242 -1.2701  0.1408 -0.3670
  123OSM   H13B13002   6.001   4.974   6.222 -0.8341  0.8214 -0.0689
  123OSM   H13C13003   5.905   4.854   6.312  0.9658 -1.9334 -0.6965
  123OSM    C1213004   6.005   5.019   6.498  0.1447  0.6472 -0.1040
  123OSM   H12A13005   5.994   5.107   6.437 -1.0050  2.8482  2.9983
  123OSM   H12B13006   6.079   5.054   6.568  0.2349 -0.1312  0.2075
  123OSM    C1113007   5.870   4.984   6.558  0.0435 -0.1653 -0.3651
  123OSM   H11A13008   5.843   5.045   6.647  1.3052  0.5246 -0.4321
  123OSM   H11B13009   5.868   4.891   6.619 -1.2618 -1.0277 -1.6553
  123OSM      P13010   5.636   5.056   6.452 -0.0405  0.0687 -0.7950
  123OSM    O1313011   5.671   5.173   6.367 -0.0019  0.3033  0.0625
  123OSM    O1413012   5.526   4.972   6.395 -0.2333 -0.1081 -0.0311
  123OSM    O1113013   5.614   5.107   6.606 -0.2640  0.3664 -0.2074
  123OSM    O1213014   5.764   4.967   6.465  0.5230 -0.4229 -0.8334
  123OSM    C1S13015   5.586   5.004   6.703  0.0921 -0.3075 -0.0105
  123OSM    H1S13016   5.671   4.933   6.700  1.0628  0.7591  1.1749
  123OSM    H1T13017   5.488   4.954   6.687 -0.5993  1.5829 -2.2840
  123OSM     NF13018   5.582   4.977   6.953 -0.6196  0.4951 -0.2866
  123OSM    HNF13019   5.497   4.957   7.001 -0.1603 -0.9561 -0.0312
  123OSM    C2S13020   5.591   5.075   6.844 -0.5465  0.1453  0.1697
  123OSM    H2S13021   5.685   5.133   6.855  0.0735 -0.3520 -2.0692
  123OSM    C3S13022   5.479   5.187   6.858  0.3024  1.0340  0.4651
  123OSM    H3S13023   5.381   5.135   6.863  0.9665 -0.1488  2.2117
  123OSM     O313024   5.469   5.270   6.744  0.2065 -0.4202  0.6665
  123OSM    HO313025   5.514   5.209   6.685 -0.7825 -2.5250  1.9585
  123OSM    C4S13026   5.495   5.267   6.986 -0.2647 -0.3847 -0.4575
  123OSM    H4S13027   5.414   5.233   7.052  0.1505 -2.4309 -0.9296
  123OSM    C5S13028   5.570   5.380   7.012 -0.2841 -0.9245  0.7899
  123OSM    H5S13029   5.625   5.427   6.929 -0.4474 -1.6571  0.2533
  123OSM    C6S13030   5.577   5.457   7.145 -0.2069 -0.1967 -0.1371
  123OSM    H6S13031   5.513   5.548   7.144  1.3138  0.9108 -0.1999
  123OSM    H6T13032   5.678   5.499   7.165 -0.2290 -0.3891  0.3863
  123OSM    C7S13033   5.544   5.361   7.264  0.3504 -0.2555  0.5288
  123OSM    H7S13034   5.597   5.264   7.265 -1.0954 -1.2808 -3.2651
  123OSM    H7T13035   5.436   5.336   7.259  0.2178  0.4657 -1.7623
  123OSM    C8S13036   5.561   5.432   7.397  0.3613 -0.0699  0.0833
  123OSM    H8S13037   5.479   5.507   7.408  0.2418 -0.2179  0.1962
  123OSM    H8T13038   5.661   5.481   7.400  1.2697 -1.8375 -0.2976
  123OSM    C9S13039   5.571   5.327   7.505 -0.0322  0.1599 -0.0811
  123OSM    H9S13040   5.642   5.248   7.475  1.5290  1.3495  0.3404
  123OSM    H9T13041   5.470   5.284   7.519 -0.6832  1.4608 -0.5921
  123OSM   C10S13042   5.611   5.396   7.636  0.7564  0.0801  0.8298
  123OSM   H10S13043   5.543   5.481   7.656  0.0684 -0.5495  1.2405
  123OSM   H10T13044   5.714   5.436   7.623  1.6976 -2.1218  1.0042
  123OSM   C11S13045   5.606   5.319   7.765 -0.0146 -0.1389 -0.1349
  123OSM   H11S13046   5.667   5.226   7.767 -0.1438 -0.2784 -1.5490
  123OSM   H11T13047   5.504   5.280   7.780 -0.5925  0.5632 -1.9920
  123OSM   C12S13048   5.650   5.400   7.889  0.7797 -0.2537  0.3607
  123OSM   H12S13049   5.612   5.503   7.874  1.6014  0.2832  1.8379
  123OSM   H12T13050   5.760   5.409   7.890  1.1787 -1.8913 -3.9940
  123OSM   C13S13051   5.601   5.344   8.017  0.0162  0.1377 -0.5222
  123OSM   H13S13052   5.642   5.241   8.028 -1.9533 -0.5032  1.7204
  123OSM   H13T13053   5.492   5.357   8.033 -0.0507  0.4722 -1.2418
  123OSM   C14S13054   5.675   5.410   8.137 -0.6029 -0.4750  0.4098
  123OSM   H14S13055   5.649   5.516   8.118  0.6560 -0.5082 -1.9009
  123OSM   H14T13056   5.786   5.400   8.132 -0.6229 -0.7934  0.5611
  123OSM   C15S13057   5.635   5.366   8.273  0.0302 -0.0595 -0.3838
  123OSM   H15S13058   5.633   5.255   8.280 -0.3255  0.0197  1.3269
  123OSM   H15T13059   5.531   5.399   8.296 -0.0595 -0.6993  0.1684
  123OSM   C16S13060   5.726   5.428   8.389 -0.2966  0.2844  0.6545
  123OSM   H16S13061   5.677   5.397   8.484  1.1981 -0.2223  1.2953
  123OSM   H16T13062   5.734   5.538   8.393  3.5844  0.1562  0.5771
  123OSM   C17S13063   5.867   5.373   8.409 -0.6314  0.5046  0.1470
  123OSM   H17S13064   5.914   5.355   8.310 -0.9558 -2.3651  0.4271
  123OSM   H17T13065   5.855   5.276   8.462  1.4103 -1.3165 -2.4282
  123OSM   C18S13066   5.962   5.467   8.487  1.1376 -0.8318 -0.5824
  123OSM   H18S13067   6.058   5.412   8.499  0.2395 -2.0540  1.4747
  123OSM   H18T13068   5.923   5.478   8.591 -0.2354 -3.2631 -0.7705
  123OSM   H18U13069   5.983   5.564   8.437 -1.0098 -0.2986 -0.5588
  123OSM    C1F13070   5.687   4.898   6.977 -0.7350 -0.1954 -0.2115
  123OSM     OF13071   5.798   4.937   6.932  0.3509  0.5477 -0.1532
  123OSM    C2F13072   5.673   4.772   7.052 -0.6217  0.5810  0.3094
  123OSM    H2F13073   5.733   4.701   6.991 -1.8051  0.6464 -0.9698
  123OSM    H2G13074   5.569   4.735   7.060 -0.3881 -0.3375 -0.5952
  123OSM    C3F13075   5.734   4.777   7.198 -0.1810 -0.3745 -0.4039
  123OSM    H3F13076   5.836   4.819   7.187  0.5584 -2.1535 -0.7121
  123OSM    H3G13077   5.763   4.674   7.228  1.3013 -1.1303 -3.9684
  123OSM    C4F13078   5.657   4.860   7.304 -0.8797  0.6644 -0.4210
  123OSM    H4F13079   5.618   4.954   7.259 -3.7339  0.1704  0.7436
  123OSM    H4G13080   5.720   4.891   7.390 -0.6312  0.0742 -0.3835
  123OSM    C5F13081   5.524   4.793   7.348  0.0404  0.6871  0.0641
  123OSM    H5F13082   5.549   4.694   7.391  2.0487  0.6369 -1.1003
  123OSM    H5G13083   5.470   4.769   7.254  1.4863 -0.4684 -0.5143
  123OSM    C6F13084   5.449   4.876   7.458  0.2078  0.6172 -0.0771
  123OSM    H6F13085   5.347   4.832   7.457 -0.3188  1.7400 -2.1977
  123OSM    H6G13086   5.420   4.974   7.414  1.2162  1.1081  0.3169
  123OSM    C7F13087   5.491   4.868   7.606  0.1636  0.2441  0.4803
  123OSM    H7F13088   5.602   4.878   7.613  0.1332  0.5416  0.5522
  123OSM    H7G13089   5.475   4.760   7.622 -0.0726 -0.0816 -1.6564
  123OSM    C8F13090   5.413   4.964   7.695  0.1479  0.5315 -0.3883
  123OSM    H8F13091   5.368   5.047   7.637 -2.2502 -2.1737 -2.7339
  123OSM    H8G13092   5.486   5.008   7.766 -1.2536 -0.1897  1.5948
  123OSM    C9F13093   5.307   4.898   7.778 -0.4113  0.3698 -0.6124
  123OSM    H9F13094   5.233   4.848   7.714  0.0352  0.0728 -0.9089
  123OSM   C10F13095   5.287   4.901   7.910 -0.7853  1.2485 -0.0450
  123OSM   H10F13096   5.206   4.840   7.954 -0.8465  0.6658 -0.9460
  123OSM   C11F13097   5.367   4.981   8.007 -0.4616  0.4532 -0.4557
  123OSM   H11F13098   5.469   4.986   7.965 -0.6342  2.6994 -0.7084
  123OSM   H11G13099   5.372   4.924   8.103 -1.9770 -0.6284 -0.9787
  123OSM   C12F13100   5.325   5.124   8.023  0.0665 -0.3560  0.9037
  123OSM   H12F13101   5.332   5.172   7.923 -0.6423 -1.7423  0.1632
  123OSM   H12G13102   5.397   5.170   8.094 -1.0169  3.0293 -0.0267
  123OSM   C13F13103   5.179   5.129   8.068  0.2135 -0.5437  0.1856
  123OSM   H13F13104   5.115   5.059   8.011 -0.2717 -0.2781  0.4001
  123OSM   H13G13105   5.146   5.234   8.058  2.5843  0.1722 -0.8855
  123OSM   C14F13106   5.165   5.095   8.220 -0.0859 -0.4793  0.6236
  123OSM   H14F13107   5.195   4.988   8.224 -0.6749 -0.8940 -2.7771
  123OSM   H14G13108   5.059   5.096   8.252 -0.1736 -0.6811  0.3464
  123OSM   C15F13109   5.239   5.192   8.306  0.4892 -0.1851 -0.1385
  123OSM   H15F13110   5.183   5.287   8.293 -0.1167 -0.7623 -2.2106
  123OSM   H15G13111   5.338   5.219   8.263 -0.7166  1.0580 -2.3038
  123OSM   C16F13112   5.246   5.156   8.451 -0.1626  0.2055 -0.0151
  123OSM   H16F13113   5.292   5.057   8.469 -3.0345 -1.0805  0.9584
  123OSM   H16G13114   5.150   5.152   8.508 -0.6805  0.9603 -0.7965
  123OSM   C17F13115   5.325   5.262   8.527  0.6767  0.4275  0.0137
  123OSM   H17F13116   5.283   5.363   8.508 -0.2577  0.2577  1.0753
  123OSM   H17G13117   5.425   5.260   8.479  1.4878 -1.0276  1.6582
  123OSM   C18F13118   5.329   5.232   8.683  0.3784 -0.0028 -0.4971
  123OSM   H18F13119   5.374   5.321   8.732 -2.2556  0.2202  1.7772
  123OSM   H18G13120   5.392   5.142   8.696 -1.3269 -0.9869  1.5857
  123OSM   H18H13121   5.225   5.214   8.718  0.0975  0.2161 -1.1964
  124OSM      N13122   4.842   1.563   6.050  0.4927  0.5750  0.5450
  124OSM    C1513123   4.720   1.484   6.098 -0.5568 -0.0376 -0.6551
  124OSM   H15A13124   4.630   1.540   6.117 -2.1453 -2.5586 -0.3713
  124OSM   H15B13125   4.743   1.445   6.196 -0.1772 -1.3512 -1.2423
  124OSM   H15C13126   4.689   1.396   6.043 -0.6000 -0.9580  0.7828
  124OSM    C1413127   4.831   1.610   5.909  0.0318  0.2711 -0.1872
  124OSM   H14A13128   4.826   1.530   5.836 -0.3613  1.6155 -1.7153
  124OSM   H14B13129   4.924   1.660   5.884 -0.1594  0.3024 -0.8616
  124OSM   H14C13130   4.751   1.680   5.891 -0.5275 -0.2842  0.1369
  124OSM    C1313131   4.849   1.690   6.130 -0.6505 -0.5774  0.7834
  124OSM   H13A13132   4.755   1.742   6.120 -0.6885 -0.9486 -1.2356
  124OSM   H13B13133   4.928   1.757   6.097 -0.3290 -1.8177 -1.1647
  124OSM   H13C13134   4.858   1.679   6.237  0.2342 -1.0164  0.6766
  124OSM    C1213135   4.968   1.483   6.063 -0.0819  0.2191  0.2726
  124OSM   H12A13136   5.043   1.544   6.015 -4.0749  3.6924 -2.1546
  124OSM   H12B13137   4.967   1.389   6.009 -1.3148  1.1265 -1.3652
  124OSM    C1113138   5.002   1.451   6.212  0.0609 -0.3326  0.2739
  124OSM   H11A13139   4.993   1.539   6.279 -2.9330  0.2124 -0.6926
  124OSM   H11B13140   5.106   1.411   6.214 -0.2232 -1.1042 -0.0407
  124OSM      P13141   4.925   1.196   6.217 -0.2251 -0.0440  0.0748
  124OSM    O1313142   4.818   1.118   6.284  0.3258 -0.6205  0.2085
  124OSM    O1413143   4.924   1.184   6.071 -0.0841  0.3366  0.6168
  124OSM    O1113144   5.062   1.161   6.283  0.3460  0.0137  0.1498
  124OSM    O1213145   4.911   1.352   6.258 -0.1595 -0.5921  0.2234
  124OSM    C1S13146   5.093   1.200   6.420 -0.0705  0.1966 -0.1168
  124OSM    H1S13147   5.028   1.282   6.457  1.1184  0.6680  0.9983
  124OSM    H1T13148   5.192   1.249   6.422 -0.9160  2.0410  2.1609
  124OSM     NF13149   5.154   1.141   6.651 -0.5903 -0.3451 -0.5802
  124OSM    HNF13150   5.250   1.125   6.670 -0.2312  0.4209 -1.6672
  124OSM    C2S13151   5.106   1.087   6.522 -0.3198 -0.0942 -0.3264
  124OSM    H2S13152   5.007   1.040   6.544  0.5244 -1.6056  0.3884
  124OSM    C3S13153   5.184   0.963   6.470  0.2184  0.2244  0.1566
  124OSM    H3S13154   5.285   1.005   6.453  0.8787 -1.0371  0.8686
  124OSM     O313155   5.152   0.912   6.340 -0.0623 -0.0184 -0.4030
  124OSM    HO313156   5.106   0.985   6.297 -0.4436 -0.2585 -0.4086
  124OSM    C4S13157   5.179   0.852   6.577 -0.5804 -0.0752 -0.3139
  124OSM    H4S13158   5.258   0.852   6.654 -0.6263  1.1167 -0.2545
  124OSM    C5S13159   5.090   0.752   6.586 -0.3657 -0.8494 -0.1990
  124OSM    H5S13160   5.007   0.750   6.515 -1.0347 -1.0166  0.5748
  124OSM    C6S13161   5.081   0.639   6.685 -0.8311 -0.7944 -0.4151
  124OSM    H6S13162   5.093   0.546   6.625 -2.0935 -1.8723  0.9243
  124OSM    H6T13163   4.977   0.628   6.725 -1.1755  1.4277 -0.5643
  124OSM    C7S13164   5.192   0.640   6.792 -1.2148  0.6812  0.4213
  124OSM    H7S13165   5.289   0.639   6.736 -1.2116 -0.3247  0.4226
  124OSM    H7T13166   5.204   0.539   6.838  1.5539  0.1851 -1.1112
  124OSM    C8S13167   5.162   0.739   6.900 -0.4264  0.0712 -0.6288
  124OSM    H8S13168   5.065   0.729   6.953  0.2330  0.1868  0.6171
  124OSM    H8T13169   5.164   0.838   6.850  0.8487 -0.0723 -0.8837
  124OSM    C9S13170   5.281   0.750   6.988 -0.1777 -0.6477  0.0687
  124OSM    H9S13171   5.294   0.858   7.008 -0.2000 -0.3031 -1.6424
  124OSM    H9T13172   5.373   0.710   6.940 -0.8124 -1.5098 -0.4616
  124OSM   C10S13173   5.267   0.671   7.122  0.2834 -0.3432  0.5256
  124OSM   H10S13174   5.241   0.565   7.101 -1.2385 -0.0642  0.8792
  124OSM   H10T13175   5.172   0.702   7.171  0.4111  0.2650  0.3967
  124OSM   C11S13176   5.381   0.687   7.218  0.0229 -0.3107 -0.9861
  124OSM   H11S13177   5.409   0.794   7.232  0.4375 -0.5405  0.0921
  124OSM   H11T13178   5.475   0.638   7.184  1.7201  0.5542  2.0027
  124OSM   C12S13179   5.342   0.621   7.355  0.1750 -0.8347 -0.7940
  124OSM   H12S13180   5.256   0.682   7.392 -0.2128 -2.2001  0.6846
  124OSM   H12T13181   5.429   0.636   7.423  0.5417 -3.2400 -0.6689
  124OSM   C13S13182   5.303   0.477   7.355 -0.1641 -0.5475  0.4613
  124OSM   H13S13183   5.373   0.431   7.283  0.2693  0.2719  0.3422
  124OSM   H13T13184   5.204   0.456   7.310  1.1730 -1.3405 -2.3442
  124OSM   C14S13185   5.312   0.409   7.490 -0.1218 -0.0635 -0.3972
  124OSM   H14S13186   5.303   0.481   7.574 -2.3582  0.1768 -0.7884
  124OSM   H14T13187   5.412   0.364   7.508  0.0833  0.8544  0.8854
  124OSM   C15S13188   5.211   0.295   7.484 -0.6680  0.1167 -0.3320
  124OSM   H15S13189   5.217   0.253   7.382 -1.8801  1.0404 -0.8129
  124OSM   H15T13190   5.114   0.337   7.520  0.7096  0.0682  4.1011
  124OSM   C16S13191   5.262   0.185   7.580  0.1316 -0.0602 -0.1760
  124OSM   H16S13192   5.366   0.160   7.549  0.0183  1.3048 -1.8274
  124OSM   H16T13193   5.201   0.094   7.564 -0.1848  0.0210  0.5477
  124OSM   C17S13194   5.242   0.220   7.731 -0.4524  0.1340  0.3068
  124OSM   H17S13195   5.137   0.253   7.745 -0.2587 -0.3173  4.0068
  124OSM   H17T13196   5.300   0.313   7.752  0.1604 -0.0581 -0.5073
  124OSM   C18S13197   5.275   0.104   7.828 -0.1864 -0.0032 -0.6437
  124OSM   H18S13198   5.231   0.118   7.928  1.4468  1.9089 -0.1435
  124OSM   H18T13199   5.386   0.106   7.836 -0.2068  1.8778 -0.5439
  124OSM   H18U13200   5.242   0.003   7.795 -1.7182 -0.3879  1.8979
  124OSM    C1F13201   5.082   1.224   6.729 -0.5299  0.4477  0.4512
  124OSM     OF13202   4.969   1.262   6.706 -0.3569 -0.3249  0.1138
  124OSM    C2F13203   5.159   1.274   6.845 -0.5677 -0.1841  0.3848
  124OSM    H2F13204   5.135   1.382   6.851 -0.1597 -0.0578 -0.1956
  124OSM    H2G13205   5.264   1.258   6.813 -0.1905  1.1848  0.8706
  124OSM    C3F13206   5.104   1.211   6.973  0.9183  0.1380  0.7655
  124OSM    H3F13207   5.099   1.101   6.962 -0.4742 -0.2021  3.7001
  124OSM    H3G13208   5.004   1.257   6.986  1.3987  1.0356  1.4169
  124OSM    C4F13209   5.181   1.243   7.100 -0.1034  0.3086  0.5848
  124OSM    H4F13210   5.122   1.199   7.183 -1.7567 -0.2987 -0.8615
  124OSM    H4G13211   5.198   1.350   7.121  2.5256 -0.1204  0.9529
  124OSM    C5F13212   5.322   1.171   7.118 -0.4868  0.0025 -1.0368
  124OSM    H5F13213   5.413   1.232   7.101 -0.6928  0.6606  0.0829
  124OSM    H5G13214   5.332   1.095   7.038 -0.2186 -1.5164  0.3705
  124OSM    C6F13215   5.342   1.122   7.266 -0.2417 -0.1207  0.6706
  124OSM    H6F13216   5.441   1.070   7.266  0.7117  1.6221  0.9861
  124OSM    H6G13217   5.272   1.042   7.295 -0.8147 -0.4253 -1.3721
  124OSM    C7F13218   5.334   1.240   7.369  0.7410  0.5394  0.0388
  124OSM    H7F13219   5.241   1.297   7.347 -1.5581 -2.5499  0.9310
  124OSM    H7G13220   5.413   1.315   7.348 -0.4818  1.5423 -1.1699
  124OSM    C8F13221   5.314   1.191   7.515 -0.0333  0.5639 -0.1638
  124OSM    H8F13222   5.232   1.116   7.518 -0.3425  0.8851  3.4282
  124OSM    H8G13223   5.275   1.279   7.570 -0.5506 -0.0349  0.4494
  124OSM    C9F13224   5.439   1.137   7.586 -0.4207  0.2564  0.2035
  124OSM    H9F13225   5.485   1.053   7.531  0.0751  1.7250 -1.7396
  124OSM   C10F13226   5.496   1.178   7.698 -0.7074  0.0033 -0.2098
  124OSM   H10F13227   5.591   1.130   7.726  0.4547  0.3889 -3.1172
  124OSM   C11F13228   5.449   1.284   7.794  0.1155  0.3773 -0.1756
  124OSM   H11F13229   5.352   1.331   7.767  0.2727  0.7526 -0.0917
  124OSM   H11G13230   5.520   1.370   7.792 -1.3563  1.6258 -0.6006
  124OSM   C12F13231   5.448   1.241   7.941 -0.6644 -0.0173  0.2290
  124OSM   H12F13232   5.546   1.191   7.957  0.8222  2.1727 -1.5219
  124OSM   H12G13233   5.372   1.167   7.973  1.5485 -0.7874  4.4596
  124OSM   C13F13234   5.438   1.364   8.040 -0.0191 -0.1193  0.2218
  124OSM   H13F13235   5.331   1.392   8.057  0.8279  2.4761  1.7667
  124OSM   H13G13236   5.483   1.454   7.993  0.8680 -1.6607 -2.0702
  124OSM   C14F13237   5.506   1.338   8.174  0.0791 -0.3226  0.4011
  124OSM   H14F13238   5.468   1.235   8.190  0.1909 -0.4422 -0.0713
  124OSM   H14G13239   5.466   1.415   8.243  0.9470  0.8147 -0.3250
  124OSM   C15F13240   5.660   1.338   8.171 -0.1838  0.1901 -0.2725
  124OSM   H15F13241   5.685   1.422   8.103  0.1146 -0.2908 -0.7653
  124OSM   H15G13242   5.689   1.245   8.119  1.0478  0.4505 -0.0841
  124OSM   C16F13243   5.716   1.323   8.316 -0.4814  0.1619 -0.0566
  124OSM   H16F13244   5.651   1.251   8.371 -0.8865  2.4616  2.7007
  124OSM   H16G13245   5.704   1.417   8.374 -1.4690  0.6330 -0.9867
  124OSM   C17F13246   5.860   1.265   8.328  0.0552  0.6662  0.4841
  124OSM   H17F13247   5.933   1.343   8.297  0.8642  0.0724  0.8568
  124OSM   H17G13248   5.880   1.177   8.264  1.1318  1.2699 -0.0354
  124OSM   C18F13249   5.887   1.236   8.476  0.2879  0.2063  0.1804
  124OSM   H18F13250   5.876   1.338   8.517  0.3661  0.1557  0.3263
  124OSM   H18G13251   5.994   1.204   8.480  0.6237  1.1597 -0.5865
  124OSM   H18H13252   5.814   1.174   8.531  1.6179 -2.5743 -0.9616
  125OSM      N13253   1.893   6.224   5.957  0.0731 -0.1401 -0.5588
  125OSM    C1513254   1.783   6.304   6.013 -0.1413  0.4938 -0.3284
  125OSM   H15A13255   1.788   6.325   6.119  0.6223  0.1373 -0.2863
  125OSM   H15B13256   1.687   6.266   5.983 -0.4208  2.1247 -1.6420
  125OSM   H15C13257   1.772   6.406   5.980 -2.0287 -0.0386 -1.5055
  125OSM    C1413258   1.861   6.196   5.814 -0.4829  0.1343 -0.2718
  125OSM   H14A13259   1.835   6.286   5.760 -0.0227  0.5899  0.2480
  125OSM   H14B13260   1.770   6.140   5.803 -1.7803  1.9187  0.7381
  125OSM   H14C13261   1.948   6.143   5.778 -1.2301 -1.3202  0.0001
  125OSM    C1313262   2.019   6.309   5.952  0.4230 -0.0443  0.2360
  125OSM   H13A13263   2.032   6.354   6.049 -1.8129 -0.3430  0.7220
  125OSM   H13B13264   2.000   6.389   5.881  0.1200  1.1849  1.6511
  125OSM   H13C13265   2.102   6.251   5.913 -1.9176 -0.6925 -4.5584
  125OSM    C1213266   1.904   6.103   6.035 -0.1572 -0.2982  0.2927
  125OSM   H12A13267   1.956   6.027   5.979  0.1725 -1.1546  1.7051
  125OSM   H12B13268   1.812   6.051   6.057  1.1284 -2.9094 -0.0989
  125OSM    C1113269   1.980   6.117   6.168  0.0087  0.3135 -0.1901
  125OSM   H11A13270   1.939   6.045   6.242 -0.7782  0.5591 -0.3814
  125OSM   H11B13271   1.951   6.211   6.219  1.0350 -1.7036  4.6859
  125OSM      P13272   2.174   5.941   6.142  0.4725 -0.2816  0.2940
  125OSM    O1313273   2.106   5.882   6.020 -0.8273 -0.5731  0.9626
  125OSM    O1413274   2.319   5.917   6.142 -0.2273 -0.5615 -0.2024
  125OSM    O1113275   2.105   5.876   6.267 -0.1189 -0.6350 -0.1556
  125OSM    O1213276   2.129   6.094   6.167  0.1673  0.7301  0.3118
  125OSM    C1S13277   2.129   5.915   6.404  0.0567 -0.4012 -0.0966
  125OSM    H1S13278   2.203   5.997   6.401  2.4439 -2.4650 -2.1955
  125OSM    H1T13279   2.177   5.834   6.462  0.3590 -0.2928 -0.1975
  125OSM     NF13280   2.039   5.984   6.626 -0.7139  0.1497  0.2937
  125OSM    HNF13281   2.013   5.904   6.679 -2.0606 -0.9284 -1.8545
  125OSM    C2S13282   1.995   5.951   6.492  0.1342  0.5785  0.5179
  125OSM    H2S13283   1.946   6.037   6.442  1.1312  0.4803 -0.6717
  125OSM    C3S13284   1.889   5.839   6.481 -0.1482  0.5831 -0.5753
  125OSM    H3S13285   1.935   5.751   6.530  0.5887  2.0734  1.5070
  125OSM     O313286   1.864   5.802   6.346 -0.3129  0.0824  0.4695
  125OSM    HO313287   1.949   5.817   6.305  0.1015  0.3865  1.3945
  125OSM    C4S13288   1.759   5.877   6.555  0.3371  0.3084 -0.0513
  125OSM    H4S13289   1.741   5.818   6.646  0.2700 -1.0673 -0.9250
  125OSM    C5S13290   1.659   5.953   6.512 -0.0026  0.0324 -0.2591
  125OSM    H5S13291   1.653   5.994   6.411 -0.5978  0.2078 -0.1539
  125OSM    C6S13292   1.522   5.959   6.574  0.0493  0.5122  0.1424
  125OSM    H6S13293   1.445   5.941   6.496 -0.3780 -1.2053  0.9191
  125OSM    H6T13294   1.498   6.063   6.605  0.9890  0.7443  0.0987
  125OSM    C7S13295   1.487   5.857   6.686 -0.0223  0.2298 -0.0607
  125OSM    H7S13296   1.512   5.755   6.649  0.3822  0.8621 -1.6555
  125OSM    H7T13297   1.376   5.846   6.684  0.1112 -1.1319 -0.5865
  125OSM    C8S13298   1.543   5.877   6.825  0.4988 -0.1479 -0.5390
  125OSM    H8S13299   1.529   5.980   6.866  0.7290 -0.7707  1.1726
  125OSM    H8T13300   1.651   5.851   6.819  0.3667 -0.3741 -2.7425
  125OSM    C9S13301   1.480   5.782   6.930 -0.6053  0.1404  0.4171
  125OSM    H9S13302   1.499   5.676   6.899  1.6974  1.1345 -2.0001
  125OSM    H9T13303   1.371   5.801   6.921 -0.5038 -0.0887 -1.7221
  125OSM   C10S13304   1.538   5.799   7.071  0.8206 -0.7750 -0.4707
  125OSM   H10S13305   1.552   5.907   7.094 -1.0221  0.1243 -3.1128
  125OSM   H10T13306   1.641   5.759   7.072  1.8649  1.4612  3.0139
  125OSM   C11S13307   1.446   5.725   7.164  0.3817 -0.2121 -0.3773
  125OSM   H11S13308   1.426   5.621   7.130  1.9057 -1.4624  2.2771
  125OSM   H11T13309   1.358   5.792   7.160  0.1832 -0.5073 -1.1928
  125OSM   C12S13310   1.492   5.726   7.309  0.6616 -0.0967  0.2642
  125OSM   H12S13311   1.512   5.832   7.337 -1.0576 -0.3071  2.6212
  125OSM   H12T13312   1.586   5.667   7.303  0.1747 -0.7608 -1.5102
  125OSM   C13S13313   1.394   5.673   7.409  0.4950  0.0746 -0.7037
  125OSM   H13S13314   1.329   5.592   7.370 -0.4121 -1.2927  3.1390
  125OSM   H13T13315   1.317   5.750   7.431  1.7569  1.2237 -0.1818
  125OSM   C14S13316   1.456   5.609   7.534 -0.1826  0.2610 -0.6811
  125OSM   H14S13317   1.560   5.647   7.539  0.0216 -0.4086  0.4905
  125OSM   H14T13318   1.460   5.499   7.522  2.2118  0.1057  0.8553
  125OSM   C15S13319   1.374   5.642   7.665  0.5510 -0.1391  0.1229
  125OSM   H15S13320   1.269   5.609   7.653  0.8067 -0.6805 -0.6842
  125OSM   H15T13321   1.363   5.753   7.669  0.8867  0.0540 -2.6456
  125OSM   C16S13322   1.439   5.597   7.795  0.3777  0.0897 -0.7926
  125OSM   H16S13323   1.500   5.681   7.834  1.2837  0.0717 -2.1214
  125OSM   H16T13324   1.498   5.507   7.771  0.2394  0.0959 -1.1593
  125OSM   C17S13325   1.338   5.557   7.911  0.4510 -0.2426 -0.0787
  125OSM   H17S13326   1.405   5.520   7.992  0.0608  2.1002  1.4049
  125OSM   H17T13327   1.275   5.475   7.870 -0.5776  1.2858 -1.6724
  125OSM   C18S13328   1.250   5.670   7.956  0.4132 -0.5931  0.0657
  125OSM   H18S13329   1.311   5.740   8.017 -1.3991 -0.0535  1.3440
  125OSM   H18T13330   1.167   5.648   8.026  1.0451  1.6825  1.6207
  125OSM   H18U13331   1.201   5.723   7.871  0.4217 -0.3050  0.2409
  125OSM    C1F13332   2.122   6.083   6.655 -0.1580  0.2705  0.5783
  125OSM     OF13333   2.147   6.166   6.571  0.2478  0.1792  0.1097
  125OSM    C2F13334   2.183   6.079   6.793  0.7891 -0.1243  0.2508
  125OSM    H2F13335   2.248   5.989   6.802  0.3377 -0.6457 -1.3584
  125OSM    H2G13336   2.111   6.085   6.877  0.7825 -0.1041  0.2437
  125OSM    C3F13337   2.263   6.214   6.822 -0.0657 -0.3592 -0.4473
  125OSM    H3F13338   2.190   6.299   6.824 -1.3413 -1.3735  2.5742
  125OSM    H3G13339   2.332   6.231   6.737 -0.0199  0.3956 -0.2669
  125OSM    C4F13340   2.352   6.217   6.953 -1.1404 -1.1553 -0.5425
  125OSM    H4F13341   2.374   6.324   6.976  0.0709 -1.3890 -0.5868
  125OSM    H4G13342   2.453   6.174   6.942 -0.9139 -0.3417 -1.9352
  125OSM    C5F13343   2.283   6.155   7.080  0.3496  0.5286  0.1033
  125OSM    H5F13344   2.284   6.044   7.077  0.3567  0.3705  2.8755
  125OSM    H5G13345   2.178   6.191   7.073 -0.1549 -0.6003  1.3005
  125OSM    C6F13346   2.343   6.191   7.216  0.1253  0.4035  0.6858
  125OSM    H6F13347   2.373   6.297   7.208 -2.6295  1.2445  0.5190
  125OSM    H6G13348   2.434   6.129   7.235 -0.6128 -1.6108 -1.6946
  125OSM    C7F13349   2.240   6.192   7.330  0.8217 -0.2476 -0.6774
  125OSM    H7F13350   2.173   6.104   7.322 -1.4753  1.2403  0.9121
  125OSM    H7G13351   2.181   6.285   7.316 -1.1897 -1.4192 -0.3507
  125OSM    C8F13352   2.307   6.178   7.469  0.1578 -0.5394  1.1099
  125OSM    H8F13353   2.374   6.265   7.487  0.4898 -0.2146 -1.3609
  125OSM    H8G13354   2.371   6.087   7.459  0.1816 -0.3472 -1.0467
  125OSM    C9F13355   2.206   6.155   7.579 -0.8955 -0.0541  0.5629
  125OSM    H9F13356   2.113   6.204   7.546  0.0056  2.1662  1.1774
  125OSM   C10F13357   2.216   6.113   7.708 -0.4885 -0.1911  0.5073
  125OSM   H10F13358   2.123   6.110   7.767 -0.1693  0.0682  1.0306
  125OSM   C11F13359   2.340   6.059   7.775  0.2348  0.0538  0.8854
  125OSM   H11F13360   2.424   6.074   7.704 -2.0711  0.4165 -1.9717
  125OSM   H11G13361   2.333   5.948   7.772  2.5935 -0.1202  0.5504
  125OSM   C12F13362   2.359   6.105   7.917 -0.4945  0.2576 -0.2913
  125OSM   H12F13363   2.348   6.214   7.931 -0.9029  0.2471 -0.5042
  125OSM   H12G13364   2.468   6.088   7.935  0.1188  2.2185 -1.7503
  125OSM   C13F13365   2.299   6.019   8.029 -0.0144 -0.1820  0.6221
  125OSM   H13F13366   2.324   5.913   8.007  0.3517 -0.0171  0.2399
  125OSM   H13G13367   2.189   6.019   8.011  0.1782 -1.6438 -0.7470
  125OSM   C14F13368   2.322   6.072   8.168  0.2256 -0.2264 -0.3604
  125OSM   H14F13369   2.278   6.174   8.169 -0.6972 -0.6244 -0.2230
  125OSM   H14G13370   2.432   6.074   8.183  0.4930 -0.1948 -2.0976
  125OSM   C15F13371   2.265   5.988   8.282  0.5660 -0.4722  0.1550
  125OSM   H15F13372   2.287   5.881   8.262 -0.7635 -0.8605  0.6573
  125OSM   H15G13373   2.154   5.990   8.277  0.4715 -1.6063  1.2522
  125OSM   C16F13374   2.312   6.039   8.417 -0.0915  0.5942 -0.2747
  125OSM   H16F13375   2.423   6.037   8.411 -0.1162  1.8925 -1.4672
  125OSM   H16G13376   2.266   5.964   8.485  0.6323 -1.3855 -1.8711
  125OSM   C17F13377   2.263   6.181   8.452 -0.2176  0.5054  0.3884
  125OSM   H17F13378   2.154   6.181   8.431 -0.5880 -2.4591  1.8340
  125OSM   H17G13379   2.310   6.256   8.384  0.3274 -0.5923 -0.4908
  125OSM   C18F13380   2.285   6.219   8.600 -0.0160 -0.7320  0.5291
  125OSM   H18F13381   2.239   6.155   8.678  2.1490 -2.3204  0.5756
  125OSM   H18G13382   2.247   6.322   8.617 -0.5714 -0.5873 -1.3576
  125OSM   H18H13383   2.393   6.227   8.624 -0.2944 -0.5690  1.7892
  126OSM      N13384   6.789   4.598   6.486  0.1407  0.1285  0.2000
  126OSM    C1513385   6.921   4.655   6.493 -0.1754  0.0527  0.1288
  126OSM   H15A13386   6.984   4.620   6.412 -1.4291 -2.3184  0.1130
  126OSM   H15B13387   6.968   4.629   6.587  1.7022  0.1460 -0.7225
  126OSM   H15C13388   6.915   4.763   6.483  2.9412  0.3224  0.0218
  126OSM    C1413389   6.704   4.649   6.600  0.2125  0.2688  0.3951
  126OSM   H14A13390   6.682   4.755   6.596 -0.8116  0.0804  0.8766
  126OSM   H14B13391   6.761   4.630   6.690 -0.2603  1.1691  0.9076
  126OSM   H14C13392   6.615   4.589   6.602  0.4511 -0.1021  0.0199
  126OSM    C1313393   6.726   4.653   6.358 -0.6464 -0.3376  0.4963
  126OSM   H13A13394   6.708   4.758   6.343  0.1974 -0.1912  0.4740
  126OSM   H13B13395   6.630   4.603   6.354 -0.6242 -0.3011 -1.0758
  126OSM   H13C13396   6.789   4.634   6.273 -2.2526 -1.5640 -0.4738
  126OSM    C1213397   6.791   4.447   6.485 -0.1641 -0.3660 -0.8527
  126OSM   H12A13398   6.856   4.411   6.564  1.3854  1.1085 -1.3943
  126OSM   H12B13399   6.842   4.422   6.392  0.7301  0.2936 -0.5519
  126OSM    C1113400   6.660   4.368   6.504 -0.1404 -0.5476  0.1030
  126OSM   H11A13401   6.614   4.383   6.604 -0.5100 -1.3999  0.0670
  126OSM   H11B13402   6.673   4.258   6.494  2.6842 -0.2832  0.1390
  126OSM      P13403   6.422   4.454   6.403 -0.0767 -0.1708  0.4947
  126OSM    O1313404   6.410   4.553   6.293 -0.3396 -0.3453  0.3659
  126OSM    O1413405   6.327   4.345   6.399 -0.0320  0.3112  0.1241
  126OSM    O1113406   6.418   4.523   6.546  0.0580  0.1130  0.7080
  126OSM    O1213407   6.566   4.393   6.400  0.5862 -0.5621 -0.8667
  126OSM    C1S13408   6.327   4.486   6.647  0.2319 -0.5923  0.3976
  126OSM    H1S13409   6.320   4.376   6.659 -0.3722 -0.5998  0.0233
  126OSM    H1T13410   6.223   4.518   6.626  0.7844  1.6269  0.7082
  126OSM     NF13411   6.299   4.468   6.893 -0.1566 -0.4370  0.4205
  126OSM    HNF13412   6.224   4.511   6.943 -0.8439 -0.0006 -0.9483
  126OSM    C2S13413   6.368   4.544   6.785  0.9455  0.7513  0.4260
  126OSM    H2S13414   6.477   4.530   6.800  1.1798  1.1020 -0.8398
  126OSM    C3S13415   6.333   4.700   6.780 -0.7179 -0.7356 -0.1581
  126OSM    H3S13416   6.223   4.704   6.761 -1.0709 -1.0692  1.6488
  126OSM     O313417   6.387   4.777   6.676  0.2599  0.5432  0.3462
  126OSM    HO313418   6.414   4.712   6.610 -0.2445  1.3928 -0.7379
  126OSM    C4S13419   6.361   4.759   6.916 -0.8464  1.0429 -0.7070
  126OSM    H4S13420   6.278   4.730   6.983 -0.0659  0.6059  0.0861
  126OSM    C5S13421   6.465   4.830   6.964 -0.9165 -0.0117 -0.2210
  126OSM    H5S13422   6.550   4.842   6.895 -0.5270 -0.4688  0.1755
  126OSM    C6S13423   6.485   4.865   7.102  0.2141 -0.5176  0.1568
  126OSM    H6S13424   6.481   4.975   7.117  0.6545 -0.6466  1.2822
  126OSM    H6T13425   6.577   4.824   7.148 -0.7619 -0.1600  2.6065
  126OSM    C7S13426   6.380   4.813   7.208  0.5937  0.6577  0.2756
  126OSM    H7S13427   6.375   4.702   7.201  2.3729  0.4685  1.4114
  126OSM    H7T13428   6.283   4.864   7.189 -0.7096 -1.7738 -0.0588
  126OSM    C8S13429   6.433   4.843   7.351 -0.2980  0.5046  0.4688
  126OSM    H8S13430   6.420   4.951   7.374 -0.1075  0.3190  1.4859
  126OSM    H8T13431   6.538   4.814   7.371 -0.6975 -1.9569 -0.5768
  126OSM    C9S13432   6.356   4.759   7.459 -0.6582 -0.9427  0.4244
  126OSM    H9S13433   6.373   4.651   7.437  1.1683 -0.1838 -2.2906
  126OSM    H9T13434   6.249   4.786   7.448 -0.6650 -0.9576  0.4509
  126OSM   C10S13435   6.392   4.778   7.603 -0.0110  0.3644 -0.2114
  126OSM   H10S13436   6.382   4.883   7.635  0.8761 -0.1900  2.0973
  126OSM   H10T13437   6.494   4.737   7.620 -0.1000  1.1871  2.8229
  126OSM   C11S13438   6.305   4.693   7.697  0.7591 -0.1719  0.1317
  126OSM   H11S13439   6.334   4.590   7.668 -0.5309 -0.4296 -0.3483
  126OSM   H11T13440   6.196   4.699   7.674  0.6090 -1.7325  0.3214
  126OSM   C12S13441   6.332   4.724   7.848 -0.2998 -0.3400  0.2602
  126OSM   H12S13442   6.302   4.830   7.861 -1.7628 -0.7276  0.2314
  126OSM   H12T13443   6.441   4.709   7.864 -0.4780 -0.9022  1.0391
  126OSM   C13S13444   6.262   4.623   7.941  0.3786 -0.8389  0.0025
  126OSM   H13S13445   6.293   4.523   7.906 -1.8113 -1.0148 -1.6499
  126OSM   H13T13446   6.154   4.629   7.914  0.6772  1.2373 -0.9831
  126OSM   C14S13447   6.280   4.648   8.089 -0.1558  0.2265 -0.7258
  126OSM   H14S13448   6.383   4.634   8.130 -0.1431 -0.4134 -0.9572
  126OSM   H14T13449   6.229   4.563   8.139  1.2021  1.5211  3.1672
  126OSM   C15S13450   6.226   4.785   8.135  0.2756  0.9252  0.1138
  126OSM   H15S13451   6.121   4.791   8.100  0.8552 -0.2566 -1.9682
  126OSM   H15T13452   6.287   4.859   8.080 -0.2298  0.5737 -0.9332
  126OSM   C16S13453   6.239   4.799   8.282 -0.3543  0.0904 -0.4959
  126OSM   H16S13454   6.345   4.810   8.313 -0.6158  1.7337 -0.0624
  126OSM   H16T13455   6.190   4.714   8.333 -1.2150  1.6642  1.4555
  126OSM   C17S13456   6.163   4.923   8.350 -0.5202 -0.1064  0.0950
  126OSM   H17S13457   6.057   4.917   8.316 -1.1422 -1.4459  2.0921
  126OSM   H17T13458   6.207   5.021   8.321 -0.3540  0.6409  2.6886
  126OSM   C18S13459   6.164   4.916   8.501 -0.1116 -0.4124 -0.4796
  126OSM   H18S13460   6.158   4.813   8.542 -0.4110  0.5070  1.9461
  126OSM   H18T13461   6.091   4.980   8.554  0.8737  1.6567 -1.4994
  126OSM   H18U13462   6.263   4.964   8.521 -0.1053  0.0307 -1.5173
  126OSM    C1F13463   6.333   4.340   6.913  0.2711  1.4096  0.3280
  126OSM     OF13464   6.429   4.296   6.845 -0.3555 -0.1960  0.2767
  126OSM    C2F13465   6.249   4.248   7.003 -0.8848  0.1605 -0.1035
  126OSM    H2F13466   6.192   4.173   6.942 -0.6268 -1.0904  1.1434
  126OSM    H2G13467   6.166   4.301   7.054 -0.8600 -1.0133  1.2187
  126OSM    C3F13468   6.329   4.171   7.106  0.5567 -1.1769 -0.0467
  126OSM    H3F13469   6.428   4.138   7.069  0.8666 -0.7723  0.4179
  126OSM    H3G13470   6.281   4.078   7.142  0.2589 -1.0652 -0.1470
  126OSM    C4F13471   6.356   4.255   7.231 -0.4632 -0.5453  0.6523
  126OSM    H4F13472   6.277   4.333   7.237  0.2419  0.2206  0.2252
  126OSM    H4G13473   6.455   4.306   7.222 -1.3455  1.8235  2.9163
  126OSM    C5F13474   6.348   4.168   7.357 -0.3505  0.1002 -0.1505
  126OSM    H5F13475   6.441   4.107   7.358  1.3943  2.6145  1.4182
  126OSM    H5G13476   6.257   4.105   7.359 -1.3322  1.4795 -0.3289
  126OSM    C6F13477   6.362   4.264   7.479 -0.6257  0.0471 -0.6392
  126OSM    H6F13478   6.282   4.342   7.475 -2.2646 -1.4209  1.6017
  126OSM    H6G13479   6.458   4.318   7.470  1.4903 -3.5253 -1.4054
  126OSM    C7F13480   6.350   4.187   7.611 -0.4346  0.1248 -0.3751
  126OSM    H7F13481   6.441   4.131   7.641 -0.8674 -0.2393  0.2934
  126OSM    H7G13482   6.274   4.111   7.583 -0.8311  0.8555 -1.3344
  126OSM    C8F13483   6.304   4.267   7.732  0.4647  0.4149  0.4944
  126OSM    H8F13484   6.213   4.322   7.699  0.4356 -0.4033 -0.8721
  126OSM    H8G13485   6.390   4.331   7.759 -0.1948  2.0406 -1.0224
  126OSM    C9F13486   6.261   4.173   7.848 -0.0692 -0.0946 -0.2138
  126OSM    H9F13487   6.339   4.109   7.891  0.9442  0.3426 -1.3387
  126OSM   C10F13488   6.148   4.159   7.916  0.2143  0.0251  0.4130
  126OSM   H10F13489   6.134   4.074   7.984 -1.3613 -2.6372 -2.9134
  126OSM   C11F13490   6.018   4.239   7.901 -0.1733  0.8320  0.0714
  126OSM   H11F13491   6.022   4.330   7.838  2.7733  1.0665  0.4285
  126OSM   H11G13492   6.010   4.267   8.009 -1.9267  0.3838  0.0825
  126OSM   C12F13493   5.899   4.158   7.857  1.4233 -0.0410 -0.2887
  126OSM   H12F13494   5.883   4.080   7.935 -1.5068  0.7367  0.0065
  126OSM   H12G13495   5.910   4.111   7.757 -0.5332  0.2440 -0.6794
  126OSM   C13F13496   5.778   4.255   7.850  1.2504 -0.6157  0.1290
  126OSM   H13F13497   5.688   4.198   7.817 -0.5485  0.8621  2.1335
  126OSM   H13G13498   5.788   4.334   7.773 -1.5060 -0.2852 -0.0008
  126OSM   C14F13499   5.742   4.326   7.986  0.5134 -0.1763 -0.8845
  126OSM   H14F13500   5.826   4.395   8.010  0.6111 -1.0013  1.4518
  126OSM   H14G13501   5.737   4.249   8.067  2.6495  1.8206  1.2985
  126OSM   C15F13502   5.601   4.393   7.972 -0.4992 -0.1861  0.5423
  126OSM   H15F13503   5.532   4.306   7.983 -0.1235 -0.3614  1.5877
  126OSM   H15G13504   5.590   4.446   7.874  1.3975 -0.7493 -0.0190
  126OSM   C16F13505   5.545   4.482   8.089 -0.4078 -0.0268  0.2462
  126OSM   H16F13506   5.569   4.587   8.062 -1.8909 -0.1171 -1.6476
  126OSM   H16G13507   5.599   4.453   8.182  0.0724 -0.4827 -0.1659
  126OSM   C17F13508   5.398   4.475   8.114  0.5639  1.1049  0.7137
  126OSM   H17F13509   5.375   4.378   8.164  1.1292  0.6224  0.0544
  126OSM   H17G13510   5.339   4.485   8.021 -0.6170  1.8573  1.5190
  126OSM   C18F13511   5.348   4.585   8.203  0.2572  0.1294  0.5225
  126OSM   H18F13512   5.409   4.585   8.296 -2.4209  1.6330  2.4003
  126OSM   H18G13513   5.247   4.558   8.240 -0.8048  0.9829 -1.5732
  126OSM   H18H13514   5.352   4.685   8.155  0.9144  0.9671  2.2660
  127OSM      N13515   5.479   3.900   6.361 -0.2792  0.1460 -0.3084
  127OSM    C1513516   5.417   3.761   6.376  1.5370 -1.1595 -0.2359
  127OSM   H15A13517   5.418   3.721   6.477 -1.0216  0.5554  0.5688
  127OSM   H15B13518   5.469   3.700   6.304  1.4075  0.0282 -1.3724
  127OSM   H15C13519   5.314   3.759   6.345  0.8390  0.0093  1.7783
  127OSM    C1413520   5.622   3.885   6.396 -0.4990 -0.3346 -0.0075
  127OSM   H14A13521   5.672   3.814   6.333  1.2982  0.6471  0.2275
  127OSM   H14B13522   5.631   3.863   6.501 -2.4195 -0.6438  0.1283
  127OSM   H14C13523   5.676   3.978   6.381 -1.1495  0.5457  2.5875
  127OSM    C1313524   5.453   3.948   6.224 -0.0931  0.1889  0.0362
  127OSM   H13A13525   5.460   3.866   6.154  0.8174 -1.0389  1.4991
  127OSM   H13B13526   5.504   4.034   6.183 -2.9269  3.2742  2.4095
  127OSM   H13C13527   5.349   3.978   6.219  0.2330  1.1807 -1.9556
  127OSM    C1213528   5.412   3.994   6.453  0.1927 -0.3661 -0.2303
  127OSM   H12A13529   5.419   3.952   6.552 -0.2094  1.9170  0.8239
  127OSM   H12B13530   5.306   3.999   6.434  0.1220 -1.1975 -0.0739
  127OSM    C1113531   5.461   4.142   6.465 -0.5122  0.3828 -0.1350
  127OSM   H11A13532   5.568   4.151   6.493 -0.7956  1.4973  0.6280
  127OSM   H11B13533   5.411   4.175   6.558 -0.0547  2.6138 -0.6410
  127OSM      P13534   5.261   4.275   6.345 -0.1848 -0.0181  0.4640
  127OSM    O1313535   5.241   4.417   6.304 -0.3357 -0.2071  0.1148
  127OSM    O1413536   5.194   4.174   6.261  0.3364 -0.1885  0.0124
  127OSM    O1113537   5.203   4.253   6.492  0.2976  0.3021 -0.4060
  127OSM    O1213538   5.413   4.228   6.355 -0.7308  0.2986  0.1228
  127OSM    C1S13539   5.065   4.293   6.516 -0.3287  0.4015 -0.1193
  127OSM    H1S13540   4.991   4.231   6.461 -1.0482  0.5842  0.6247
  127OSM    H1T13541   5.050   4.401   6.494  0.7059  0.4784 -0.5187
  127OSM     NF13542   4.888   4.265   6.697  0.0701 -0.1766 -0.1469
  127OSM    HNF13543   4.858   4.341   6.754  2.4567 -0.1131  1.1862
  127OSM    C2S13544   5.026   4.273   6.667 -0.4558  0.0529  0.7506
  127OSM    H2S13545   5.078   4.177   6.689 -0.8255 -0.4052 -0.3041
  127OSM    C3S13546   5.092   4.385   6.749 -1.2666 -0.2490  0.0350
  127OSM    H3S13547   5.042   4.481   6.726  1.3879  0.9269 -1.3992
  127OSM     O313548   5.229   4.404   6.714 -0.2889  0.3016 -0.2621
  127OSM    HO313549   5.236   4.366   6.626 -1.9042  2.4024 -1.3807
  127OSM    C4S13550   5.083   4.348   6.899  0.3258 -0.7888 -0.0462
  127OSM    H4S13551   5.133   4.251   6.909  1.0821 -0.3821  0.2538
  127OSM    C5S13552   5.022   4.411   7.001 -0.7571 -1.0118  0.1498
  127OSM    H5S13553   4.968   4.505   6.983 -0.5323 -1.1166 -1.2046
  127OSM    C6S13554   5.008   4.367   7.144 -0.3947 -0.5198 -0.0531
  127OSM    H6S13555   5.039   4.453   7.207 -0.5300  0.0621 -0.7622
  127OSM    H6T13556   5.074   4.279   7.156 -1.5264 -1.7058 -2.0316
  127OSM    C7S13557   4.868   4.342   7.202 -0.3838  0.9501 -0.1179
  127OSM    H7S13558   4.833   4.251   7.149 -2.6272  1.7866 -0.2241
  127OSM    H7T13559   4.811   4.430   7.163  0.9963  1.8101 -0.2657
  127OSM    C8S13560   4.871   4.326   7.349 -0.5255  0.1934  0.0435
  127OSM    H8S13561   4.914   4.423   7.383 -1.2539  0.2082  0.9430
  127OSM    H8T13562   4.943   4.246   7.378  0.9847  1.6214  0.3835
  127OSM    C9S13563   4.733   4.289   7.420 -0.6990 -0.5542  0.0539
  127OSM    H9S13564   4.718   4.181   7.396 -1.0048 -0.5648  0.2865
  127OSM    H9T13565   4.646   4.346   7.381 -0.5432 -0.2750  0.1167
  127OSM   C10S13566   4.746   4.311   7.571 -0.0471 -0.1823 -0.3419
  127OSM   H10S13567   4.805   4.403   7.588  0.2148 -0.4339  0.1218
  127OSM   H10T13568   4.809   4.226   7.603  1.1368  0.2383 -1.4703
  127OSM   C11S13569   4.609   4.335   7.637 -0.2405 -0.4136  0.5341
  127OSM   H11S13570   4.546   4.255   7.592  2.4945 -2.6312  0.3305
  127OSM   H11T13571   4.578   4.438   7.608 -0.1587 -0.8711 -1.3116
  127OSM   C12S13572   4.618   4.327   7.789  0.2820  0.6368 -0.1596
  127OSM   H12S13573   4.693   4.397   7.833 -0.4125 -0.6251  3.3807
  127OSM   H12T13574   4.656   4.226   7.817  1.3130  0.0802 -3.1899
  127OSM   C13S13575   4.488   4.363   7.857  0.4172  0.1749 -0.0193
  127OSM   H13S13576   4.423   4.284   7.813  3.7649 -2.7661 -0.1158
  127OSM   H13T13577   4.460   4.467   7.827 -2.9650 -1.0327 -1.6186
  127OSM   C14S13578   4.489   4.356   8.004 -0.5884  0.3261 -0.0121
  127OSM   H14S13579   4.549   4.441   8.044  1.7256 -0.6938 -1.1432
  127OSM   H14T13580   4.540   4.268   8.047 -0.5898 -0.0618 -0.7958
  127OSM   C15S13581   4.355   4.363   8.064 -0.0793 -0.3658  0.5618
  127OSM   H15S13582   4.287   4.309   7.993  3.0683  0.0178 -3.0882
  127OSM   H15T13583   4.316   4.467   8.061 -0.9560 -0.6918  0.0613
  127OSM   C16S13584   4.341   4.312   8.206 -0.1356 -0.5880  0.5734
  127OSM   H16S13585   4.394   4.215   8.212  0.1212 -0.4357  0.8590
  127OSM   H16T13586   4.238   4.283   8.234 -0.5020 -0.5513 -0.6718
  127OSM   C17S13587   4.389   4.418   8.305 -0.2700 -0.0310 -0.0093
  127OSM   H17S13588   4.306   4.491   8.296 -1.8309 -1.7374 -0.2905
  127OSM   H17T13589   4.486   4.460   8.272 -1.8507  1.0088 -3.8948
  127OSM   C18S13590   4.404   4.361   8.440 -0.1810  0.8512  0.1988
  127OSM   H18S13591   4.380   4.436   8.518 -0.4755  0.9610  0.0029
  127OSM   H18T13592   4.506   4.318   8.455 -1.2083 -2.6561 -1.8142
  127OSM   H18U13593   4.336   4.275   8.460  1.1538 -0.3959 -0.4207
  127OSM    C1F13594   4.816   4.168   6.641 -0.1804 -0.0770 -0.3983
  127OSM     OF13595   4.863   4.066   6.593 -0.4323 -0.7428 -0.0200
  127OSM    C2F13596   4.666   4.190   6.648  0.7165  0.6104 -0.1323
  127OSM    H2F13597   4.625   4.174   6.547  0.7884  2.2470 -0.4464
  127OSM    H2G13598   4.640   4.296   6.672  0.5031  0.1681  1.7714
  127OSM    C3F13599   4.601   4.083   6.746  0.1023 -0.2006 -0.2898
  127OSM    H3F13600   4.633   3.978   6.731  1.6592  0.4361 -1.9776
  127OSM    H3G13601   4.493   4.085   6.723  0.1560 -2.5319 -0.9574
  127OSM    C4F13602   4.621   4.119   6.889 -0.5564  0.5820 -0.7722
  127OSM    H4F13603   4.621   4.228   6.912  1.5442  0.4468  0.1121
  127OSM    H4G13604   4.721   4.080   6.919 -1.5112 -2.4883 -1.3155
  127OSM    C5F13605   4.519   4.064   6.983 -0.5641 -0.1365  0.2336
  127OSM    H5F13606   4.539   3.955   6.981 -0.3123 -0.1210 -3.0839
  127OSM    H5G13607   4.421   4.065   6.930 -1.6616 -1.1525  2.1199
  127OSM    C6F13608   4.532   4.116   7.122 -0.1236  0.0561  0.3233
  127OSM    H6F13609   4.481   4.214   7.118  0.5969  0.4175 -0.2258
  127OSM    H6G13610   4.636   4.122   7.162 -0.7345 -1.3266  2.3103
  127OSM    C7F13611   4.455   4.016   7.215 -0.3742 -0.1420  0.6924
  127OSM    H7F13612   4.517   3.925   7.219  1.0408  0.8143  1.1393
  127OSM    H7G13613   4.362   3.994   7.157 -0.5734 -0.2353  1.0398
  127OSM    C8F13614   4.401   4.079   7.340 -0.6454 -0.3319  0.7583
  127OSM    H8F13615   4.354   4.176   7.313  0.2090  0.2038  1.1254
  127OSM    H8G13616   4.489   4.093   7.408  0.1652 -0.2140 -0.2917
  127OSM    C9F13617   4.291   4.004   7.410 -0.0347 -0.2204  0.0514
  127OSM    H9F13618   4.197   4.000   7.354 -0.1239  0.4724  0.1464
  127OSM   C10F13619   4.308   3.955   7.540  0.2490 -0.0366  0.7325
  127OSM   H10F13620   4.228   3.885   7.569 -1.5834  1.7180  0.1736
  127OSM   C11F13621   4.416   3.967   7.642 -0.1302 -0.7938  0.2083
  127OSM   H11F13622   4.488   4.043   7.607 -0.8444  0.0125  0.4566
  127OSM   H11G13623   4.472   3.874   7.667  0.5675 -1.1340 -2.3198
  127OSM   C12F13624   4.364   4.021   7.776 -0.7206  0.5957 -0.9111
  127OSM   H12F13625   4.296   4.106   7.752 -0.0095  1.1029 -1.1463
  127OSM   H12G13626   4.450   4.058   7.835 -0.9807 -3.9304  2.8382
  127OSM   C13F13627   4.280   3.914   7.857 -0.0372 -0.2328 -0.5273
  127OSM   H13F13628   4.252   3.824   7.797 -0.2619  1.0416 -2.4392
  127OSM   H13G13629   4.183   3.962   7.881 -0.3732 -0.0554 -2.1047
  127OSM   C14F13630   4.339   3.870   7.990  0.3731 -0.1899 -0.1219
  127OSM   H14F13631   4.358   3.970   8.034  0.0739  0.1099 -0.6699
  127OSM   H14G13632   4.433   3.814   7.974 -0.7014 -1.5061 -2.4212
  127OSM   C15F13633   4.240   3.792   8.072  0.0696  0.3484  0.6863
  127OSM   H15F13634   4.244   3.693   8.024  2.5078  0.5684  0.3054
  127OSM   H15G13635   4.139   3.838   8.075  1.0104  2.5301  1.0160
  127OSM   C16F13636   4.280   3.785   8.224  0.5503 -0.6151 -0.0041
  127OSM   H16F13637   4.332   3.875   8.265  0.6260 -0.9474  0.6423
  127OSM   H16G13638   4.356   3.705   8.234  1.1921 -0.1732 -1.1701
  127OSM   C17F13639   4.163   3.770   8.318 -0.1999  0.3208  0.3425
  127OSM   H17F13640   4.191   3.722   8.414  1.5731 -0.8196 -0.6759
  127OSM   H17G13641   4.099   3.702   8.258  2.5958 -2.8563  0.6621
  127OSM   C18F13642   4.083   3.888   8.364 -0.1956 -1.4292 -0.3036
  127OSM   H18F13643   4.137   3.943   8.444 -0.5952 -0.7728 -0.4734
  127OSM   H18G13644   3.985   3.849   8.398 -0.1782 -0.2214  1.2188
  127OSM   H18H13645   4.066   3.958   8.278 -0.5190  0.2525  1.0683
  128OSM      N13646   2.920   2.990   5.979 -0.4122  0.3927 -0.1514
  128OSM    C1513647   2.835   3.104   6.010  0.5150  1.1904  0.8054
  128OSM   H15A13648   2.731   3.083   6.029  0.6850 -3.0746 -1.7646
  128OSM   H15B13649   2.840   3.182   5.935  2.7992 -1.5071 -2.1328
  128OSM   H15C13650   2.870   3.136   6.107  0.7778 -1.2957  1.5892
  128OSM    C1413651   2.883   2.924   5.855  0.8256  0.1737  0.1354
  128OSM   H14A13652   2.884   2.996   5.775  2.5082 -1.0115 -0.9601
  128OSM   H14B13653   2.782   2.884   5.851  0.5174  1.0041 -0.9392
  128OSM   H14C13654   2.941   2.838   5.825 -1.7359 -1.1426 -1.4396
  128OSM    C1313655   3.056   3.053   5.944  0.2999 -0.1880 -0.4514
  128OSM   H13A13656   3.046   3.129   5.868  0.7286  1.4201  1.0371
  128OSM   H13B13657   3.131   2.980   5.915  0.5267 -0.1346  0.0014
  128OSM   H13C13658   3.105   3.097   6.029  1.7086 -2.9088  0.2752
  128OSM    C1213659   2.933   2.898   6.096 -0.0835  0.1549  0.6291
  128OSM   H12A13660   2.990   2.810   6.070 -0.1232  0.6658 -1.3517
  128OSM   H12B13661   2.834   2.865   6.123 -0.2216  0.4918  0.5328
  128OSM    C1113662   3.000   2.944   6.233 -0.6700  0.5859  0.3515
  128OSM   H11A13663   2.978   2.863   6.305 -1.1979 -0.4822 -0.9570
  128OSM   H11B13664   2.958   3.041   6.268  1.2480  1.1404  1.1932
  128OSM      P13665   3.247   2.843   6.205 -0.1171 -0.1320 -0.2607
  128OSM    O1313666   3.234   2.745   6.097  0.0102  0.1554  0.9488
  128OSM    O1413667   3.383   2.912   6.197 -0.0163 -0.3467 -0.6173
  128OSM    O1113668   3.221   2.778   6.346 -0.1463 -0.1915  0.1037
  128OSM    O1213669   3.142   2.965   6.203  0.4666  0.5983 -0.5133
  128OSM    C1S13670   3.154   2.663   6.374  0.1194 -0.0140 -0.4810
  128OSM    H1S13671   3.195   2.579   6.314 -0.3621  0.1556 -1.0628
  128OSM    H1T13672   3.048   2.663   6.338 -0.0947 -1.0554  0.1107
  128OSM     NF13673   3.120   2.500   6.559  0.2352  0.0484  0.5402
  128OSM    HNF13674   3.033   2.497   6.608 -0.6332  1.5439 -0.7974
  128OSM    C2S13675   3.156   2.637   6.528  0.3717 -0.0168 -0.5107
  128OSM    H2S13676   3.260   2.653   6.564 -0.0647 -0.3273  0.9580
  128OSM    C3S13677   3.060   2.733   6.588  0.1539  0.1546  0.7007
  128OSM    H3S13678   2.959   2.708   6.548  0.3477 -1.0385  0.9118
  128OSM     O313679   3.075   2.872   6.558  0.3212 -0.1853  0.0072
  128OSM    HO313680   3.144   2.880   6.492  0.7519 -1.3605  0.2954
  128OSM    C4S13681   3.053   2.708   6.743 -0.2497 -0.5161  0.1319
  128OSM    H4S13682   3.151   2.714   6.791  0.0589  0.0201 -0.5556
  128OSM    C5S13683   2.942   2.685   6.819  0.6806 -0.6411 -0.1437
  128OSM    H5S13684   2.842   2.714   6.784  1.2468  2.3457  0.3725
  128OSM    C6S13685   2.919   2.663   6.964  0.2717 -0.0736 -0.3764
  128OSM    H6S13686   2.883   2.560   6.984  0.8175  0.0001  1.0830
  128OSM    H6T13687   2.836   2.727   7.003 -0.2751  0.9778 -3.0158
  128OSM    C7S13688   3.052   2.688   7.041 -0.6794  0.5188  0.3173
  128OSM    H7S13689   3.085   2.789   7.010 -0.6217 -0.3116 -2.6339
  128OSM    H7T13690   3.123   2.606   7.015 -1.0113  0.6950 -1.2513
  128OSM    C8S13691   3.029   2.678   7.195  0.2327  0.2299  0.6068
  128OSM    H8S13692   2.961   2.592   7.212  0.7856 -0.5040 -0.7501
  128OSM    H8T13693   2.978   2.774   7.219  1.2938  0.3791  2.4739
  128OSM    C9S13694   3.168   2.662   7.272 -0.0952  0.0604 -0.5738
  128OSM    H9S13695   3.249   2.735   7.254  0.3255 -0.4638 -0.8674
  128OSM    H9T13696   3.211   2.563   7.245  2.4325  0.0861  2.7800
  128OSM   C10S13697   3.147   2.653   7.426  0.2778  0.1224 -0.1635
  128OSM   H10S13698   3.220   2.573   7.453  0.2257  0.0372 -0.2687
  128OSM   H10T13699   3.046   2.613   7.448  0.5267 -0.2561  0.3106
  128OSM   C11S13700   3.180   2.777   7.509 -0.2077  0.0983 -0.3047
  128OSM   H11S13701   3.116   2.866   7.489 -0.2312  0.8372  2.6055
  128OSM   H11T13702   3.282   2.811   7.481 -0.2556  1.0490  0.5914
  128OSM   C12S13703   3.173   2.757   7.664  0.1030 -0.5068  0.1353
  128OSM   H12S13704   3.238   2.832   7.711  0.3694  1.2773 -2.8249
  128OSM   H12T13705   3.211   2.655   7.686 -0.5724 -1.0493 -1.0721
  128OSM   C13S13706   3.031   2.771   7.719  0.1331 -0.0050 -0.5209
  128OSM   H13S13707   2.955   2.716   7.660 -0.0607  0.2119 -0.4741
  128OSM   H13T13708   2.995   2.876   7.722 -0.1911 -0.1084 -0.7422
  128OSM   C14S13709   3.018   2.722   7.869 -0.4951 -0.8012  0.5325
  128OSM   H14S13710   3.043   2.614   7.862  2.1744 -0.1443 -2.6614
  128OSM   H14T13711   2.914   2.749   7.897  0.0591  1.0329  1.0148
  128OSM   C15S13712   3.111   2.789   7.977 -0.1348 -0.1290  0.3811
  128OSM   H15S13713   3.092   2.897   7.960  1.7447  0.3702  1.2201
  128OSM   H15T13714   3.218   2.768   7.960 -0.4284  0.3687 -2.7636
  128OSM   C16S13715   3.069   2.755   8.120 -0.4905  0.4342  0.4472
  128OSM   H16S13716   3.146   2.795   8.190 -0.1115 -0.8532  0.7775
  128OSM   H16T13717   3.062   2.645   8.134 -0.2180  0.1357 -1.5090
  128OSM   C17S13718   2.934   2.815   8.162 -0.5143 -0.0692 -0.4538
  128OSM   H17S13719   2.850   2.753   8.125 -0.0120  0.3058 -2.3348
  128OSM   H17T13720   2.926   2.910   8.104  0.1934 -1.1984 -2.5226
  128OSM   C18S13721   2.905   2.831   8.310  0.7532  0.4141  0.0521
  128OSM   H18S13722   2.798   2.861   8.314  0.3046 -1.1303  2.6405
  128OSM   H18T13723   2.958   2.914   8.361 -2.2692  1.6321  1.4388
  128OSM   H18U13724   2.915   2.740   8.374 -2.3512  0.6625  1.0732
  128OSM    C1F13725   3.195   2.393   6.533 -0.5167  0.1804 -0.2288
  128OSM     OF13726   3.289   2.399   6.457 -0.2349 -0.1892  0.6142
  128OSM    C2F13727   3.149   2.268   6.595  0.5002  0.1287  0.5750
  128OSM    H2F13728   3.073   2.219   6.530  1.8146 -1.1369 -0.0798
  128OSM    H2G13729   3.107   2.286   6.696 -1.3285 -0.9566  0.0565
  128OSM    C3F13730   3.264   2.168   6.623 -0.1227  0.1008 -0.5233
  128OSM    H3F13731   3.307   2.134   6.527  0.4237  3.1832 -1.4844
  128OSM    H3G13732   3.212   2.086   6.677  1.2581 -0.1675  0.4495
  128OSM    C4F13733   3.368   2.221   6.726 -0.3796 -0.1762 -0.2090
  128OSM    H4F13734   3.406   2.316   6.683 -0.0382 -1.3828 -2.8227
  128OSM    H4G13735   3.443   2.139   6.719 -1.5166 -1.1464 -1.8774
  128OSM    C5F13736   3.301   2.235   6.858 -0.0011 -0.3070 -0.6912
  128OSM    H5F13737   3.217   2.163   6.867 -0.0515 -0.1810 -0.0969
  128OSM    H5G13738   3.245   2.331   6.871  1.3440  0.4053  0.0493
  128OSM    C6F13739   3.400   2.215   6.971  0.2887 -0.7269 -0.2248
  128OSM    H6F13740   3.497   2.259   6.941  1.9267 -2.9393  1.4446
  128OSM    H6G13741   3.425   2.107   6.982 -2.5086 -1.2245  2.6499
  128OSM    C7F13742   3.350   2.269   7.105 -0.2296 -0.2114 -0.1540
  128OSM    H7F13743   3.269   2.204   7.145 -2.3626  2.0804 -0.4401
  128OSM    H7G13744   3.308   2.371   7.089 -0.0074 -0.0934  0.0271
  128OSM    C8F13745   3.466   2.280   7.209 -0.0216 -0.2200  0.3291
  128OSM    H8F13746   3.422   2.330   7.299 -0.9679 -1.3261  0.5068
  128OSM    H8G13747   3.547   2.339   7.162  0.1299 -0.5275  0.2074
  128OSM    C9F13748   3.513   2.142   7.246  0.3375 -0.0363 -0.1325
  128OSM    H9F13749   3.536   2.075   7.162  0.1782  2.0226 -1.8934
  128OSM   C10F13750   3.519   2.097   7.376 -0.2428 -1.0148 -0.4651
  128OSM   H10F13751   3.560   1.996   7.391 -0.7149 -1.2776 -0.9120
  128OSM   C11F13752   3.491   2.187   7.496  0.3166  0.1949 -0.7488
  128OSM   H11F13753   3.412   2.264   7.481  0.4998  0.3841 -0.7289
  128OSM   H11G13754   3.580   2.236   7.539 -0.3254  0.8400 -0.1230
  128OSM   C12F13755   3.450   2.087   7.610  0.1030 -0.0193  0.0968
  128OSM   H12F13756   3.493   1.985   7.607 -2.6216 -1.2580 -0.5538
  128OSM   H12G13757   3.342   2.063   7.596 -0.2396  1.2460  0.4149
  128OSM   C13F13758   3.486   2.142   7.748 -0.2097 -0.8087 -0.3318
  128OSM   H13F13759   3.459   2.250   7.753  0.6001 -0.6479  1.1148
  128OSM   H13G13760   3.597   2.146   7.760 -0.0328 -0.6956 -1.8177
  128OSM   C14F13761   3.436   2.064   7.862  0.0045 -0.1988  0.1511
  128OSM   H14F13762   3.458   1.955   7.857 -0.3475 -0.2284 -0.9760
  128OSM   H14G13763   3.325   2.069   7.864  0.0094 -0.2014  2.0896
  128OSM   C15F13764   3.489   2.123   7.995  0.3891 -0.0162 -0.3947
  128OSM   H15F13765   3.451   2.223   8.024  2.2078  0.6169 -0.0964
  128OSM   H15G13766   3.599   2.116   7.981  0.0415 -0.6535 -3.5157
  128OSM   C16F13767   3.462   2.038   8.124  0.0408  0.1616 -0.2037
  128OSM   H16F13768   3.505   1.937   8.106  0.9279  0.1009  1.9618
  128OSM   H16G13769   3.352   2.030   8.134  0.0433 -1.6590 -1.1505
  128OSM   C17F13770   3.533   2.092   8.255  0.6279  0.7545  1.0382
  128OSM   H17F13771   3.538   2.203   8.265  2.4549  0.8045  0.0604
  128OSM   H17G13772   3.641   2.072   8.237  0.1001  0.1134 -1.9184
  128OSM   C18F13773   3.456   2.038   8.380  0.1777 -0.1381  0.4656
  128OSM   H18F13774   3.510   2.054   8.476 -0.2160  0.7702  0.5400
  128OSM   H18G13775   3.449   1.928   8.364 -2.9940 -0.1112  1.0812
  128OSM   H18H13776   3.352   2.075   8.384 -0.9568 -2.6793 -2.1111
  129OSM      N13777   1.381   3.854   5.690 -0.2083  0.2493 -1.2002
  129OSM    C1513778   1.285   3.764   5.757  0.4777 -0.2375  0.4760
  129OSM   H15A13779   1.201   3.824   5.789 -0.0724 -0.6629 -0.1388
  129OSM   H15B13780   1.327   3.724   5.848  0.1981 -0.8459  0.3411
  129OSM   H15C13781   1.243   3.691   5.689 -0.5306 -0.2141  1.0626
  129OSM    C1413782   1.488   3.767   5.641  0.4613  0.1051 -0.1850
  129OSM   H14A13783   1.582   3.784   5.691  0.1352 -2.0759  1.3023
  129OSM   H14B13784   1.501   3.779   5.534 -0.1074  3.3967  0.0353
  129OSM   H14C13785   1.458   3.665   5.663 -1.1283  0.6185  0.1442
  129OSM    C1313786   1.319   3.921   5.570  0.3333 -0.0674  0.2602
  129OSM   H13A13787   1.240   3.988   5.601 -0.0167 -0.3832  0.0533
  129OSM   H13B13788   1.287   3.841   5.505  1.1470  1.6537 -2.4259
  129OSM   H13C13789   1.395   3.980   5.521 -0.7230  0.6101 -0.6248
  129OSM    C1213790   1.433   3.956   5.791  0.6822  0.0487  0.2408
  129OSM   H12A13791   1.358   4.030   5.815 -0.1567 -0.8836  0.5653
  129OSM   H12B13792   1.511   4.010   5.739  2.0062 -2.0643 -0.0821
  129OSM    C1113793   1.502   3.896   5.914  0.4456  0.0019 -0.1260
  129OSM   H11A13794   1.599   3.948   5.930  1.7978 -2.5363  0.4157
  129OSM   H11B13795   1.531   3.790   5.898 -0.3459 -0.2352 -0.0254
  129OSM      P13796   1.391   4.028   6.108  0.4296 -0.2037  0.1315
  129OSM    O1313797   1.413   4.144   6.018 -0.1528 -0.7495 -0.0013
  129OSM    O1413798   1.253   4.011   6.157 -0.2175  0.4939  0.0442
  129OSM    O1113799   1.491   4.028   6.233 -0.4773 -0.4097  0.5727
  129OSM    O1213800   1.418   3.894   6.027 -0.0318 -0.1623 -0.1128
  129OSM    C1S13801   1.505   3.912   6.322  0.3286  1.2655 -0.3987
  129OSM    H1S13802   1.585   3.848   6.278  1.7656  0.6680  2.8401
  129OSM    H1T13803   1.416   3.846   6.331  0.0082  1.3303 -2.5000
  129OSM     NF13804   1.593   3.838   6.544 -0.6279  0.1878  0.4450
  129OSM    HNF13805   1.536   3.779   6.601 -0.6590 -0.2068  0.0157
  129OSM    C2S13806   1.543   3.951   6.466 -0.2987 -0.1104 -0.1903
  129OSM    H2S13807   1.623   4.027   6.457 -0.9785  0.5525 -0.8011
  129OSM    C3S13808   1.424   4.023   6.533  0.7202 -0.5815  1.0429
  129OSM    H3S13809   1.345   3.952   6.567  2.2109 -2.9388 -0.2026
  129OSM     O313810   1.366   4.134   6.457  0.2422 -0.0140 -0.2984
  129OSM    HO313811   1.420   4.120   6.379  1.6811  0.4205  0.5697
  129OSM    C4S13812   1.467   4.092   6.657 -0.5686  0.2529 -0.7590
  129OSM    H4S13813   1.525   4.185   6.650 -0.0682  0.0955  0.7358
  129OSM    C5S13814   1.471   4.022   6.773  0.4800  0.2744 -0.1126
  129OSM    H5S13815   1.428   3.921   6.777  0.4861  0.3089  0.9488
  129OSM    C6S13816   1.530   4.071   6.906  0.9118  0.1991 -0.0445
  129OSM    H6S13817   1.521   4.182   6.913 -3.1827 -0.0919  2.2196
  129OSM    H6T13818   1.634   4.032   6.902  0.0513 -2.2107 -0.4836
  129OSM    C7S13819   1.462   4.033   7.040  0.4565 -0.3345 -0.0559
  129OSM    H7S13820   1.468   3.928   7.075  1.0024  0.2781  1.7736
  129OSM    H7T13821   1.353   4.052   7.028 -0.2705 -3.1795  1.1638
  129OSM    C8S13822   1.521   4.112   7.158  0.6827 -0.0357  0.1901
  129OSM    H8S13823   1.501   4.220   7.145  0.6407 -0.0704 -0.0315
  129OSM    H8T13824   1.628   4.083   7.170  0.1117 -2.0960  0.7980
  129OSM    C9S13825   1.451   4.082   7.295  0.9082 -1.4695 -0.0865
  129OSM    H9S13826   1.447   3.971   7.300 -0.4202 -1.3933  1.0396
  129OSM    H9T13827   1.346   4.118   7.285  0.9740 -1.1834  0.2182
  129OSM   C10S13828   1.529   4.151   7.410  0.0306  0.1091 -0.9882
  129OSM   H10S13829   1.509   4.260   7.405  2.6049  0.6044 -1.5779
  129OSM   H10T13830   1.639   4.139   7.401 -0.1226 -1.1992 -1.3220
  129OSM   C11S13831   1.494   4.090   7.542  0.1409 -0.0412  0.0686
  129OSM   H11S13832   1.536   3.987   7.548  3.0825  0.9409 -1.5256
  129OSM   H11T13833   1.383   4.085   7.529  0.3538 -0.2507 -2.1739
  129OSM   C12S13834   1.544   4.168   7.667  0.3500 -0.0408 -0.0113
  129OSM   H12S13835   1.479   4.257   7.682  0.5216  0.1417 -0.3180
  129OSM   H12T13836   1.646   4.214   7.662  0.0843  0.6946  1.0183
  129OSM   C13S13837   1.526   4.073   7.779  0.4504  0.2842 -0.3196
  129OSM   H13S13838   1.604   3.996   7.762  0.6577  1.0198 -3.2905
  129OSM   H13T13839   1.424   4.032   7.794  2.0288 -2.8579  3.6280
  129OSM   C14S13840   1.569   4.136   7.915 -0.6273  0.0241  0.0144
  129OSM   H14S13841   1.513   4.224   7.954  1.5996  0.5399  2.2902
  129OSM   H14T13842   1.667   4.186   7.899 -1.6070  2.0059 -0.1608
  129OSM   C15S13843   1.557   4.036   8.023  0.2453  1.0325  1.3881
  129OSM   H15S13844   1.600   3.942   7.983 -1.8320  1.6225 -2.7941
  129OSM   H15T13845   1.449   4.020   8.042  0.2068  0.0328  0.4558
  129OSM   C16S13846   1.633   4.082   8.148  0.4420  0.1513 -0.0367
  129OSM   H16S13847   1.612   4.187   8.175  0.0416 -0.0455  0.4310
  129OSM   H16T13848   1.741   4.085   8.124  0.0362  0.6378 -2.0212
  129OSM   C17S13849   1.630   3.995   8.270 -0.0404 -1.0278  0.3908
  129OSM   H17S13850   1.679   3.900   8.238 -0.5944 -1.1482 -0.1265
  129OSM   H17T13851   1.526   3.967   8.297 -0.5476 -0.5750 -1.0134
  129OSM   C18S13852   1.698   4.046   8.398 -0.5872  0.2132 -0.1594
  129OSM   H18S13853   1.806   4.067   8.383 -0.3908 -0.6946 -0.0868
  129OSM   H18T13854   1.703   3.967   8.476 -0.0774 -0.8854 -1.2656
  129OSM   H18U13855   1.641   4.137   8.428  1.2486  1.4404 -0.2808
  129OSM    C1F13856   1.714   3.782   6.515  0.2258  0.1137 -0.1575
  129OSM     OF13857   1.773   3.818   6.418 -0.6168  0.0107  0.5116
  129OSM    C2F13858   1.767   3.672   6.597  0.4385 -0.0665 -0.8805
  129OSM    H2F13859   1.790   3.588   6.529 -0.2341 -0.0584 -1.1291
  129OSM    H2G13860   1.693   3.627   6.667  1.9413 -0.3646  0.5669
  129OSM    C3F13861   1.888   3.708   6.682 -0.5661 -0.1562 -0.0021
  129OSM    H3F13862   1.956   3.769   6.619 -2.8659  0.6472 -1.9057
  129OSM    H3G13863   1.946   3.618   6.710 -4.3550 -2.7907  0.0969
  129OSM    C4F13864   1.859   3.794   6.811  0.1041 -0.5890 -1.0659
  129OSM    H4F13865   1.804   3.888   6.788 -0.8395 -1.1467 -1.1754
  129OSM    H4G13866   1.956   3.831   6.850 -0.2259  1.6630 -2.2378
  129OSM    C5F13867   1.778   3.719   6.915 -0.3465 -0.1716  0.4447
  129OSM    H5F13868   1.697   3.662   6.864  0.7804 -1.6627  0.2537
  129OSM    H5G13869   1.731   3.797   6.977  2.1198  0.1852  2.0024
  129OSM    C6F13870   1.859   3.637   7.012  0.3351  0.1600  0.6015
  129OSM    H6F13871   1.952   3.602   6.962  0.9032  0.9734  1.0745
  129OSM    H6G13872   1.797   3.552   7.047  2.4955 -2.2472 -1.0477
  129OSM    C7F13873   1.897   3.731   7.133 -0.3247  0.7038  0.0328
  129OSM    H7F13874   1.801   3.762   7.180 -0.8652 -0.3665 -0.3369
  129OSM    H7G13875   1.949   3.824   7.101  1.6860 -0.4027 -0.0864
  129OSM    C8F13876   1.987   3.651   7.232 -0.3351 -0.1074  0.4425
  129OSM    H8F13877   2.039   3.720   7.302  0.6515 -1.9700  1.6260
  129OSM    H8G13878   2.071   3.606   7.176 -0.5665  0.3572 -0.2988
  129OSM    C9F13879   1.919   3.543   7.312 -0.2784 -0.1296  0.2738
  129OSM    H9F13880   1.830   3.492   7.270 -0.7025 -0.0518  1.0676
  129OSM   C10F13881   1.945   3.510   7.441 -0.4649  0.1268 -0.2090
  129OSM   H10F13882   1.875   3.436   7.483 -1.3245  0.7354 -0.5251
  129OSM   C11F13883   2.056   3.563   7.529  0.6996 -0.1019  0.3394
  129OSM   H11F13884   2.109   3.648   7.480  0.9753 -0.5974 -0.2217
  129OSM   H11G13885   2.131   3.485   7.552  1.3783  1.2584  3.1557
  129OSM   C12F13886   2.007   3.599   7.674  0.2271 -0.6636  0.6196
  129OSM   H12F13887   1.930   3.678   7.664  0.9581  0.2289  1.7476
  129OSM   H12G13888   2.087   3.647   7.735 -0.7519 -0.9043  2.1569
  129OSM   C13F13889   1.960   3.472   7.757  0.1585 -0.3645 -0.2369
  129OSM   H13F13890   1.910   3.392   7.700  2.7902 -2.5459  0.3077
  129OSM   H13G13891   1.892   3.519   7.830  0.1711 -2.0056  0.8756
  129OSM   C14F13892   2.070   3.406   7.835 -1.2853 -0.5451  0.4025
  129OSM   H14F13893   2.119   3.466   7.914  0.5903 -1.8470  0.3072
  129OSM   H14G13894   2.155   3.378   7.769 -2.1672 -0.7879 -0.6561
  129OSM   C15F13895   2.031   3.271   7.907  0.7613  0.6008 -0.0380
  129OSM   H15F13896   2.119   3.230   7.961 -1.1216 -0.5846  2.3064
  129OSM   H15G13897   1.996   3.197   7.833 -0.6890  0.7713  0.4390
  129OSM   C16F13898   1.917   3.303   8.010  0.8736 -0.3719 -0.0073
  129OSM   H16F13899   1.901   3.217   8.079 -2.1178 -0.0706 -0.1725
  129OSM   H16G13900   1.819   3.327   7.962 -0.1120 -2.8555  0.5758
  129OSM   C17F13901   1.958   3.416   8.114  0.9832 -0.5302  0.3165
  129OSM   H17F13902   1.978   3.514   8.065  1.9485  0.6328  2.8699
  129OSM   H17G13903   2.050   3.375   8.161  0.1835 -4.1722 -0.9581
  129OSM   C18F13904   1.859   3.434   8.231  0.5581 -0.1364  1.0996
  129OSM   H18F13905   1.788   3.348   8.234  1.3551 -0.9749 -1.4461
  129OSM   H18G13906   1.789   3.513   8.195  0.2195 -1.3804 -1.1811
  129OSM   H18H13907   1.914   3.456   8.325  0.0340 -0.1819  1.4258
  130OSM      N13908   3.360   0.931   6.565  0.2101  1.0588  0.2537
  130OSM    C1513909   3.403   1.057   6.624 -0.6484  0.3533 -0.2583
  130OSM   H15A13910   3.322   1.118   6.661  0.7145  1.8658  0.3618
  130OSM   H15B13911   3.460   1.115   6.553 -0.0877  1.1050  0.7768
  130OSM   H15C13912   3.476   1.041   6.703  0.0247  1.4329 -0.6364
  130OSM    C1413913   3.486   0.880   6.491  0.2132 -0.5876  0.6539
  130OSM   H14A13914   3.522   0.954   6.421 -1.8942  0.1653  0.2941
  130OSM   H14B13915   3.463   0.790   6.436  0.1747 -1.1388  1.5533
  130OSM   H14C13916   3.569   0.854   6.555 -1.3117 -3.9757  1.4928
  130OSM    C1313917   3.337   0.828   6.673  0.3759  0.3675  0.9301
  130OSM   H13A13918   3.423   0.811   6.735  1.4420 -0.6550 -0.7372
  130OSM   H13B13919   3.314   0.731   6.631 -1.9919  1.4983 -0.6171
  130OSM   H13C13920   3.255   0.851   6.739 -1.3566 -1.0986 -0.5976
  130OSM    C1213921   3.256   0.940   6.461  0.6562  0.4129  0.3407
  130OSM   H12A13922   3.167   0.984   6.506 -0.2463 -2.1757  1.2566
  130OSM   H12B13923   3.230   0.846   6.415 -1.2926  1.1180 -0.1022
  130OSM    C1113924   3.282   1.016   6.325 -0.0623  0.5177 -0.2643
  130OSM   H11A13925   3.194   1.024   6.259  1.1464  2.8714 -1.7367
  130OSM   H11B13926   3.364   0.964   6.271  1.6307  1.6126  1.1323
  130OSM      P13927   3.229   1.279   6.376 -0.0892 -0.3633  0.4189
  130OSM    O1313928   3.290   1.361   6.480  0.5694 -0.2117 -0.8816
  130OSM    O1413929   3.212   1.352   6.251 -0.2819  0.6404  0.7824
  130OSM    O1113930   3.083   1.229   6.421  0.2199  0.5065 -0.6991
  130OSM    O1213931   3.323   1.155   6.346 -0.3696  0.3043  0.3618
  130OSM    C1S13932   3.057   1.192   6.558 -0.9099  0.9254  0.1195
  130OSM    H1S13933   3.153   1.157   6.602 -0.1087  4.5023  1.5459
  130OSM    H1T13934   2.992   1.102   6.564  0.5721 -0.1675  0.2580
  130OSM     NF13935   3.007   1.250   6.783  0.0481 -0.5062  0.1898
  130OSM    HNF13936   2.919   1.225   6.822  0.3349 -1.3173  0.3373
  130OSM    C2S13937   3.003   1.298   6.646  0.8935 -0.2536 -0.9341
  130OSM    H2S13938   3.068   1.388   6.639  1.3629 -0.5216 -0.1119
  130OSM    C3S13939   2.855   1.346   6.601 -0.8804 -0.3698 -0.1643
  130OSM    H3S13940   2.786   1.259   6.606 -0.2446 -0.9183 -0.6866
  130OSM     O313941   2.846   1.393   6.468 -0.6227 -0.5578  0.3309
  130OSM    HO313942   2.936   1.380   6.436  0.4235  0.6645  2.5889
  130OSM    C4S13943   2.811   1.452   6.695  0.2015  0.1440 -0.1781
  130OSM    H4S13944   2.878   1.539   6.691  3.1487 -1.8668  1.5129
  130OSM    C5S13945   2.702   1.458   6.779 -0.1642  0.1766  0.1777
  130OSM    H5S13946   2.623   1.382   6.769  0.1512 -0.1026 -0.2166
  130OSM    C6S13947   2.674   1.575   6.866 -0.2320 -0.4535  0.0529
  130OSM    H6S13948   2.564   1.594   6.866 -0.1072  0.3420 -0.8870
  130OSM    H6T13949   2.721   1.668   6.830 -0.0800  0.4924  2.4584
  130OSM    C7S13950   2.721   1.556   7.011  0.5464  0.1752 -0.1294
  130OSM    H7S13951   2.829   1.532   7.014  0.2083 -1.4227 -0.1414
  130OSM    H7T13952   2.665   1.473   7.058 -0.5218  0.6797 -0.4706
  130OSM    C8S13953   2.705   1.688   7.096 -0.0254  0.6367  0.3653
  130OSM    H8S13954   2.598   1.718   7.095 -0.4034 -0.3454  2.9587
  130OSM    H8T13955   2.753   1.778   7.052  1.2971 -0.3089 -0.2060
  130OSM    C9S13956   2.740   1.656   7.238 -0.4205 -0.3979 -0.3082
  130OSM    H9S13957   2.844   1.621   7.255 -0.6098 -0.1150  1.7831
  130OSM    H9T13958   2.682   1.578   7.290 -0.9738 -0.2946 -0.7633
  130OSM   C10S13959   2.715   1.781   7.328 -0.5977  0.3155 -0.1860
  130OSM   H10S13960   2.619   1.812   7.282 -1.2224 -1.5332 -0.2411
  130OSM   H10T13961   2.795   1.858   7.330 -1.3461  1.0856  1.6367
  130OSM   C11S13962   2.686   1.744   7.477  0.6750  0.0012 -0.4809
  130OSM   H11S13963   2.766   1.679   7.517  0.2303 -1.3192 -1.6148
  130OSM   H11T13964   2.596   1.679   7.490 -0.4032  1.4169 -0.5491
  130OSM   C12S13965   2.672   1.865   7.571  0.6287 -0.4028  0.5944
  130OSM   H12S13966   2.602   1.930   7.514  1.8877 -0.6385 -1.2974
  130OSM   H12T13967   2.770   1.918   7.576  0.8061 -0.5816 -0.7825
  130OSM   C13S13968   2.639   1.832   7.716  0.4975  0.1429  0.1650
  130OSM   H13S13969   2.723   1.775   7.761  1.3345  0.8983 -0.3995
  130OSM   H13T13970   2.549   1.768   7.724  1.0331 -0.6025  0.3204
  130OSM   C14S13971   2.628   1.953   7.800 -0.2059 -0.2393 -0.0141
  130OSM   H14S13972   2.533   2.007   7.780 -0.4643 -1.2353 -1.5853
  130OSM   H14T13973   2.696   2.033   7.764 -1.1826  0.1393 -1.0376
  130OSM   C15S13974   2.636   1.944   7.953  0.8393 -0.3117  0.6532
  130OSM   H15S13975   2.659   2.042   8.000  1.6363 -0.3913  0.4390
  130OSM   H15T13976   2.719   1.873   7.976 -0.8000 -3.2604 -1.8372
  130OSM   C16S13977   2.510   1.892   8.035  0.5710 -0.1089  0.5366
  130OSM   H16S13978   2.487   1.793   7.991  1.5205  0.1220 -0.5220
  130OSM   H16T13979   2.422   1.959   8.023  1.1268  0.4401 -0.6499
  130OSM   C17S13980   2.535   1.891   8.181 -0.0622 -0.7012  0.8365
  130OSM   H17S13981   2.608   1.965   8.219  0.2731 -1.1332  1.0414
  130OSM   H17T13982   2.567   1.786   8.196  1.4015 -0.9399 -2.9398
  130OSM   C18S13983   2.409   1.929   8.266  0.1109 -0.2419 -0.0418
  130OSM   H18S13984   2.369   2.018   8.215  1.4499 -0.9012 -2.3779
  130OSM   H18T13985   2.438   1.941   8.373  0.3752  0.6181 -0.2013
  130OSM   H18U13986   2.335   1.846   8.265 -0.8201  0.5097  1.7361
  130OSM    C1F13987   3.120   1.215   6.845 -0.7788  0.8028  0.5780
  130OSM     OF13988   3.230   1.253   6.799  0.1792 -0.1562 -0.1778
  130OSM    C2F13989   3.103   1.139   6.975 -0.1047  0.2046 -0.0043
  130OSM    H2F13990   3.155   1.040   6.975  0.2461  0.3172  2.8920
  130OSM    H2G13991   2.995   1.117   6.992 -0.0806  0.1613  0.0942
  130OSM    C3F13992   3.158   1.211   7.091  0.0140  0.0951 -0.2599
  130OSM    H3F13993   3.100   1.305   7.094  0.0806  0.1274  0.0109
  130OSM    H3G13994   3.261   1.244   7.066 -0.3350  2.0530  0.7154
  130OSM    C4F13995   3.137   1.133   7.223  0.6855  0.7562 -0.3375
  130OSM    H4F13996   3.173   1.029   7.204 -2.8021 -0.3004 -2.0029
  130OSM    H4G13997   3.031   1.102   7.235  0.8561  0.0907 -0.4966
  130OSM    C5F13998   3.192   1.202   7.347  0.0228 -0.2485  0.1181
  130OSM    H5F13999   3.141   1.300   7.345  1.3723  0.4751 -1.3624
  130OSM    H5G14000   3.302   1.213   7.338  0.0696  2.2248  2.3278
  130OSM    C6F14001   3.162   1.131   7.483  0.0912  0.2502 -0.0426
  130OSM    H6F14002   3.200   1.027   7.473 -0.1612  0.3436 -2.7090
  130OSM    H6G14003   3.054   1.107   7.495  0.0273 -0.5248 -1.8861
  130OSM    C7F14004   3.240   1.213   7.589 -0.1877 -0.0851  0.0102
  130OSM    H7F14005   3.197   1.315   7.594  1.4207  0.6428 -0.3009
  130OSM    H7G14006   3.344   1.221   7.550  0.5261 -4.4044  0.4917
  130OSM    C8F14007   3.229   1.146   7.727  0.4258  0.1618 -0.3210
  130OSM    H8F14008   3.311   1.178   7.796  0.0733 -2.0861  1.2309
  130OSM    H8G14009   3.247   1.039   7.707 -0.3868  0.0064 -0.2586
  130OSM    C9F14010   3.095   1.178   7.791 -0.0072 -0.4091  0.4713
  130OSM    H9F14011   3.008   1.143   7.734 -1.2427  0.5726  1.6831
  130OSM   C10F14012   3.072   1.237   7.909 -0.5175  0.0685 -0.0294
  130OSM   H10F14013   2.971   1.243   7.953 -1.0028 -2.6239 -0.5973
  130OSM   C11F14014   3.176   1.298   8.003  0.2358 -0.0708  0.2299
  130OSM   H11F14015   3.177   1.409   8.008  1.3433 -0.0670  0.1074
  130OSM   H11G14016   3.280   1.268   7.981  0.3101  0.7968 -0.6676
  130OSM   C12F14017   3.146   1.237   8.137 -0.1948  0.1733  0.3443
  130OSM   H12F14018   3.046   1.266   8.176  0.5116  0.2514  2.1770
  130OSM   H12G14019   3.215   1.274   8.216  1.1210 -2.6849  0.6646
  130OSM   C13F14020   3.167   1.083   8.138  0.2782  0.1195 -0.8938
  130OSM   H13F14021   3.271   1.051   8.117  0.2855  0.1240 -0.8645
  130OSM   H13G14022   3.106   1.032   8.060 -2.1406  0.2492  0.8172
  130OSM   C14F14023   3.131   1.037   8.275 -0.2619 -1.0738  0.3709
  130OSM   H14F14024   3.028   1.063   8.306  0.2044  2.9168 -0.8498
  130OSM   H14G14025   3.190   1.101   8.344 -1.3454 -1.1910  1.4387
  130OSM   C15F14026   3.165   0.889   8.305  0.9081 -0.3476 -0.3959
  130OSM   H15F14027   3.275   0.879   8.301  1.5377  2.6198  3.2579
  130OSM   H15G14028   3.112   0.825   8.232 -0.1513 -1.6750  1.4354
  130OSM   C16F14029   3.111   0.837   8.447  0.7815  0.2854  0.1511
  130OSM   H16F14030   3.027   0.900   8.484  1.2970 -0.4376  2.7614
  130OSM   H16G14031   3.190   0.864   8.520  2.0434  0.6908 -1.3145
  130OSM   C17F14032   3.070   0.694   8.443  0.1479 -0.0478  0.4735
  130OSM   H17F14033   3.136   0.623   8.389 -0.6597  0.4985 -1.3057
  130OSM   H17G14034   2.976   0.695   8.384  0.4731  0.5090 -0.0575
  130OSM   C18F14035   3.061   0.637   8.581 -0.3400  1.1363 -0.1555
  130OSM   H18F14036   3.157   0.609   8.631 -1.2162 -0.9630  0.4373
  130OSM   H18G14037   3.005   0.542   8.573 -0.3736  1.1774 -0.4262
  130OSM   H18H14038   3.012   0.709   8.650 -0.0714  0.1417  1.1117
  131OSM      N14039   4.613   6.656   5.982  0.5389 -0.1533 -0.0867
  131OSM    C1514040   4.514   6.551   5.937  0.3445 -0.9445  0.0074
  131OSM   H15A14041   4.506   6.553   5.829 -1.8595 -3.0431  0.0566
  131OSM   H15B14042   4.412   6.575   5.964  0.3735  2.4034 -2.1995
  131OSM   H15C14043   4.542   6.451   5.966  0.5852 -1.5617 -2.1822
  131OSM    C1414044   4.746   6.630   5.927  0.0757  0.5151  0.4270
  131OSM   H14A14045   4.748   6.605   5.822  1.8668 -0.4197  0.6530
  131OSM   H14B14046   4.788   6.543   5.975  1.4274  0.0552 -1.4661
  131OSM   H14C14047   4.815   6.711   5.941 -0.5607  0.6847  3.1657
  131OSM    C1314048   4.566   6.784   5.934  0.2661  0.2117 -0.4387
  131OSM   H13A14049   4.470   6.808   5.977  0.9980 -1.4922  2.4374
  131OSM   H13B14050   4.549   6.781   5.828 -0.2097 -0.6452 -0.3467
  131OSM   H13C14051   4.636   6.863   5.956 -1.3767  1.2459  1.3958
  131OSM    C1214052   4.617   6.653   6.137  0.1689  0.3015  0.1520
  131OSM   H12A14053   4.637   6.550   6.163  1.9946  0.3358 -0.9280
  131OSM   H12B14054   4.518   6.672   6.176 -0.9670 -0.2034 -2.2776
  131OSM    C1114055   4.726   6.750   6.206 -0.4616 -0.1416  0.1281
  131OSM   H11A14056   4.689   6.760   6.310  0.4065 -0.0368  0.4272
  131OSM   H11B14057   4.711   6.852   6.166  1.5031  0.8335  1.7160
  131OSM      P14058   4.904   6.545   6.246  0.1916  0.0501  0.1256
  131OSM    O1314059   4.889   6.455   6.129  0.1468  0.1747  0.4633
  131OSM    O1414060   5.045   6.559   6.295  0.2597 -0.2209  0.0542
  131OSM    O1114061   4.813   6.503   6.364  0.0733 -0.3828  0.2793
  131OSM    O1214062   4.862   6.698   6.202  0.1781 -0.2446  0.1681
  131OSM    C1S14063   4.837   6.534   6.502  0.2639 -0.2508  0.0148
  131OSM    H1S14064   4.839   6.645   6.510 -0.4303 -0.1028 -1.4416
  131OSM    H1T14065   4.933   6.486   6.532  1.9164  2.0464 -1.2520
  131OSM     NF14066   4.735   6.526   6.730  0.2761 -0.6000  0.0445
  131OSM    HNF14067   4.762   6.468   6.806  1.7581  0.0815  0.0851
  131OSM    C2S14068   4.720   6.474   6.593  0.5131 -0.1667 -0.0743
  131OSM    H2S14069   4.621   6.502   6.551 -0.5613 -2.6838  0.6082
  131OSM    C3S14070   4.719   6.316   6.586 -0.3599 -0.8216  0.4831
  131OSM    H3S14071   4.823   6.285   6.614  0.7135  1.2873 -0.9233
  131OSM     O314072   4.700   6.278   6.454 -0.1318  0.5595  0.8877
  131OSM    HO314073   4.730   6.355   6.407  0.5612  0.3609  0.9936
  131OSM    C4S14074   4.617   6.261   6.682 -0.0960  0.4265 -0.4289
  131OSM    H4S14075   4.509   6.270   6.659 -0.4336 -1.1311  0.3901
  131OSM    C5S14076   4.651   6.199   6.801 -0.2696 -0.6339 -0.0632
  131OSM    H5S14077   4.759   6.198   6.821 -0.0735  3.0117 -0.2678
  131OSM    C6S14078   4.560   6.142   6.906 -1.1134 -0.6131  0.6207
  131OSM    H6S14079   4.604   6.054   6.958  0.1994 -0.2726  0.1212
  131OSM    H6T14080   4.471   6.100   6.856 -1.5300  2.0295 -1.0590
  131OSM    C7S14081   4.515   6.235   7.015  0.4459  0.0729  0.0790
  131OSM    H7S14082   4.468   6.325   6.969 -0.3643 -0.2288  0.3083
  131OSM    H7T14083   4.600   6.273   7.076  2.4811 -1.5311 -1.6121
  131OSM    C8S14084   4.414   6.167   7.110 -0.1809  0.0921  0.4212
  131OSM    H8S14085   4.455   6.075   7.158  2.3069  0.8583 -0.0631
  131OSM    H8T14086   4.333   6.137   7.041 -0.3106  2.8589 -0.7458
  131OSM    C9S14087   4.359   6.256   7.217  0.6334 -0.3626  1.1493
  131OSM    H9S14088   4.284   6.201   7.278 -0.7958 -0.1106 -0.2925
  131OSM    H9T14089   4.308   6.339   7.164  1.3383 -0.3689  0.4509
  131OSM   C10S14090   4.460   6.321   7.309 -0.2950 -0.2412  0.3756
  131OSM   H10S14091   4.527   6.390   7.254 -1.1899 -0.6997 -1.3455
  131OSM   H10T14092   4.533   6.251   7.356 -0.3432 -1.3849 -1.1704
  131OSM   C11S14093   4.383   6.408   7.405 -0.2299 -0.5195  1.2094
  131OSM   H11S14094   4.296   6.345   7.435 -0.0277 -2.4227 -1.7832
  131OSM   H11T14095   4.333   6.489   7.347 -0.9813 -0.5418  1.8026
  131OSM   C12S14096   4.464   6.478   7.516 -0.1444 -0.1333  0.3834
  131OSM   H12S14097   4.549   6.515   7.454 -1.8925 -0.3555 -2.3221
  131OSM   H12T14098   4.504   6.400   7.583  1.4941 -0.3072 -0.7582
  131OSM   C13S14099   4.396   6.597   7.592  0.3898 -0.4409  0.3146
  131OSM   H13S14100   4.326   6.549   7.665  2.1396 -2.4712  0.7616
  131OSM   H13T14101   4.351   6.660   7.512 -0.8839 -3.7678 -1.8076
  131OSM   C14S14102   4.494   6.676   7.681  0.8028  0.0097  0.4543
  131OSM   H14S14103   4.440   6.763   7.725 -2.0342 -0.8114 -1.1178
  131OSM   H14T14104   4.565   6.714   7.604  0.8233  1.8848  1.3483
  131OSM   C15S14105   4.551   6.598   7.792 -0.4038 -0.2339 -0.6243
  131OSM   H15S14106   4.615   6.669   7.849 -1.3325  0.2479 -0.1611
  131OSM   H15T14107   4.616   6.515   7.755  0.4995  1.4451 -3.0427
  131OSM   C16S14108   4.444   6.544   7.897  0.8241  0.3154 -0.1593
  131OSM   H16S14109   4.411   6.451   7.845  1.6404  1.0013 -2.0110
  131OSM   H16T14110   4.365   6.620   7.914  1.5269  0.8842  0.6095
  131OSM   C17S14111   4.518   6.508   8.027 -0.1089  0.1590 -0.0022
  131OSM   H17S14112   4.600   6.438   7.998 -1.7550 -1.7732 -0.2137
  131OSM   H17T14113   4.455   6.448   8.096 -0.1542 -2.2023 -1.9555
  131OSM   C18S14114   4.571   6.632   8.105  0.4502 -1.0396 -0.1965
  131OSM   H18S14115   4.485   6.689   8.147 -0.1353 -0.1708 -2.4591
  131OSM   H18T14116   4.627   6.707   8.046  3.0635 -0.6779  2.4799
  131OSM   H18U14117   4.620   6.597   8.198 -2.3569  0.5699  2.0530
  131OSM    C1F14118   4.706   6.655   6.754 -0.0476  1.3511 -0.3846
  131OSM     OF14119   4.655   6.729   6.669  0.5901  0.0233  0.5696
  131OSM    C2F14120   4.741   6.701   6.894 -0.0838 -0.3875 -0.5438
  131OSM    H2F14121   4.762   6.810   6.884 -2.1144  0.1025  0.0997
  131OSM    H2G14122   4.832   6.651   6.933  0.7828  0.0471 -1.9323
  131OSM    C3F14123   4.642   6.690   7.009 -0.2797  0.0188  0.1994
  131OSM    H3F14124   4.625   6.591   7.058 -0.0937  1.3018  3.0659
  131OSM    H3G14125   4.542   6.701   6.962 -0.7529 -1.9397  0.6291
  131OSM    C4F14126   4.662   6.793   7.120  0.0983  0.7826 -0.3067
  131OSM    H4F14127   4.569   6.800   7.179  0.9107 -0.3632  1.1659
  131OSM    H4G14128   4.693   6.890   7.074  0.0915  1.5450  1.2258
  131OSM    C5F14129   4.763   6.741   7.225 -0.5958 -0.3967 -0.1416
  131OSM    H5F14130   4.852   6.698   7.174 -0.5271  0.3487 -0.6689
  131OSM    H5G14131   4.720   6.664   7.292 -3.8097 -0.2658 -1.8302
  131OSM    C6F14132   4.818   6.860   7.306  0.4074 -0.0976  0.1540
  131OSM    H6F14133   4.738   6.925   7.348 -1.3640 -0.2652 -2.6835
  131OSM    H6G14134   4.867   6.919   7.225  0.9276 -3.6294 -2.3637
  131OSM    C7F14135   4.918   6.836   7.414 -0.1817  0.0512  0.4168
  131OSM    H7F14136   4.978   6.926   7.440  0.9964 -0.3372 -0.7858
  131OSM    H7G14137   4.998   6.765   7.383 -1.0087  0.0433 -1.9307
  131OSM    C8F14138   4.851   6.776   7.541  0.2677 -0.0311 -0.3029
  131OSM    H8F14139   4.805   6.678   7.513  2.7689 -1.8682  1.5474
  131OSM    H8G14140   4.773   6.841   7.585  0.5238 -0.1402  0.3231
  131OSM    C9F14141   4.942   6.764   7.661  1.0575 -0.4051  0.2430
  131OSM    H9F14142   5.024   6.693   7.644  0.5305 -1.0175  0.2407
  131OSM   C10F14143   4.927   6.814   7.787 -0.4201 -0.2349 -0.3978
  131OSM   H10F14144   5.012   6.788   7.852 -0.6946 -2.0275 -0.7144
  131OSM   C11F14145   4.826   6.901   7.845  0.2426  0.0046  0.8322
  131OSM   H11F14146   4.778   6.845   7.929 -1.1153 -0.6524 -0.3250
  131OSM   H11G14147   4.740   6.914   7.775 -1.5039  1.1821  3.0746
  131OSM   C12F14148   4.879   7.043   7.886  0.1161  0.7092 -0.4529
  131OSM   H12F14149   4.796   7.116   7.901 -1.0755 -0.7065  0.0832
  131OSM   H12G14150   4.937   7.085   7.801  1.1751  1.0272  0.4047
  131OSM   C13F14151   4.967   7.045   8.015  0.0691 -0.0839  0.1630
  131OSM   H13F14152   5.055   6.982   7.990  1.1856  1.9144 -1.2734
  131OSM   H13G14153   4.917   6.996   8.101  0.5693  1.4336  1.3428
  131OSM   C14F14154   5.013   7.186   8.060  1.1075  0.6015  0.0349
  131OSM   H14F14155   5.052   7.229   7.966 -0.1250  0.5247 -0.5253
  131OSM   H14G14156   5.098   7.187   8.131  1.2700  1.3929 -0.1674
  131OSM   C15F14157   4.900   7.286   8.098 -0.3520  0.3488  0.0523
  131OSM   H15F14158   4.821   7.291   8.020 -0.9508  1.4812  0.7133
  131OSM   H15G14159   4.941   7.389   8.104  1.7533 -0.4789  0.9302
  131OSM   C16F14160   4.832   7.255   8.231 -0.2702  0.3852 -0.1315
  131OSM   H16F14161   4.910   7.253   8.310 -1.8599 -0.0919  1.5116
  131OSM   H16G14162   4.791   7.152   8.235 -0.8721  0.6570  1.3633
  131OSM   C17F14163   4.728   7.351   8.285 -0.3066  0.3447 -0.2630
  131OSM   H17F14164   4.771   7.453   8.296  0.8819 -0.1716  0.0267
  131OSM   H17G14165   4.694   7.312   8.383 -1.4743  0.2301 -0.6964
  131OSM   C18F14166   4.608   7.335   8.184 -0.0604  0.0184  0.0803
  131OSM   H18F14167   4.562   7.234   8.189 -0.0573  0.0073 -0.0952
  131OSM   H18G14168   4.640   7.356   8.079 -0.1788  1.5700  0.3244
  131OSM   H18H14169   4.529   7.409   8.209  1.4553  1.7416  0.0492
  132OSM      N14170   0.173   3.696   6.107 -0.1806 -0.4527 -0.7520
  132OSM    C1514171   0.176   3.559   6.038  0.8321 -0.0284 -0.3509
  132OSM   H15A14172   0.222   3.581   5.943 -0.4463 -2.8785 -1.7749
  132OSM   H15B14173   0.079   3.516   6.021  0.9740 -0.4710 -0.0646
  132OSM   H15C14174   0.229   3.483   6.094  0.5693 -0.2460 -0.3950
  132OSM    C1414175   0.310   3.754   6.138  0.4756  0.1034  0.0576
  132OSM   H14A14176   0.355   3.781   6.043 -1.1944 -1.4370 -1.2198
  132OSM   H14B14177   0.372   3.682   6.188 -1.3572 -1.3203  0.3663
  132OSM   H14C14178   0.299   3.846   6.193  1.5861 -0.4610  1.2800
  132OSM    C1314179   0.088   3.784   6.034 -0.1653 -0.8734 -0.3778
  132OSM   H13A14180  -0.015   3.754   6.024 -1.0617  2.0074 -0.6025
  132OSM   H13B14181   0.125   3.821   5.940  0.3507  2.2144  0.9381
  132OSM   H13C14182   0.069   3.871   6.094 -0.5317 -2.5044  2.0243
  132OSM    C1214183   0.112   3.679   6.247  0.0701 -0.0622 -0.3965
  132OSM   H12A14184   0.167   3.611   6.310 -0.0717  0.0180 -0.1867
  132OSM   H12B14185   0.026   3.615   6.234  0.8109 -0.7690 -2.1129
  132OSM    C1114186   0.076   3.800   6.336  0.3674 -0.1892 -0.0519
  132OSM   H11A14187   0.164   3.857   6.371 -0.5498  1.9819 -1.1172
  132OSM   H11B14188   0.027   3.759   6.427  0.1349 -0.7518 -0.4217
  132OSM      P14189  -0.185   3.869   6.289 -0.2998 -0.0558  0.2320
  132OSM    O1314190  -0.239   3.993   6.227 -0.8745  0.1772  0.2568
  132OSM    O1414191  -0.229   3.739   6.237 -0.4047  0.1773  0.1627
  132OSM    O1114192  -0.200   3.867   6.442 -0.2067  0.3576 -0.1526
  132OSM    O1214193  -0.021   3.890   6.274  0.0654  0.1599 -0.1608
  132OSM    C1S14194  -0.290   3.959   6.510  0.4760  0.1746  0.0047
  132OSM    H1S14195  -0.393   3.931   6.478  0.7745 -0.5393 -0.3718
  132OSM    H1T14196  -0.269   4.064   6.481  0.1858 -0.6517 -3.7909
  132OSM     NF14197  -0.402   4.002   6.720 -0.1134 -0.1436 -0.1239
  132OSM    HNF14198  -0.402   4.101   6.735 -1.9701  0.3282 -2.6963
  132OSM    C2S14199  -0.284   3.940   6.668  0.3131 -0.4184 -0.7472
  132OSM    H2S14200  -0.281   3.831   6.688  0.6985 -0.0941  1.1376
  132OSM    C3S14201  -0.151   3.991   6.724  0.0672  0.0368 -0.2784
  132OSM    H3S14202  -0.160   4.100   6.740 -0.2603 -0.3530  2.8925
  132OSM     O314203  -0.038   3.973   6.639  0.1616 -0.4401 -0.0683
  132OSM    HO314204  -0.077   3.919   6.570 -0.8981 -0.2959  0.4073
  132OSM    C4S14205  -0.122   3.931   6.862  0.5648  0.3390  0.4987
  132OSM    H4S14206  -0.120   3.821   6.876  0.2391  0.4123  1.1436
  132OSM    C5S14207  -0.110   3.991   6.977 -0.2699  0.4217 -0.0566
  132OSM    H5S14208  -0.125   4.100   6.975 -0.3161  0.4292 -2.1255
  132OSM    C6S14209  -0.075   3.931   7.110  0.0802  0.4524 -0.2345
  132OSM    H6S14210   0.019   3.967   7.155  0.7560 -2.6235  1.1051
  132OSM    H6T14211  -0.065   3.820   7.111  1.2610  0.5544  0.2969
  132OSM    C7S14212  -0.181   3.983   7.210 -0.0657 -0.5823 -0.2784
  132OSM    H7S14213  -0.281   3.947   7.177 -0.9408  1.9615 -0.6020
  132OSM    H7T14214  -0.172   4.093   7.216 -1.0423 -0.4670 -0.8402
  132OSM    C8S14215  -0.165   3.924   7.351 -0.2294  0.2104 -0.0034
  132OSM    H8S14216  -0.170   3.814   7.367  0.5988  0.4682  2.5887
  132OSM    H8T14217  -0.242   3.977   7.412 -2.1100 -1.0216 -1.1834
  132OSM    C9S14218  -0.022   3.956   7.417 -0.6336  0.1923 -0.4442
  132OSM    H9S14219  -0.012   4.066   7.413  1.0530  0.1326  1.2137
  132OSM    H9T14220   0.059   3.916   7.352 -1.1993  0.0670 -1.0883
  132OSM   C10S14221  -0.010   3.913   7.563 -0.0934 -0.1828 -1.0649
  132OSM   H10S14222   0.092   3.933   7.601  0.1521  2.1021 -2.7198
  132OSM   H10T14223  -0.022   3.802   7.562  0.7668 -0.2880 -2.4279
  132OSM   C11S14224  -0.121   3.972   7.646  0.1502 -0.4160 -0.1594
  132OSM   H11S14225  -0.215   3.917   7.626 -0.8630  1.7637 -1.8814
  132OSM   H11T14226  -0.132   4.080   7.622  1.4264 -0.1851  0.2033
  132OSM   C12S14227  -0.098   3.954   7.796  0.0773  0.2811  0.2733
  132OSM   H12S14228  -0.019   4.022   7.834 -0.9197  1.7354 -0.1774
  132OSM   H12T14229  -0.052   3.853   7.811 -0.6916  0.0590  1.2689
  132OSM   C13S14230  -0.231   3.974   7.865  0.4052  0.6092  0.2835
  132OSM   H13S14231  -0.309   3.903   7.830  1.1715  0.3773 -1.0547
  132OSM   H13T14232  -0.276   4.072   7.841 -1.5616 -1.0168 -3.6157
  132OSM   C14S14233  -0.213   3.954   8.022 -0.2119 -1.2109  0.2389
  132OSM   H14S14234  -0.112   3.999   8.040  0.0364 -1.2226 -1.0064
  132OSM   H14T14235  -0.209   3.847   8.051 -0.9858 -1.2796  0.0911
  132OSM   C15S14236  -0.323   4.028   8.100  0.1818  0.2337  0.0858
  132OSM   H15S14237  -0.404   3.955   8.118  0.9198 -0.5596  0.2708
  132OSM   H15T14238  -0.362   4.120   8.051 -1.2951 -1.0889 -1.3349
  132OSM   C16S14239  -0.277   4.075   8.234 -0.0795 -0.1755  0.4590
  132OSM   H16S14240  -0.183   4.131   8.214  1.3069 -0.9686  4.0082
  132OSM   H16T14241  -0.256   3.984   8.293  1.1544  0.1573  0.5597
  132OSM   C17S14242  -0.375   4.180   8.305 -0.1290  0.5068 -0.0002
  132OSM   H17S14243  -0.419   4.251   8.232 -1.3103 -1.2524 -1.0798
  132OSM   H17T14244  -0.318   4.237   8.381 -0.3596  0.4759  0.1952
  132OSM   C18S14245  -0.495   4.109   8.362  0.6582 -0.0509  0.1373
  132OSM   H18S14246  -0.556   4.064   8.281  0.6813 -2.6610  1.4484
  132OSM   H18T14247  -0.571   4.177   8.407 -2.0412 -1.3295 -2.1391
  132OSM   H18U14248  -0.474   4.026   8.433 -0.3431 -0.0274  0.4873
  132OSM    C1F14249  -0.517   3.929   6.713 -0.0665 -0.0618 -0.0711
  132OSM     OF14250  -0.519   3.809   6.680  0.1575  0.5478  0.9141
  132OSM    C2F14251  -0.644   4.018   6.727 -0.5501 -0.2147 -0.1731
  132OSM    H2F14252  -0.687   4.017   6.625  0.6883 -1.4625 -0.7141
  132OSM    H2G14253  -0.612   4.121   6.753 -0.3977 -0.8345  2.3698
  132OSM    C3F14254  -0.746   3.969   6.825  0.4642 -0.1871  0.9723
  132OSM    H3F14255  -0.787   3.882   6.769 -1.6690 -0.0760  2.2649
  132OSM    H3G14256  -0.832   4.038   6.841 -0.8986 -1.3099 -0.9497
  132OSM    C4F14257  -0.688   3.899   6.953  0.5574  0.1607  0.8792
  132OSM    H4F14258  -0.612   3.969   6.994  0.4581  0.2227  0.9578
  132OSM    H4G14259  -0.630   3.806   6.933 -0.3010  0.2624 -2.9509
  132OSM    C5F14260  -0.790   3.865   7.052  0.3350 -0.0077 -0.8407
  132OSM    H5F14261  -0.842   3.769   7.037 -0.5983  0.1200  1.2101
  132OSM    H5G14262  -0.872   3.938   7.067  0.3279  0.0893 -1.3547
  132OSM    C6F14263  -0.725   3.836   7.190 -0.1183 -0.4817 -0.4482
  132OSM    H6F14264  -0.665   3.917   7.238  1.7532 -1.7857 -0.4875
  132OSM    H6G14265  -0.660   3.747   7.177 -0.2515 -0.3302 -2.4969
  132OSM    C7F14266  -0.832   3.817   7.297 -0.6276 -0.2814  0.0153
  132OSM    H7F14267  -0.895   3.732   7.261  0.5990 -1.1487 -0.1233
  132OSM    H7G14268  -0.891   3.910   7.308  0.2584  0.3293 -0.3222
  132OSM    C8F14269  -0.789   3.769   7.441  0.1412  0.7807  0.3529
  132OSM    H8F14270  -0.764   3.662   7.426 -0.6883  0.6608 -0.1950
  132OSM    H8G14271  -0.880   3.774   7.505 -0.8034  1.9518 -1.0179
  132OSM    C9F14272  -0.667   3.830   7.496 -0.1568 -0.0087  0.1042
  132OSM    H9F14273  -0.590   3.846   7.419 -0.2250 -0.8349 -0.1507
  132OSM   C10F14274  -0.646   3.850   7.631  0.0338 -0.2969  0.0536
  132OSM   H10F14275  -0.549   3.879   7.673 -0.1491 -0.6075  0.7203
  132OSM   C11F14276  -0.741   3.814   7.744  0.8473  0.2661  0.7261
  132OSM   H11F14277  -0.805   3.726   7.719  0.8458  0.5359 -0.2403
  132OSM   H11G14278  -0.808   3.899   7.769  0.4534 -0.2881  1.6031
  132OSM   C12F14279  -0.656   3.763   7.861  0.1272 -0.5674 -0.3637
  132OSM   H12F14280  -0.585   3.845   7.885 -1.8709  1.2323 -0.2635
  132OSM   H12G14281  -0.596   3.675   7.828  0.5142 -0.1582 -0.7708
  132OSM   C13F14282  -0.749   3.737   7.986 -0.2911  0.0822  0.9663
  132OSM   H13F14283  -0.851   3.701   7.964 -0.6841  1.5538  0.2035
  132OSM   H13G14284  -0.773   3.824   8.051 -2.3571  0.2223  0.0853
  132OSM   C14F14285  -0.674   3.630   8.063  0.0254  0.1271  0.1561
  132OSM   H14F14286  -0.661   3.543   7.995 -1.6530 -1.5976  1.9385
  132OSM   H14G14287  -0.737   3.602   8.149  1.2120  2.1207  1.7589
  132OSM   C15F14288  -0.541   3.682   8.121 -0.2053 -0.0496 -0.1497
  132OSM   H15F14289  -0.543   3.790   8.150 -5.1954  0.5860 -1.9267
  132OSM   H15G14290  -0.466   3.687   8.039  0.1661 -0.2670  0.1735
  132OSM   C16F14291  -0.479   3.608   8.230  0.1587 -0.1009  0.8813
  132OSM   H16F14292  -0.495   3.499   8.211 -1.3265  0.1770  0.3724
  132OSM   H16G14293  -0.524   3.624   8.330  2.6594 -0.7637  2.2125
  132OSM   C17F14294  -0.331   3.630   8.257  0.0946 -0.2174 -0.2002
  132OSM   H17F14295  -0.310   3.737   8.275  0.7664 -0.7171  2.3803
  132OSM   H17G14296  -0.284   3.589   8.165  0.4838 -2.0994  0.7762
  132OSM   C18F14297  -0.282   3.557   8.379  0.0926 -0.0800  0.3460
  132OSM   H18F14298  -0.178   3.592   8.398  0.3283  0.8632 -2.2775
  132OSM   H18G14299  -0.304   3.449   8.361 -1.3839 -0.0745  1.9234
  132OSM   H18H14300  -0.339   3.570   8.473  0.6931  0.7966  0.6023
  133SAPE     N14301   6.302   0.456  11.182  0.3153  0.6441 -0.0090
  133SAPE   HN114302   6.272   0.368  11.135  2.6637 -0.3058  0.1278
  133SAPE   HN214303   6.271   0.456  11.281  1.0035 -0.2640  0.2284
  133SAPE   HN314304   6.263   0.533  11.123  0.1937 -0.2067 -1.0749
  133SAPE   C1214305   6.453   0.471  11.167  0.3200 -0.5651 -0.2838
  133SAPE  H12A14306   6.497   0.375  11.201  1.4709 -0.2769 -0.9270
  133SAPE  H12B14307   6.465   0.563  11.227 -0.9378  0.1841 -1.1306
  133SAPE   C1114308   6.503   0.506  11.030  0.0252 -0.4210  0.5995
  133SAPE  H11A14309   6.496   0.410  10.976 -0.1668  0.9901 -2.0475
  133SAPE  H11B14310   6.611   0.533  11.025 -0.1727  0.1652 -3.4960
  133SAPE     P14311   6.475   0.723  10.891 -0.0926  0.2507  0.2951
  133SAPE   O1314312   6.499   0.843  10.971 -0.3670  0.3904 -0.4159
  133SAPE   O1414313   6.583   0.680  10.803  0.4287 -0.4246  0.0582
  133SAPE   O1214314   6.420   0.605  10.983  0.2830  0.0342  0.1316
  133SAPE   O1114315   6.355   0.758  10.794 -0.1191 -0.5706  0.1306
  133SAPE    C114316   6.289   0.654  10.720  0.1765  0.2826 -0.1227
  133SAPE    HA14317   6.279   0.565  10.785  5.1165  1.4351  2.6921
  133SAPE    HB14318   6.185   0.686  10.699  0.2597  0.2990 -0.5175
  133SAPE    C214319   6.359   0.646  10.584 -0.8162 -0.1705 -0.1884
  133SAPE    HS14320   6.462   0.611  10.608 -0.6239  1.5844  1.8484
  133SAPE   O2114321   6.363   0.781  10.522  0.1748  0.3342  0.4890
  133SAPE   C2114322   6.466   0.803  10.448  0.0134 -0.2002 -0.2570
  133SAPE   O2214323   6.545   0.715  10.409 -0.2304 -0.1769  0.1454
  133SAPE   C2214324   6.473   0.952  10.398 -0.4471  0.7118 -0.0457
  133SAPE   H2R14325   6.513   1.018  10.479  1.7520  0.6746 -1.0202
  133SAPE   H2S14326   6.561   0.942  10.331 -0.6651  0.0874 -0.2377
  133SAPE    C314327   6.282   0.544  10.497  0.0608  0.3162 -0.4637
  133SAPE    HX14328   6.179   0.584  10.485  0.6103  1.7841 -0.4979
  133SAPE    HY14329   6.296   0.447  10.550  0.5655  0.8761  0.4558
  133SAPE   O3114330   6.339   0.535  10.361 -0.4543  0.1213  0.1417
  133SAPE   C3114331   6.448   0.459  10.343  0.9882  0.7228  0.4070
  133SAPE   O3214332   6.493   0.392  10.432 -0.0310 -0.2441  0.1936
  133SAPE   C3214333   6.497   0.457  10.197 -0.2318 -0.2793  0.6614
  133SAPE   H2X14334   6.593   0.511  10.206  0.1825 -0.9848  0.5761
  133SAPE   H2Y14335   6.415   0.509  10.142 -1.4115 -0.4953  2.1383
  133SAPE   C2314336   6.349   1.003  10.324  0.3790 -0.3920  0.0699
  133SAPE   H3R14337   6.267   0.999  10.398 -0.3689  0.6313 -0.6690
  133SAPE   H3S14338   6.309   0.952  10.235  1.5468  0.9391 -1.2867
  133SAPE   C2414339   6.363   1.152  10.286 -0.1548 -0.8461  0.3756
  133SAPE   H4R14340   6.408   1.147  10.185 -2.4753  0.1406 -0.7922
  133SAPE   H4S14341   6.431   1.198  10.361  0.2971 -0.2672 -0.3770
  133SAPE   C2514342   6.232   1.234  10.280  0.5278  0.7104  0.5716
  133SAPE   H5R14343   6.216   1.300  10.366 -1.6543 -0.1197  0.8684
  133SAPE   C2614344   6.144   1.243  10.179 -0.7382  0.7240 -0.1096
  133SAPE   H6R14345   6.052   1.298  10.205 -1.5376 -0.3123 -0.6570
  133SAPE   C2714346   6.155   1.177  10.043 -0.4135 -0.5566 -0.0843
  133SAPE   H7R14347   6.234   1.099  10.036 -0.4228 -0.7284  1.3046
  133SAPE   H7S14348   6.187   1.262   9.978 -1.2039 -0.1662  0.0250
  133SAPE   C2814349   6.019   1.117   9.992 -0.4171 -0.0621 -0.7631
  133SAPE   H8R14350   5.941   1.106  10.069  0.9482  0.6864  0.7878
  133SAPE   C2914351   5.989   1.099   9.863  0.6051  0.4432 -0.1307
  133SAPE   H9R14352   5.889   1.055   9.849  0.2275  1.1623  0.2714
  133SAPE  C21014353   6.075   1.109   9.738  0.2482 -0.2509  0.9187
  133SAPE  H10R14354   6.060   1.012   9.686  0.6379  1.3531 -2.4940
  133SAPE  H10S14355   6.180   1.116   9.775  0.3504  2.1079  0.3652
  133SAPE  C21114356   6.035   1.223   9.648 -0.0394  0.0854  0.1062
  133SAPE  H11R14357   6.011   1.314   9.705 -2.5105 -0.9117  0.7865
  133SAPE  C21214358   6.039   1.224   9.512 -0.3346 -0.5705 -0.6984
  133SAPE  H12R14359   6.013   1.313   9.453  1.6951  0.5887  0.0495
  133SAPE  C21314360   6.070   1.104   9.426 -0.6939  0.3122 -0.1343
  133SAPE  H13R14361   6.138   1.028   9.470  1.1056  1.9496  0.0839
  133SAPE  H13S14362   6.119   1.135   9.331  0.4420 -1.6999 -0.2569
  133SAPE  C21414363   5.950   1.022   9.399  0.2111  0.5598  0.1898
  133SAPE  H14R14364   5.892   1.014   9.493 -1.2281  0.2629 -0.6880
  133SAPE  C21514365   5.903   0.972   9.274 -0.4603 -0.9494  0.2095
  133SAPE  H15R14366   5.820   0.900   9.272  0.3180 -1.8652  0.2752
  133SAPE  C21614367   5.977   0.991   9.147 -1.3524  0.5895  0.5181
  133SAPE  H16R14368   6.085   0.966   9.156 -1.3662  0.5165  0.4849
  133SAPE  H16S14369   5.981   1.099   9.122  1.9618  0.4041 -0.2850
  133SAPE  C21714370   5.919   0.915   9.026  0.1811 -0.9145 -0.5023
  133SAPE  H17R14371   5.810   0.895   9.041  0.3702 -1.5902  0.0225
  133SAPE  H17S14372   5.967   0.816   9.019  3.1231  0.3290  0.6803
  133SAPE  C21814373   5.940   0.967   8.885  0.4788  0.4011  0.9447
  133SAPE  H18R14374   5.864   1.029   8.834  1.1042  0.2695 -0.1842
  133SAPE  H18S14375   5.917   0.879   8.821 -1.8207  2.9898 -2.1111
  133SAPE  C21914376   6.087   1.014   8.860  0.6728  0.3895 -1.0581
  133SAPE  H19R14377   6.153   0.925   8.872 -0.1385 -0.5201 -2.9112
  133SAPE  H19S14378   6.111   1.092   8.936  2.9632 -0.0184 -1.2940
  133SAPE  C22014379   6.095   1.076   8.721  0.3940  0.7225 -0.8874
  133SAPE  H20R14380   6.204   1.095   8.716  0.7437 -0.6613  0.5838
  133SAPE  H20S14381   6.042   1.174   8.722  0.3244  0.8482  3.4148
  133SAPE  H20T14382   6.063   1.003   8.644  0.2267 -0.2989  0.1132
  133SAPE   C3314383   6.542   0.324  10.138  0.3991 -0.0850 -0.1533
  133SAPE   H3X14384   6.456   0.254  10.127  0.8138 -0.6263  0.0230
  133SAPE   H3Y14385   6.614   0.277  10.209  2.6461  2.4283 -0.6191
  133SAPE   C3414386   6.615   0.327  10.001 -0.5480 -0.7056 -0.7262
  133SAPE   H4X14387   6.645   0.225   9.970 -1.4066 -0.9629 -0.7411
  133SAPE   H4Y14388   6.710   0.382  10.020 -1.6013  0.7498  0.5471
  133SAPE   C3514389   6.539   0.405   9.899  0.0684  0.6436 -0.9356
  133SAPE   H5X14390   6.541   0.512   9.927  0.1658  0.1585  1.0922
  133SAPE   H5Y14391   6.431   0.382   9.906  0.0218  1.0880 -0.1136
  133SAPE   C3614392   6.589   0.381   9.759 -0.0513 -0.2498 -0.3661
  133SAPE   H6X14393   6.538   0.449   9.687 -2.1372 -0.9799  0.3356
  133SAPE   H6Y14394   6.579   0.273   9.736  1.4833 -0.1609 -1.5916
  133SAPE   C3714395   6.736   0.421   9.740  0.4299  0.4190  0.3407
  133SAPE   H7X14396   6.792   0.358   9.813 -3.0801 -1.8891  1.3142
  133SAPE   H7Y14397   6.731   0.530   9.759  1.5789  0.3621  1.1283
  133SAPE   C3814398   6.799   0.403   9.599 -0.4921  0.0922 -0.6841
  133SAPE   H8X14399   6.830   0.297   9.590  0.0145  0.1260  0.4704
  133SAPE   H8Y14400   6.898   0.452   9.588 -1.1184  0.9483 -3.2114
  133SAPE   C3914401   6.712   0.450   9.486  0.5686 -0.2261  0.4051
  133SAPE   H9X14402   6.683   0.556   9.500  0.2433 -0.0657 -1.2674
  133SAPE   H9Y14403   6.622   0.387   9.472  0.4827  0.3950 -2.6206
  133SAPE  C31014404   6.795   0.449   9.350  0.0212  0.0672  0.3890
  133SAPE  H10X14405   6.813   0.346   9.312  0.1660  0.1696  0.1810
  133SAPE  H10Y14406   6.888   0.509   9.357 -0.8438  1.8969 -2.3077
  133SAPE  C31114407   6.714   0.513   9.237 -0.4125 -0.8233  0.4926
  133SAPE  H11X14408   6.681   0.613   9.274  1.6936 -0.0421  0.4412
  133SAPE  H11Y14409   6.621   0.453   9.232 -1.7660  0.8725  2.8499
  133SAPE  C31214410   6.797   0.508   9.103  0.1175 -0.4228 -0.0184
  133SAPE  H12X14411   6.837   0.407   9.079  2.3767  0.3700  0.1867
  133SAPE  H12Y14412   6.879   0.582   9.091 -0.8632  0.7236  0.1155
  133SAPE  C31314413   6.706   0.537   8.989  0.4837  1.0218 -0.3786
  133SAPE  H13X14414   6.661   0.638   9.000 -0.0543  0.7793 -0.3364
  133SAPE  H13Y14415   6.622   0.465   8.999  0.6259  1.0332  1.3473
  133SAPE  C31414416   6.777   0.526   8.856 -0.1657 -0.0571  0.6339
  133SAPE  H14X14417   6.863   0.459   8.878 -0.3256 -0.1408  1.0127
  133SAPE  H14Y14418   6.833   0.617   8.826  3.6203 -2.3742  0.0496
  133SAPE  C31514419   6.691   0.477   8.739 -0.1212 -0.6547 -0.1090
  133SAPE  H15X14420   6.618   0.555   8.710 -1.0568 -0.6733  2.0105
  133SAPE  H15Y14421   6.635   0.387   8.772 -0.0453 -1.4109 -1.9132
  133SAPE  C31614422   6.756   0.424   8.615  0.0536 -0.0983  0.5491
  133SAPE  H16X14423   6.785   0.319   8.639 -1.2933 -1.3825 -2.8370
  133SAPE  H16Y14424   6.850   0.475   8.586  0.6794 -1.3873  0.2349
  133SAPE  C31714425   6.655   0.426   8.499 -0.1205  0.4857  1.0791
  133SAPE  H17X14426   6.717   0.377   8.421  0.0993 -0.1104  1.6166
  133SAPE  H17Y14427   6.622   0.526   8.464 -3.2954 -0.0259  2.2505
  133SAPE  C31814428   6.532   0.334   8.511  0.1703 -0.0010 -0.5083
  133SAPE  H18X14429   6.447   0.402   8.532  1.5443  1.7243 -0.3440
  133SAPE  H18Y14430   6.549   0.252   8.585 -1.8998 -0.7648 -0.8267
  133SAPE  H18Z14431   6.511   0.284   8.414  2.2358 -1.2662 -0.3663
  134SAPE     N14432   3.594   2.049  10.700 -0.3124 -0.3469  0.0573
  134SAPE   HN114433   3.650   2.072  10.616  0.8022  3.3703  1.6269
  134SAPE   HN214434   3.503   2.003  10.677  0.8905 -1.9722 -1.7341
  134SAPE   HN314435   3.580   2.145  10.737 -0.5466  0.4228 -1.9230
  134SAPE   C1214436   3.665   1.956  10.800 -0.1036 -0.3494 -0.1783
  134SAPE  H12A14437   3.586   1.934  10.875  0.2367 -1.1545 -0.0453
  134SAPE  H12B14438   3.750   2.018  10.835 -0.2961  0.8426 -1.7110
  134SAPE   C1114439   3.710   1.821  10.737 -0.0514 -0.0639  0.1683
  134SAPE  H11A14440   3.735   1.754  10.821 -0.6209 -0.4815  0.0103
  134SAPE  H11B14441   3.793   1.840  10.666 -0.1138 -1.7049 -0.3834
  134SAPE     P14442   3.585   1.599  10.642 -0.0516  0.0691  0.0408
  134SAPE   O1314443   3.711   1.547  10.584 -0.6791 -0.4845 -1.0764
  134SAPE   O1414444   3.545   1.522  10.767 -0.1412  0.3075  0.2893
  134SAPE   O1214445   3.600   1.755  10.672 -0.0887  0.3002 -0.4360
  134SAPE   O1114446   3.468   1.587  10.536  0.3218  0.2173 -0.1705
  134SAPE    C114447   3.382   1.696  10.502 -0.2047 -0.1510  0.3566
  134SAPE    HA14448   3.276   1.670  10.484 -0.3246  1.6042 -1.9492
  134SAPE    HB14449   3.370   1.772  10.581 -1.5524 -0.0387  0.0692
  134SAPE    C214450   3.422   1.761  10.366  0.6171  0.4453  0.4579
  134SAPE    HS14451   3.387   1.707  10.276  1.9977 -0.0367  0.1877
  134SAPE   O2114452   3.565   1.767  10.351  0.7042 -0.5287  0.4326
  134SAPE   C2114453   3.618   1.661  10.289  0.0011  0.4219 -0.7215
  134SAPE   O2214454   3.557   1.560  10.242 -0.2527 -0.7059  0.0413
  134SAPE   C2214455   3.774   1.690  10.285  0.3067 -0.1435  0.5072
  134SAPE   H2R14456   3.796   1.786  10.233  2.7533  0.2404  2.1050
  134SAPE   H2S14457   3.800   1.727  10.387 -1.1701  1.1765  0.4473
  134SAPE    C314458   3.368   1.909  10.357 -0.1353 -0.7511  0.5602
  134SAPE    HX14459   3.446   1.966  10.412 -2.9564  0.8564  3.2334
  134SAPE    HY14460   3.274   1.930  10.411 -1.3541  0.5761 -1.9043
  134SAPE   O3114461   3.365   1.963  10.220 -0.0451 -0.2787 -0.2550
  134SAPE   C3114462   3.277   1.907  10.144  0.4727  0.5800 -0.1157
  134SAPE   O3214463   3.198   1.823  10.180 -0.1735  0.1899 -0.0959
  134SAPE   C3214464   3.298   1.944   9.996 -0.0968  0.3267  0.4246
  134SAPE   H2X14465   3.406   1.952   9.975 -0.3694 -1.1450 -1.9320
  134SAPE   H2Y14466   3.242   2.040   9.993 -0.5319  0.0690  0.2714
  134SAPE   C2314467   3.868   1.581  10.228 -0.3085  0.1393 -0.0194
  134SAPE   H3R14468   3.844   1.544  10.126 -1.2518  1.3290 -0.2488
  134SAPE   H3S14469   3.861   1.498  10.302  1.6314 -1.5540 -1.6356
  134SAPE   C2414470   4.016   1.614  10.238 -0.6675  0.2677 -0.2650
  134SAPE   H4R14471   4.030   1.643  10.344 -1.0039  0.6013 -0.3086
  134SAPE   H4S14472   4.037   1.707  10.181  2.3358  1.7001  2.8079
  134SAPE   C2514473   4.108   1.503  10.188 -0.5727  0.1772  0.7772
  134SAPE   H5R14474   4.104   1.408  10.243  0.7767 -0.7336 -0.5991
  134SAPE   C2614475   4.155   1.506  10.061 -0.1358 -0.1210 -0.4950
  134SAPE   H6R14476   4.220   1.423  10.032  0.0282 -0.5119  0.9428
  134SAPE   C2714477   4.140   1.614   9.957 -0.1813  0.2714 -0.6794
  134SAPE   H7R14478   4.209   1.700   9.970 -0.6788  0.6399 -0.4242
  134SAPE   H7S14479   4.038   1.657   9.961 -0.7202 -1.0424  0.8475
  134SAPE   C2814480   4.178   1.571   9.818  0.3475 -0.3719  0.5702
  134SAPE   H8R14481   4.284   1.548   9.800 -0.0561 -1.8782  0.0408
  134SAPE   C2914482   4.098   1.534   9.716 -0.3365  0.4054 -0.0327
  134SAPE   H9R14483   4.128   1.480   9.625  1.3482 -0.2016  0.8272
  134SAPE  C21014484   3.950   1.540   9.731  0.3141 -0.2312  0.1753
  134SAPE  H10R14485   3.914   1.630   9.784 -0.7390 -0.2416 -0.4951
  134SAPE  H10S14486   3.912   1.454   9.790 -0.7911 -0.9289 -1.4741
  134SAPE  C21114487   3.882   1.528   9.597  0.3643 -0.3878 -0.9201
  134SAPE  H11R14488   3.847   1.627   9.564 -0.1705 -0.7081 -1.3397
  134SAPE  C21214489   3.855   1.431   9.509 -1.3536  0.7129 -0.3618
  134SAPE  H12R14490   3.819   1.458   9.409  2.1169  0.4617 -1.8351
  134SAPE  C21314491   3.907   1.288   9.532 -0.0771  0.6869  0.5931
  134SAPE  H13R14492   3.899   1.261   9.639  1.2242  1.5395  0.9307
  134SAPE  H13S14493   4.015   1.273   9.510 -0.0796  1.3931  0.0385
  134SAPE  C21414494   3.825   1.183   9.460  0.4078 -0.2212  0.5437
  134SAPE  H14R14495   3.728   1.158   9.507  0.4247 -0.2299  0.5731
  134SAPE  C21514496   3.846   1.134   9.332  0.7535 -0.4758  0.1298
  134SAPE  H15R14497   3.779   1.054   9.300  1.1649 -0.5959 -0.4398
  134SAPE  C21614498   3.950   1.168   9.233 -0.7872  0.1098  0.0590
  134SAPE  H16R14499   4.037   1.217   9.281 -0.4801 -1.1505  0.8381
  134SAPE  H16S14500   3.893   1.245   9.176 -1.2331 -0.8203 -0.7851
  134SAPE  C21714501   3.995   1.052   9.150 -0.5156  0.1147  0.3207
  134SAPE  H17R14502   4.001   0.953   9.200 -0.2400 -0.3318 -0.5624
  134SAPE  H17S14503   4.103   1.071   9.133 -0.6641  1.1828  0.4780
  134SAPE  C21814504   3.930   1.053   9.012 -0.1885  0.2098 -0.4799
  134SAPE  H18R14505   3.938   1.152   8.964 -0.0244  0.8765  0.8600
  134SAPE  H18S14506   3.821   1.041   9.030 -0.3067  0.5412 -0.9742
  134SAPE  C21914507   3.974   0.947   8.907  0.1617  0.7328 -0.7368
  134SAPE  H19R14508   4.083   0.933   8.892  0.2007  1.7084 -1.4482
  134SAPE  H19S14509   3.944   0.988   8.808 -2.9161  1.2231  0.3129
  134SAPE  C22014510   3.901   0.810   8.923 -0.7617  0.6349 -0.2849
  134SAPE  H20R14511   3.791   0.827   8.923 -1.6044 -3.6634 -0.2165
  134SAPE  H20S14512   3.921   0.766   9.023  0.2472 -0.5854 -1.0076
  134SAPE  H20T14513   3.931   0.737   8.845  1.9069 -0.8966  1.9785
  134SAPE   C3314514   3.240   1.840   9.902 -0.1239 -0.8852 -0.4480
  134SAPE   H3X14515   3.131   1.827   9.921 -0.2143 -1.4156 -1.2605
  134SAPE   H3Y14516   3.295   1.746   9.923 -0.0343 -0.1976  2.8988
  134SAPE   C3414517   3.255   1.872   9.753 -0.1883 -0.3094 -0.4693
  134SAPE   H4X14518   3.352   1.923   9.737  0.1902 -1.4105 -1.9192
  134SAPE   H4Y14519   3.173   1.935   9.713  2.3576  1.2019 -3.8469
  134SAPE   C3514520   3.259   1.745   9.663 -0.3673  0.4445  0.0757
  134SAPE   H5X14521   3.155   1.710   9.647 -0.0015 -1.5713  1.7987
  134SAPE   H5Y14522   3.316   1.661   9.707 -0.1214  0.0115 -1.0407
  134SAPE   C3614523   3.325   1.753   9.525 -0.0016 -0.1796  0.2926
  134SAPE   H6X14524   3.410   1.682   9.515  2.4480  2.6880 -1.0499
  134SAPE   H6Y14525   3.377   1.849   9.505 -1.2236  0.3415 -0.5221
  134SAPE   C3714526   3.223   1.727   9.415  0.2359  0.6952 -0.1504
  134SAPE   H7X14527   3.269   1.750   9.317 -0.2183  2.6645  0.0595
  134SAPE   H7Y14528   3.139   1.797   9.435 -1.2580 -0.7593 -1.1000
  134SAPE   C3814529   3.156   1.590   9.403  0.0110 -0.2816  0.1121
  134SAPE   H8X14530   3.059   1.600   9.350 -0.8195  1.9037  1.8898
  134SAPE   H8Y14531   3.135   1.541   9.501  0.9022 -0.9747 -0.0348
  134SAPE   C3914532   3.242   1.482   9.337  0.1730  0.1945  0.4292
  134SAPE   H9X14533   3.248   1.512   9.230 -0.9443 -1.4311 -0.1395
  134SAPE   H9Y14534   3.184   1.388   9.349  2.3729 -1.2147  0.6871
  134SAPE  C31014535   3.382   1.463   9.392 -0.2869 -0.3421 -0.1075
  134SAPE  H10X14536   3.358   1.464   9.501 -1.1078 -2.1249 -0.2271
  134SAPE  H10Y14537   3.447   1.549   9.363  0.7988 -1.0766  0.1015
  134SAPE  C31114538   3.453   1.330   9.350 -0.3098  0.2062 -0.7573
  134SAPE  H11X14539   3.377   1.253   9.324 -0.9337  0.0082  1.4458
  134SAPE  H11Y14540   3.503   1.291   9.441 -1.5192  0.3522  0.0037
  134SAPE  C31214541   3.554   1.351   9.240  0.2268 -0.2841  0.0793
  134SAPE  H12X14542   3.627   1.268   9.230  0.0661 -0.1471 -4.4871
  134SAPE  H12Y14543   3.614   1.442   9.261  1.3197 -0.8520 -0.5054
  134SAPE  C31314544   3.497   1.364   9.096  0.6608  0.0452  0.1131
  134SAPE  H13X14545   3.461   1.464   9.063 -1.7797  0.1768  2.7991
  134SAPE  H13Y14546   3.412   1.293   9.083  1.6881 -1.4668  1.2118
  134SAPE  C31414547   3.607   1.332   8.988  0.1722 -0.0940 -0.0256
  134SAPE  H14X14548   3.554   1.291   8.899 -2.7519  2.2718  0.4591
  134SAPE  H14Y14549   3.663   1.244   9.026  1.4672  1.2160  1.2588
  134SAPE  C31514550   3.709   1.437   8.951  0.1771 -0.2794 -0.3616
  134SAPE  H15X14551   3.774   1.449   9.039  0.4489  0.3927 -0.6485
  134SAPE  H15Y14552   3.670   1.538   8.925  0.5427 -0.6752 -2.6443
  134SAPE  C31614553   3.781   1.404   8.821 -0.0264 -0.4933 -0.2450
  134SAPE  H16X14554   3.706   1.384   8.741 -1.3625 -0.6885  1.0297
  134SAPE  H16Y14555   3.831   1.305   8.829  0.0007 -0.4699 -0.1363
  134SAPE  C31714556   3.882   1.510   8.772 -0.9668 -0.0633 -0.1253
  134SAPE  H17X14557   3.957   1.523   8.853 -0.2196 -0.8510 -0.6735
  134SAPE  H17Y14558   3.839   1.610   8.755  0.5228  0.2130 -2.8169
  134SAPE  C31814559   3.946   1.481   8.636  0.2689  0.4096  0.0229
  134SAPE  H18X14560   4.047   1.525   8.623  0.5883 -0.6247 -1.2859
  134SAPE  H18Y14561   3.890   1.533   8.555  1.0532 -1.0812 -1.5429
  134SAPE  H18Z14562   3.948   1.373   8.611  1.7323 -0.3315  2.9085
  135SAPE     N14563   1.966   1.192  10.400 -0.5795 -0.3260  0.0787
  135SAPE   HN114564   2.005   1.284  10.370 -0.6785 -0.5295 -0.7076
  135SAPE   HN214565   2.036   1.118  10.381 -2.0653 -1.2442 -2.2054
  135SAPE   HN314566   1.890   1.176  10.330  0.8285 -2.4733 -1.0854
  135SAPE   C1214567   1.925   1.205  10.547  0.5153  0.7083 -0.1535
  135SAPE  H12A14568   1.840   1.277  10.549  0.3383  0.4884  0.5844
  135SAPE  H12B14569   2.004   1.256  10.607  0.7955  0.7937 -0.5945
  135SAPE   C1114570   1.861   1.077  10.601  0.0997 -0.3802 -0.2267
  135SAPE  H11A14571   1.766   1.053  10.548 -0.4979  0.0090  0.6368
  135SAPE  H11B14572   1.831   1.109  10.703 -0.0552  0.5313 -0.5519
  135SAPE     P14573   1.955   0.846  10.684 -0.3754  0.0546  0.3006
  135SAPE   O1314574   2.019   0.871  10.813  0.5176 -0.1082  0.1637
  135SAPE   O1414575   1.812   0.815  10.695  0.4032  0.5787  0.4214
  135SAPE   O1214576   1.966   0.974  10.591  0.3505 -0.0637 -0.1137
  135SAPE   O1114577   2.018   0.734  10.602  0.3602 -0.3201 -0.7036
  135SAPE    C114578   2.050   0.741  10.462  0.4135 -0.8290  0.1901
  135SAPE    HA14579   2.016   0.649  10.409 -0.8522  0.5785 -1.6085
  135SAPE    HB14580   1.991   0.823  10.415 -0.1197 -0.6932  1.0690
  135SAPE    C214581   2.203   0.763  10.434  0.7922 -0.1906 -0.5971
  135SAPE    HS14582   2.230   0.856  10.487 -2.3086  1.2649 -1.3457
  135SAPE   O2114583   2.219   0.773  10.293  0.1240  0.7404  0.4363
  135SAPE   C2114584   2.184   0.897  10.243  0.5697  0.2671  0.3571
  135SAPE   O2214585   2.133   0.989  10.309  0.4603 -0.2426  0.3178
  135SAPE   C2214586   2.218   0.897  10.095 -0.3899 -0.4637 -1.0065
  135SAPE   H2R14587   2.237   1.004  10.071  0.8282 -0.4473 -0.0745
  135SAPE   H2S14588   2.315   0.845  10.077 -0.7163 -0.7974 -1.8418
  135SAPE    C314589   2.294   0.654  10.493 -0.5704  0.6897  0.2521
  135SAPE    HX14590   2.289   0.655  10.604 -1.8390  0.2700  0.2118
  135SAPE    HY14591   2.400   0.683  10.477  0.0827 -1.7344 -0.2308
  135SAPE   O3114592   2.273   0.520  10.442 -0.6394 -0.2589  0.7040
  135SAPE   C3114593   2.353   0.438  10.503  0.4676 -0.4629 -0.0882
  135SAPE   O3214594   2.447   0.471  10.573 -0.0763  0.1588  0.2457
  135SAPE   C3214595   2.306   0.298  10.472  0.4283  0.8119 -0.4953
  135SAPE   H2X14596   2.252   0.289  10.376 -0.5695 -0.4567  0.1528
  135SAPE   H2Y14597   2.247   0.256  10.556 -0.0752 -1.9859 -2.1057
  135SAPE   C2314598   2.104   0.854  10.006  0.3255 -0.7369 -0.4774
  135SAPE   H3R14599   2.082   0.745  10.013 -2.3848 -0.1547  1.9845
  135SAPE   H3S14600   2.140   0.870   9.902 -1.7875  0.8712 -1.0384
  135SAPE   C2414601   1.966   0.930  10.029 -0.1461  0.3477  0.0776
  135SAPE   H4R14602   1.940   0.894  10.131 -1.0640  0.9487  0.0691
  135SAPE   H4S14603   1.886   0.895   9.961  0.9155  2.8220 -2.6620
  135SAPE   C2514604   1.973   1.073  10.023 -0.5479  0.9124  0.6003
  135SAPE   H5R14605   1.970   1.116  10.124  0.2665  1.8461  0.2390
  135SAPE   C2614606   1.991   1.141   9.913  0.9262  0.7287  0.5329
  135SAPE   H6R14607   1.986   1.251   9.914 -0.9485  0.7483 -1.7125
  135SAPE   C2714608   2.008   1.072   9.777  0.0207  0.3643  0.8131
  135SAPE   H7R14609   1.920   1.090   9.711 -0.4210  1.4303  1.6558
  135SAPE   H7S14610   2.012   0.961   9.780  2.2601  0.3511 -0.3898
  135SAPE   C2814611   2.137   1.112   9.708  0.5557 -0.0892  0.0998
  135SAPE   H8R14612   2.195   1.190   9.759 -0.2036 -1.7001  3.6910
  135SAPE   C2914613   2.189   1.040   9.603  0.1813 -1.0234  0.1903
  135SAPE   H9R14614   2.288   1.075   9.569  1.7265 -3.0082  2.2517
  135SAPE  C21014615   2.136   0.918   9.532 -0.0991  0.1713  0.1080
  135SAPE  H10R14616   2.025   0.920   9.523 -0.4099 -2.4774  1.9414
  135SAPE  H10S14617   2.139   0.831   9.602 -0.4609 -0.0662 -0.1687
  135SAPE  C21114618   2.195   0.889   9.397  0.1523  0.6214 -0.1547
  135SAPE  H11R14619   2.199   0.976   9.329  1.7331 -1.1859 -2.5521
  135SAPE  C21214620   2.250   0.777   9.346  0.2145 -0.3576 -0.0944
  135SAPE  H12R14621   2.291   0.787   9.245  2.1818 -0.1904  0.6695
  135SAPE  C21314622   2.273   0.647   9.431  0.4154  0.0416 -0.0478
  135SAPE  H13R14623   2.259   0.670   9.539 -0.3001  0.3409 -0.1959
  135SAPE  H13S14624   2.375   0.607   9.415 -0.0253 -1.2562  0.1955
  135SAPE  C21414625   2.165   0.539   9.420  0.2310  0.2847  0.2285
  135SAPE  H14R14626   2.102   0.540   9.330 -0.3184 -2.5914  0.4833
  135SAPE  C21514627   2.153   0.424   9.491 -0.3133  0.2510  0.1720
  135SAPE  H15R14628   2.062   0.364   9.477 -1.0571  1.3835  0.0956
  135SAPE  C21614629   2.237   0.375   9.607 -0.4584 -0.7560 -0.1923
  135SAPE  H16R14630   2.347   0.380   9.593 -0.3500 -1.6146  0.2964
  135SAPE  H16S14631   2.209   0.269   9.628  0.4141 -1.1467 -0.9146
  135SAPE  C21714632   2.195   0.441   9.736 -0.4443  0.0078  0.3904
  135SAPE  H17R14633   2.086   0.422   9.751 -1.2926  1.4655 -2.8519
  135SAPE  H17S14634   2.216   0.550   9.737 -0.1806  0.0010 -1.1767
  135SAPE  C21814635   2.261   0.372   9.858  0.1303 -0.5751  0.1578
  135SAPE  H18R14636   2.366   0.355   9.826  0.0723 -2.7182  0.9373
  135SAPE  H18S14637   2.205   0.277   9.870 -0.5055 -0.2828 -0.4377
  135SAPE  C21914638   2.270   0.439   9.997  0.0037 -0.0288  0.2876
  135SAPE  H19R14639   2.332   0.530   9.982  1.0171 -1.0361 -2.0635
  135SAPE  H19S14640   2.315   0.371  10.073 -1.2165  0.5772  1.6103
  135SAPE  C22014641   2.127   0.462  10.041  0.2696  0.3806 -0.0853
  135SAPE  H20R14642   2.052   0.381  10.022  1.2893 -0.1912 -1.9866
  135SAPE  H20S14643   2.079   0.551   9.994 -1.0282 -0.0658  0.3336
  135SAPE  H20T14644   2.126   0.472  10.151  1.1465  1.2325 -0.1509
  135SAPE   C3314645   2.434   0.203  10.470 -0.3023  0.6401  0.2581
  135SAPE   H3X14646   2.451   0.171  10.576 -0.4984  0.6004  0.2780
  135SAPE   H3Y14647   2.522   0.255  10.427  1.0047 -0.9802  0.8645
  135SAPE   C3414648   2.416   0.080  10.380 -0.0600  0.6161  0.3812
  135SAPE   H4X14649   2.316   0.036  10.401  0.1570 -0.9665 -1.5569
  135SAPE   H4Y14650   2.482  -0.000  10.419 -0.4547 -0.1071 -0.4052
  135SAPE   C3514651   2.440   0.109  10.237 -0.1464  0.3788  0.4367
  135SAPE   H5X14652   2.550   0.121  10.234 -0.2496  2.0820  2.0245
  135SAPE   H5Y14653   2.392   0.203  10.202  2.5459  1.6213 -0.2272
  135SAPE   C3614654   2.393   0.005  10.136  0.0903  0.1185 -0.2566
  135SAPE   H6X14655   2.285  -0.015  10.150  0.3658  0.5470  3.9305
  135SAPE   H6Y14656   2.451  -0.085  10.167 -0.5895  0.0832  0.9757
  135SAPE   C3714657   2.420   0.050   9.986  0.0252  0.0333 -0.3273
  135SAPE   H7X14658   2.532   0.048   9.985  0.0948 -2.7146  1.5708
  135SAPE   H7Y14659   2.383   0.154   9.985  1.1320  0.4477 -0.2212
  135SAPE   C3814660   2.340  -0.037   9.890 -0.7484 -0.2158  0.1516
  135SAPE   H8X14661   2.236  -0.014   9.920 -0.7105  0.4305 -0.1932
  135SAPE   H8Y14662   2.359  -0.144   9.908  1.2055  0.0942  0.1548
  135SAPE   C3914663   2.341   0.014   9.743  0.2620 -0.2159  0.2143
  135SAPE   H9X14664   2.444   0.043   9.711 -0.7847  2.4122 -1.1584
  135SAPE   H9Y14665   2.276   0.104   9.742  1.7590  0.9592  2.0687
  135SAPE  C31014666   2.301  -0.097   9.644  0.3958 -0.5584 -0.1838
  135SAPE  H10X14667   2.206  -0.143   9.679  0.4302 -0.2677  0.3085
  135SAPE  H10Y14668   2.382  -0.171   9.624  0.8948  0.0939 -0.6304
  135SAPE  C31114669   2.269  -0.042   9.512  0.1185  0.3524 -0.8447
  135SAPE  H11X14670   2.182   0.026   9.519  0.9850  1.5729 -1.5464
  135SAPE  H11Y14671   2.243  -0.133   9.453  1.9795 -1.3865  0.8740
  135SAPE  C31214672   2.389   0.024   9.431  0.5585 -0.4851 -0.5219
  135SAPE  H12X14673   2.484  -0.033   9.425  2.6853  2.8960 -2.6174
  135SAPE  H12Y14674   2.404   0.115   9.493 -1.3023 -1.3392  1.2650
  135SAPE  C31314675   2.336   0.068   9.290  0.2269  0.4386  0.8730
  135SAPE  H13X14676   2.410   0.123   9.228  1.2509 -2.3879 -0.6002
  135SAPE  H13Y14677   2.251   0.139   9.290  1.0658  1.4592  0.7008
  135SAPE  C31414678   2.285  -0.053   9.202 -0.5683  0.6306 -0.7640
  135SAPE  H14X14679   2.250  -0.019   9.102 -0.6609 -0.6824 -1.1961
  135SAPE  H14Y14680   2.196  -0.097   9.253  0.3612 -0.5144 -0.0861
  135SAPE  C31514681   2.379  -0.173   9.179  0.0606  0.3277  0.6874
  135SAPE  H15X14682   2.433  -0.194   9.274 -2.8748  0.4771  2.5039
  135SAPE  H15Y14683   2.445  -0.130   9.100  0.0134  0.0674  0.5072
  135SAPE  C31614684   2.322  -0.301   9.117 -0.3749 -0.1560  0.0560
  135SAPE  H16X14685   2.230  -0.338   9.168  0.2200 -0.4003  0.9662
  135SAPE  H16Y14686   2.402  -0.377   9.129  0.1792  0.2892 -0.7399
  135SAPE  C31714687   2.297  -0.283   8.965 -0.8845 -0.1023  0.2759
  135SAPE  H17X14688   2.322  -0.378   8.912  1.0980  1.0487 -1.0135
  135SAPE  H17Y14689   2.361  -0.200   8.928  1.5117 -2.2494 -0.7004
  135SAPE  C31814690   2.150  -0.245   8.926 -0.9950 -0.0996  0.0699
  135SAPE  H18X14691   2.145  -0.216   8.819 -1.9111 -1.7422 -0.3771
  135SAPE  H18Y14692   2.113  -0.165   8.994 -1.2074 -0.7939  0.7891
  135SAPE  H18Z14693   2.087  -0.336   8.936 -0.4102 -0.6377 -1.0097
  136SAPE     N14694   4.504   6.162  10.610  0.1713 -0.1766 -0.0697
  136SAPE   HN114695   4.542   6.197  10.700  1.8108  0.7139 -1.0630
  136SAPE   HN214696   4.586   6.126  10.557 -0.3960 -1.0886 -0.3595
  136SAPE   HN314697   4.466   6.245  10.560  1.3170  1.6523  1.9182
  136SAPE   C1214698   4.405   6.051  10.628 -0.4917  0.0804  0.0047
  136SAPE  H12A14699   4.374   6.013  10.528  0.2839  0.9333 -0.5699
  136SAPE  H12B14700   4.311   6.092  10.671 -1.6200 -1.6751 -0.6683
  136SAPE   C1114701   4.456   5.930  10.703  0.1393  1.2738  0.3504
  136SAPE  H11A14702   4.549   5.895  10.655 -0.1514 -0.9266  1.2697
  136SAPE  H11B14703   4.376   5.854  10.688  1.1101  0.6964 -2.3506
  136SAPE     P14704   4.631   5.947  10.903 -0.0103  0.1179 -0.4725
  136SAPE   O1314705   4.657   6.011  11.036  0.2833 -0.6340  0.0647
  136SAPE   O1414706   4.659   5.802  10.909  0.0294 -0.3607 -0.4223
  136SAPE   O1214707   4.483   5.967  10.841 -0.8607 -0.3132 -0.0005
  136SAPE   O1114708   4.728   6.011  10.797  0.1849 -0.1864  0.3057
  136SAPE    C114709   4.871   6.005  10.809  0.5997 -0.3926 -0.6129
  136SAPE    HA14710   4.906   6.045  10.906  1.2365 -1.8035 -0.2411
  136SAPE    HB14711   4.907   5.902  10.788  2.0919  0.4249 -2.3639
  136SAPE    C214712   4.936   6.079  10.689 -0.5699  0.5140  0.3739
  136SAPE    HS14713   4.876   6.171  10.671  0.5889  1.1383 -0.4190
  136SAPE   O2114714   4.943   5.995  10.577 -0.3073  0.9477  0.0445
  136SAPE   C2114715   4.844   6.008  10.491  0.0007  0.1481  1.0369
  136SAPE   O2214716   4.740   6.068  10.501 -0.0236  0.1927 -0.5957
  136SAPE   C2214717   4.874   5.919  10.375 -0.1807  0.4882  0.3358
  136SAPE   H2R14718   4.979   5.881  10.380  0.1560  1.0336 -1.7307
  136SAPE   H2S14719   4.804   5.833  10.385  1.5558 -1.0645 -0.1343
  136SAPE    C314720   5.083   6.142  10.712  0.2918  0.3953  0.1398
  136SAPE    HX14721   5.148   6.054  10.728  2.6694  1.4654 -2.7224
  136SAPE    HY14722   5.077   6.201  10.806  2.2880 -0.0034  0.5516
  136SAPE   O3114723   5.130   6.228  10.605  0.1485 -0.6119 -0.0384
  136SAPE   C3114724   5.262   6.233  10.580  0.2039  0.2980  0.9660
  136SAPE   O3214725   5.350   6.159  10.630  0.3958  0.2478 -0.4411
  136SAPE   C3214726   5.286   6.316  10.450  0.8002 -0.3865 -0.2690
  136SAPE   H2X14727   5.216   6.402  10.437  1.1434 -0.1474 -0.5537
  136SAPE   H2Y14728   5.243   6.242  10.379  0.6682 -1.7906  1.2212
  136SAPE   C2314729   4.850   5.992  10.242 -1.0701  0.3252  0.1635
  136SAPE   H3R14730   4.891   6.095  10.247  1.6948 -0.4698 -2.4543
  136SAPE   H3S14731   4.741   5.986  10.221 -0.7755 -0.4018 -1.2878
  136SAPE   C2414732   4.936   5.925  10.138  0.1472 -0.1651  0.1924
  136SAPE   H4R14733   5.039   5.956  10.166 -0.2035  1.4720 -0.2114
  136SAPE   H4S14734   4.935   5.969  10.035 -0.9580 -2.0138 -0.6354
  136SAPE   C2514735   4.938   5.775  10.123 -1.1362 -0.1439  0.3103
  136SAPE   H5R14736   5.008   5.722  10.188 -1.1235 -1.3670 -0.6663
  136SAPE   C2614737   4.875   5.702  10.032  0.0639  0.8367 -0.1637
  136SAPE   H6R14738   4.901   5.596  10.031 -0.1902  0.7730 -0.1267
  136SAPE   C2714739   4.778   5.736   9.918  0.5353  0.1179  0.6239
  136SAPE   H7R14740   4.739   5.839   9.932  1.3263  0.4140  0.7068
  136SAPE   H7S14741   4.688   5.671   9.910 -1.1891  2.6043 -4.8690
  136SAPE   C2814742   4.841   5.730   9.778 -0.0383 -0.1360 -0.0355
  136SAPE   H8R14743   4.908   5.817   9.771  0.3135 -0.4123 -0.1061
  136SAPE   C2914744   4.836   5.632   9.684 -0.4066  0.0230  0.2900
  136SAPE   H9R14745   4.888   5.648   9.588 -0.0253 -1.8086  0.1451
  136SAPE  C21014746   4.747   5.510   9.691 -0.6723 -0.2937  0.2432
  136SAPE  H10R14747   4.641   5.541   9.707 -0.2009  1.6009 -0.1300
  136SAPE  H10S14748   4.775   5.452   9.782 -0.8182 -0.4252  0.2051
  136SAPE  C21114749   4.761   5.411   9.586  0.3200  0.1862  0.2959
  136SAPE  H11R14750   4.857   5.358   9.581 -0.0595 -0.4344 -0.7842
  136SAPE  C21214751   4.662   5.378   9.495  0.4860  0.2614  0.6980
  136SAPE  H12R14752   4.682   5.297   9.423 -2.2277  1.2614 -1.3769
  136SAPE  C21314753   4.528   5.445   9.475  0.1379 -0.8727  0.3997
  136SAPE  H13R14754   4.461   5.428   9.562  0.6739  0.4543  1.1116
  136SAPE  H13S14755   4.485   5.391   9.388  1.6312  0.0386 -0.9663
  136SAPE  C21414756   4.524   5.595   9.442  0.1565  0.5533  0.2488
  136SAPE  H14R14757   4.489   5.652   9.529  0.7206 -0.0281  0.8774
  136SAPE  C21514758   4.570   5.645   9.329  0.6483  0.1285  0.2149
  136SAPE  H15R14759   4.581   5.755   9.330  0.1173  0.1830  0.9519
  136SAPE  C21614760   4.616   5.558   9.215  0.1930  0.4635 -0.4164
  136SAPE  H16R14761   4.611   5.451   9.244  0.8970  0.8527  1.3151
  136SAPE  H16S14762   4.727   5.567   9.212  0.5135 -0.0003  3.6817
  136SAPE  C21714763   4.542   5.584   9.082  0.3178  0.7858 -0.5059
  136SAPE  H17R14764   4.434   5.607   9.090 -0.2126 -1.1549 -1.3245
  136SAPE  H17S14765   4.553   5.493   9.019 -1.6844 -0.6128  1.0224
  136SAPE  C21814766   4.607   5.692   8.997 -0.2779  0.2817 -0.2584
  136SAPE  H18R14767   4.715   5.671   8.982  0.2549  3.1893 -1.2096
  136SAPE  H18S14768   4.599   5.783   9.060 -1.0006  0.3613 -0.4593
  136SAPE  C21914769   4.542   5.699   8.860  0.1656  0.3913  1.3938
  136SAPE  H19R14770   4.432   5.698   8.879  0.1326 -0.9991  1.2168
  136SAPE  H19S14771   4.572   5.607   8.805 -0.1476  1.0964 -0.0086
  136SAPE  C22014772   4.573   5.824   8.774 -0.3973 -0.6257  0.3206
  136SAPE  H20R14773   4.682   5.827   8.752 -0.7187 -0.1088 -1.3425
  136SAPE  H20S14774   4.550   5.919   8.827 -1.1705 -0.2426 -0.6785
  136SAPE  H20T14775   4.515   5.820   8.680  0.6207  0.8949 -0.4131
  136SAPE   C3314776   5.440   6.348  10.420  0.5208  0.4740  1.1526
  136SAPE   H3X14777   5.490   6.251  10.401  0.0201  0.8772 -3.3431
  136SAPE   H3Y14778   5.476   6.402  10.510 -0.3092  1.4392  0.9217
  136SAPE   C3414779   5.453   6.423  10.285 -0.5276  0.1403  1.2851
  136SAPE   H4X14780   5.416   6.527  10.296  1.4948  1.2916 -1.5182
  136SAPE   H4Y14781   5.394   6.373  10.206 -0.9996  1.0547  1.0533
  136SAPE   C3514782   5.593   6.448  10.225  0.0149  0.1102  0.1314
  136SAPE   H5X14783   5.645   6.351  10.240 -1.8672 -0.8883  0.4148
  136SAPE   H5Y14784   5.646   6.521  10.290  0.8146  0.9256 -1.3762
  136SAPE   C3614785   5.600   6.480  10.075 -0.1465  0.1650 -0.5088
  136SAPE   H6X14786   5.574   6.588  10.063 -0.7862  0.1432  0.5780
  136SAPE   H6Y14787   5.530   6.412  10.023 -1.7198 -0.0016  1.6932
  136SAPE   C3714788   5.744   6.472  10.024  0.5922 -0.5664  0.2386
  136SAPE   H7X14789   5.785   6.369  10.024  1.3394 -0.2785  1.1053
  136SAPE   H7Y14790   5.810   6.527  10.094 -0.2850 -0.4624  0.9970
  136SAPE   C3814791   5.770   6.545   9.890  0.2631  0.1750 -0.5302
  136SAPE   H8X14792   5.725   6.646   9.892 -2.8914 -1.0856 -1.4783
  136SAPE   H8Y14793   5.711   6.497   9.809  0.7650  2.4162 -2.3128
  136SAPE   C3914794   5.921   6.560   9.854 -0.4697  0.2094 -0.1426
  136SAPE   H9X14795   5.972   6.464   9.872 -0.6036 -0.1786 -1.7130
  136SAPE   H9Y14796   5.964   6.633   9.926  1.4003 -1.3235  0.3409
  136SAPE  C31014797   5.954   6.615   9.714 -0.2643  1.3175  0.3731
  136SAPE  H10X14798   5.925   6.718   9.685  1.7394  1.5192 -1.0762
  136SAPE  H10Y14799   5.900   6.555   9.637  2.9631 -1.1580 -0.2011
  136SAPE  C31114800   6.100   6.608   9.678 -0.1314  0.3749 -0.3321
  136SAPE  H11X14801   6.133   6.505   9.701  0.9682  0.9249  0.6663
  136SAPE  H11Y14802   6.158   6.681   9.738 -0.8004  0.2443  0.4844
  136SAPE  C31214803   6.129   6.630   9.530  0.2752 -0.9772  0.9025
  136SAPE  H12X14804   6.138   6.739   9.510 -0.1009 -0.7526  1.8766
  136SAPE  H12Y14805   6.044   6.590   9.471  0.3562 -0.6745  0.5750
  136SAPE  C31314806   6.252   6.547   9.491  0.7077  0.5841 -0.0073
  136SAPE  H13X14807   6.244   6.441   9.520 -0.0931  0.7610  0.4358
  136SAPE  H13Y14808   6.336   6.596   9.546 -0.3004 -1.4211  3.5853
  136SAPE  C31414809   6.278   6.551   9.340  0.1224  1.1491 -0.0813
  136SAPE  H14X14810   6.383   6.577   9.317  0.3031 -0.5341 -1.3792
  136SAPE  H14Y14811   6.203   6.612   9.284 -1.3878 -0.4076  0.1451
  136SAPE  C31514812   6.272   6.403   9.277 -0.1692 -0.5778 -0.2991
  136SAPE  H15X14813   6.165   6.374   9.279  0.2680 -2.5562 -2.2187
  136SAPE  H15Y14814   6.343   6.340   9.334  0.8817  1.0020  0.2034
  136SAPE  C31614815   6.316   6.396   9.131  0.3968  0.8806 -0.3640
  136SAPE  H16X14816   6.375   6.489   9.117  0.0458  0.7604 -3.2468
  136SAPE  H16Y14817   6.229   6.400   9.061  0.3062 -2.7953 -0.6771
  136SAPE  C31714818   6.397   6.283   9.090  0.0290  0.2790 -0.5588
  136SAPE  H17X14819   6.346   6.193   9.133  0.6701 -0.2960 -0.9773
  136SAPE  H17Y14820   6.492   6.283   9.146 -0.4682  1.2732  0.3256
  136SAPE  C31814821   6.419   6.282   8.944  0.0946  0.4158  0.2451
  136SAPE  H18X14822   6.480   6.198   8.906  0.3841  1.0947 -0.8501
  136SAPE  H18Y14823   6.483   6.370   8.921  0.8290  0.0803  0.9760
  136SAPE  H18Z14824   6.324   6.281   8.886 -0.5764 -1.0288  1.3225
  137SAPE     N14825   3.146   3.423  11.030 -0.1107 -0.3471  0.2341
  137SAPE   HN114826   3.152   3.373  11.122  1.7798  2.4189  1.7690
  137SAPE   HN214827   3.205   3.381  10.956  1.2550  1.1834  0.3988
  137SAPE   HN314828   3.188   3.516  11.050  0.9797 -0.6777 -0.4723
  137SAPE   C1214829   3.004   3.442  10.979  0.3510  0.5187 -0.1656
  137SAPE  H12A14830   2.948   3.498  11.056  1.4560  1.8523 -0.2873
  137SAPE  H12B14831   2.967   3.338  10.963  0.9515  0.1399  0.7681
  137SAPE   C1114832   3.008   3.521  10.853 -0.4647  0.6402  0.5079
  137SAPE  H11A14833   2.917   3.502  10.793  1.3573  0.0697 -2.2434
  137SAPE  H11B14834   3.089   3.493  10.783 -1.6453 -2.9397  0.3707
  137SAPE     P14835   3.121   3.753  10.871  0.6709  0.1532  0.3756
  137SAPE   O1314836   3.076   3.891  10.914 -0.0802 -0.0594  0.0902
  137SAPE   O1414837   3.234   3.683  10.932  0.3837 -0.1574 -0.8821
  137SAPE   O1214838   3.002   3.656  10.882 -0.1459 -0.1487 -0.0962
  137SAPE   O1114839   3.141   3.763  10.718 -0.0317 -0.6009 -0.0854
  137SAPE    C114840   3.266   3.785  10.657 -0.1247 -0.2479 -0.3256
  137SAPE    HA14841   3.278   3.887  10.615  0.7171 -0.7937 -1.4771
  137SAPE    HB14842   3.352   3.782  10.727 -0.5204  0.0766  0.1797
  137SAPE    C214843   3.293   3.687  10.538 -1.1109 -0.5281 -0.3747
  137SAPE    HS14844   3.392   3.714  10.497 -0.2514  1.2674  2.5591
  137SAPE   O2114845   3.203   3.715  10.435 -0.0315  0.1026 -0.1466
  137SAPE   C2114846   3.234   3.821  10.354 -0.6673  1.0618 -0.7738
  137SAPE   O2214847   3.332   3.893  10.368 -0.0069  0.0780 -0.0186
  137SAPE   C2214848   3.119   3.835  10.256 -0.2840 -0.6404 -0.2309
  137SAPE   H2R14849   3.083   3.732  10.232 -1.6160 -0.1969 -0.2065
  137SAPE   H2S14850   3.045   3.877  10.326 -0.9396 -1.6760 -0.2759
  137SAPE    C314851   3.316   3.534  10.575  0.0227 -0.2105  0.0029
  137SAPE    HX14852   3.220   3.508  10.624  0.0381  0.8233  0.6213
  137SAPE    HY14853   3.404   3.517  10.641 -0.5909  0.1025  0.9248
  137SAPE   O3114854   3.325   3.459  10.448 -0.4390  0.2646 -0.1697
  137SAPE   C3114855   3.319   3.322  10.475  1.0708  0.0972 -0.4147
  137SAPE   O3214856   3.312   3.270  10.579 -0.4854  0.6795  0.0179
  137SAPE   C3214857   3.338   3.243  10.343  0.3925 -0.1083  0.0316
  137SAPE   H2X14858   3.246   3.180  10.339 -0.3973  0.8206  2.0907
  137SAPE   H2Y14859   3.433   3.188  10.361  2.2286  1.8155 -2.9252
  137SAPE   C2314860   3.151   3.922  10.139  0.1225  0.1526  0.6877
  137SAPE   H3R14861   3.177   4.020  10.185 -1.5822 -1.1454  4.9074
  137SAPE   H3S14862   3.063   3.953  10.079  1.1895  2.6274  0.2955
  137SAPE   C2414863   3.265   3.873  10.048 -0.1975 -0.0373 -0.2277
  137SAPE   H4R14864   3.359   3.874  10.108  0.0153  2.4616 -0.4685
  137SAPE   H4S14865   3.268   3.957   9.975 -2.2688 -0.4498 -0.8317
  137SAPE   C2514866   3.226   3.744   9.983 -0.0475  0.1127 -0.3346
  137SAPE   H5R14867   3.233   3.654  10.046  0.4033  0.1335 -0.3504
  137SAPE   C2614868   3.195   3.717   9.854 -0.3483 -0.3085 -0.3207
  137SAPE   H6R14869   3.150   3.620   9.828  1.3263 -0.5242 -2.7450
  137SAPE   C2714870   3.199   3.819   9.740  0.6146 -1.0461 -0.0527
  137SAPE   H7R14871   3.244   3.776   9.648  0.2624  0.0888 -0.7632
  137SAPE   H7S14872   3.258   3.908   9.772 -0.7559 -0.2345  0.2895
  137SAPE   C2814873   3.049   3.856   9.716 -0.1355  0.9780 -0.1489
  137SAPE   H8R14874   3.018   3.939   9.781 -1.8593 -0.2767  0.6968
  137SAPE   C2914875   2.972   3.782   9.636 -0.0533 -0.3238  0.5412
  137SAPE   H9R14876   2.870   3.821   9.621 -0.0489  0.0649  1.5039
  137SAPE  C21014877   3.012   3.664   9.554  0.1116  0.1473 -0.1041
  137SAPE  H10R14878   3.067   3.594   9.621 -0.2666 -1.0208 -0.9789
  137SAPE  H10S14879   3.091   3.690   9.482  0.3999 -0.7868 -0.1477
  137SAPE  C21114880   2.897   3.609   9.480 -0.1886  0.4178 -0.3691
  137SAPE  H11R14881   2.815   3.578   9.547  0.1310  2.6523  1.2012
  137SAPE  C21214882   2.873   3.615   9.346  0.2857  0.5471 -0.3723
  137SAPE  H12R14883   2.774   3.578   9.314 -0.7064 -0.9707  3.8064
  137SAPE  C21314884   2.957   3.679   9.240 -0.3946 -0.2854  0.3173
  137SAPE  H13R14885   2.913   3.649   9.142 -1.7528  0.5942  0.6195
  137SAPE  H13S14886   3.060   3.640   9.247 -0.5250 -0.8769 -0.8754
  137SAPE  C21414887   2.967   3.825   9.247 -0.1299  0.0805 -0.3047
  137SAPE  H14R14888   2.896   3.887   9.303  1.5622  2.2312 -0.4202
  137SAPE  C21514889   3.041   3.902   9.163  0.5175 -0.1497 -0.4992
  137SAPE  H15R14890   3.035   4.008   9.189  0.0883 -0.1241 -0.6944
  137SAPE  C21614891   3.133   3.858   9.059 -0.7140  0.8721  0.3820
  137SAPE  H16R14892   3.137   3.750   9.035  2.8106  0.5521  1.8206
  137SAPE  H16S14893   3.235   3.870   9.102  0.6638  0.9337 -2.6353
  137SAPE  C21714894   3.119   3.944   8.920  0.2338  0.7453 -0.1321
  137SAPE  H17R14895   3.163   4.046   8.930  0.4287  0.6365  0.1169
  137SAPE  H17S14896   3.009   3.954   8.911  0.0677 -0.3692  0.4894
  137SAPE  C21814897   3.160   3.858   8.799  0.3049  0.3671  0.1077
  137SAPE  H18R14898   3.108   3.760   8.804 -0.9528  1.0553  1.3740
  137SAPE  H18S14899   3.269   3.837   8.809  0.1801 -0.0904  0.5477
  137SAPE  C21914900   3.131   3.919   8.662 -0.0625 -0.5493 -0.3594
  137SAPE  H19R14901   3.194   4.010   8.671  1.2483 -1.3968 -0.7008
  137SAPE  H19S14902   3.023   3.939   8.648 -0.4066 -1.3577  0.9648
  137SAPE  C22014903   3.180   3.850   8.534 -0.2054  0.1070 -0.0494
  137SAPE  H20R14904   3.153   3.743   8.537 -0.3562  0.1504  0.1907
  137SAPE  H20S14905   3.290   3.847   8.518 -0.4014 -1.1469 -1.2659
  137SAPE  H20T14906   3.133   3.910   8.453  1.0509  0.1391 -0.7755
  137SAPE   C3314907   3.348   3.332  10.219 -0.3170  0.0136 -0.0638
  137SAPE   H3X14908   3.443   3.390  10.215  0.5302 -1.3376 -4.0752
  137SAPE   H3Y14909   3.266   3.406  10.230 -1.3434 -0.9686 -0.8394
  137SAPE   C3414910   3.321   3.261  10.080  0.3263  0.6811 -0.1718
  137SAPE   H4X14911   3.212   3.238  10.071  0.3685  1.0257 -1.9355
  137SAPE   H4Y14912   3.381   3.168  10.074 -0.1025  0.4544 -1.2853
  137SAPE   C3514913   3.368   3.347   9.961  0.1685 -0.2449  0.0936
  137SAPE   H5X14914   3.479   3.333   9.961  0.4483  1.5239  2.0378
  137SAPE   H5Y14915   3.330   3.451   9.961 -1.1494 -0.6884 -1.3375
  137SAPE   C3614916   3.315   3.290   9.827  0.4034  0.0321 -0.4352
  137SAPE   H6X14917   3.204   3.285   9.827  0.4521 -2.1888  0.4992
  137SAPE   H6Y14918   3.366   3.194   9.804 -0.3868 -0.6173  0.4628
  137SAPE   C3714919   3.363   3.364   9.705 -0.3062  0.4463  0.2410
  137SAPE   H7X14920   3.471   3.341   9.695 -0.2526  0.3437  0.9528
  137SAPE   H7Y14921   3.373   3.473   9.728  0.2111  0.7421 -1.2667
  137SAPE   C3814922   3.283   3.337   9.581  0.6090 -0.0767 -0.1947
  137SAPE   H8X14923   3.175   3.356   9.602  0.6159  2.0109 -1.8252
  137SAPE   H8Y14924   3.277   3.227   9.563 -1.3453 -0.2712  1.2194
  137SAPE   C3914925   3.320   3.422   9.455  0.6748 -0.0925 -0.6642
  137SAPE   H9X14926   3.430   3.407   9.446  1.1460  1.1770  1.9472
  137SAPE   H9Y14927   3.312   3.529   9.482 -1.1378 -0.4774  0.4888
  137SAPE  C31014928   3.244   3.365   9.341  0.1094  0.1069  0.4650
  137SAPE  H10X14929   3.134   3.377   9.354  0.3597  1.9819  1.0955
  137SAPE  H10Y14930   3.271   3.257   9.332  0.3614  0.2942 -1.4100
  137SAPE  C31114931   3.292   3.437   9.210 -0.5628  0.1464 -0.6037
  137SAPE  H11X14932   3.400   3.414   9.196 -0.8798 -1.3667 -0.7834
  137SAPE  H11Y14933   3.280   3.545   9.234  1.0782 -0.1410  1.8720
  137SAPE  C31214934   3.205   3.382   9.094  0.1999  0.4784  0.0336
  137SAPE  H12X14935   3.228   3.447   9.007  1.1224 -0.4010 -0.3898
  137SAPE  H12Y14936   3.097   3.397   9.119  0.4883  1.5005  0.7160
  137SAPE  C31314937   3.231   3.234   9.050 -0.5044 -0.3080  0.1671
  137SAPE  H13X14938   3.177   3.211   8.956 -0.3444  1.7230 -0.4656
  137SAPE  H13Y14939   3.183   3.171   9.127 -0.2879  0.6836  1.1407
  137SAPE  C31414940   3.380   3.187   9.018  0.3453  0.5304 -0.0320
  137SAPE  H14X14941   3.372   3.089   8.967  0.6051  0.6624 -0.3249
  137SAPE  H14Y14942   3.417   3.170   9.121  0.2095 -1.3172 -0.2665
  137SAPE  C31514943   3.465   3.276   8.933  0.1807 -0.8232 -0.6117
  137SAPE  H15X14944   3.449   3.386   8.933  0.3008 -0.8039 -0.0595
  137SAPE  H15Y14945   3.446   3.258   8.825  0.4610  2.7189 -1.3724
  137SAPE  C31614946   3.615   3.253   8.960 -0.3596 -0.2588  0.6767
  137SAPE  H16X14947   3.671   3.311   8.885 -0.7068 -1.3695 -0.4757
  137SAPE  H16Y14948   3.638   3.145   8.945 -0.3580 -0.0113 -1.3249
  137SAPE  C31714949   3.671   3.297   9.094 -1.0182 -0.2910 -0.0557
  137SAPE  H17X14950   3.595   3.286   9.174 -0.5767 -3.3578  0.0428
  137SAPE  H17Y14951   3.694   3.405   9.107 -0.3798 -0.5308  0.8197
  137SAPE  C31814952   3.799   3.215   9.134 -0.1575 -0.0470  0.3919
  137SAPE  H18X14953   3.830   3.250   9.235  2.1082  0.1908 -0.3257
  137SAPE  H18Y14954   3.873   3.233   9.053 -1.3029 -0.9824 -0.9084
  137SAPE  H18Z14955   3.793   3.105   9.130 -0.0319 -0.1095  1.6129
  138SAPE     N14956   0.094   2.429  10.785  0.2132 -0.6244 -0.3886
  138SAPE   HN114957   0.124   2.466  10.877  0.4234  0.7558 -0.9927
  138SAPE   HN214958   0.031   2.505  10.753  1.7474  1.3701  1.0726
  138SAPE   HN314959   0.038   2.346  10.813  0.9053 -0.2814  2.1959
  138SAPE   C1214960   0.206   2.403  10.694  0.4796 -0.4446  0.0558
  138SAPE  H12A14961   0.170   2.353  10.602  1.3261 -0.4705 -0.2713
  138SAPE  H12B14962   0.272   2.342  10.759  0.7765  1.2872  1.4851
  138SAPE   C1114963   0.284   2.523  10.651  0.0759 -0.8402 -0.3242
  138SAPE  H11A14964   0.229   2.603  10.597 -0.1005 -0.9712 -0.3391
  138SAPE  H11B14965   0.364   2.478  10.589  3.6880  1.3539  2.3495
  138SAPE     P14966   0.485   2.661  10.772 -0.2898  0.4296 -0.0109
  138SAPE   O1314967   0.485   2.781  10.683  0.3426  0.0075 -0.1754
  138SAPE   O1414968   0.527   2.673  10.916  0.4229  0.3444  0.2221
  138SAPE   O1214969   0.344   2.587  10.761 -0.2272 -0.5761  0.1792
  138SAPE   O1114970   0.582   2.552  10.701  0.4820  0.3586 -0.0826
  138SAPE    C114971   0.676   2.592  10.603  0.5600  0.3078  0.5446
  138SAPE    HA14972   0.728   2.688  10.626 -1.9423  1.5212  1.5404
  138SAPE    HB14973   0.756   2.515  10.601  1.5922  1.2338 -3.7925
  138SAPE    C214974   0.619   2.600  10.459  0.5143  0.1367  0.3935
  138SAPE    HS14975   0.562   2.694  10.450 -0.3238 -0.6111 -3.3711
  138SAPE   O2114976   0.539   2.485  10.427  0.6158  0.1242  0.1307
  138SAPE   C2114977   0.460   2.505  10.314 -0.0985  0.5274 -0.3568
  138SAPE   O2214978   0.428   2.616  10.281 -0.5314 -0.3880  0.0055
  138SAPE   C2214979   0.394   2.377  10.269  0.6328  0.1356  0.0449
  138SAPE   H2R14980   0.479   2.310  10.246  1.6923  0.4217  2.7995
  138SAPE   H2S14981   0.347   2.336  10.361 -2.0253  1.0010 -0.8154
  138SAPE    C314982   0.744   2.608  10.367  0.0189  0.2886 -0.0378
  138SAPE    HX14983   0.797   2.510  10.375  3.7505  1.9641 -1.4894
  138SAPE    HY14984   0.815   2.680  10.412 -1.3510  0.8495  1.3068
  138SAPE   O3114985   0.720   2.641  10.232  0.3431 -0.3970 -0.0321
  138SAPE   C3114986   0.692   2.770  10.214 -0.4780 -0.3886 -0.1509
  138SAPE   O3214987   0.683   2.849  10.309  0.3629 -0.7068  0.0230
  138SAPE   C3214988   0.685   2.797  10.069  0.5551 -0.2997  0.1431
  138SAPE   H2X14989   0.787   2.815  10.029 -0.4727  0.9565 -2.0850
  138SAPE   H2Y14990   0.621   2.887  10.059 -0.2268 -1.0462 -2.3872
  138SAPE   C2314991   0.302   2.397  10.150  0.2763  0.8072  0.3933
  138SAPE   H3R14992   0.364   2.443  10.070  1.8830 -0.2990  0.9657
  138SAPE   H3S14993   0.222   2.471  10.175  0.1933  0.8183  0.0958
  138SAPE   C2414994   0.232   2.263  10.103  0.1794 -0.5519 -0.0453
  138SAPE   H4R14995   0.162   2.303  10.026  1.4560 -1.3995 -1.7160
  138SAPE   H4S14996   0.177   2.208  10.183 -0.2996 -1.7834 -1.1935
  138SAPE   C2514997   0.340   2.179  10.031  0.3711  0.5569 -0.5448
  138SAPE   H5R14998   0.399   2.125  10.107 -1.2324  0.0560  0.3864
  138SAPE   C2614999   0.362   2.149   9.901 -0.2349  0.0143  0.0711
  138SAPE   H6R15000   0.459   2.099   9.883 -1.0561 -2.3534  1.6658
  138SAPE   C2715001   0.306   2.194   9.776  0.1184  0.1745  0.9631
  138SAPE   H7R15002   0.371   2.271   9.729  2.1395 -0.9552  1.8182
  138SAPE   H7S15003   0.208   2.246   9.787  0.7670  1.1514  2.3782
  138SAPE   C2815004   0.288   2.074   9.686  0.5062 -0.5043  0.2865
  138SAPE   H8R15005   0.242   1.990   9.740  1.2251 -2.0726 -1.4273
  138SAPE   C2915006   0.331   2.046   9.567 -0.1380  0.2433 -0.7824
  138SAPE   H9R15007   0.325   1.943   9.529  3.3831  0.6460 -2.9100
  138SAPE  C21015008   0.412   2.146   9.478 -0.2743  0.6150 -0.2367
  138SAPE  H10R15009   0.445   2.238   9.531  2.7032 -0.1463 -0.5928
  138SAPE  H10S15010   0.360   2.173   9.384  2.0225  0.6241 -1.5773
  138SAPE  C21115011   0.545   2.074   9.448 -0.4878  0.1777 -0.3292
  138SAPE  H11R15012   0.631   2.078   9.516  0.3388 -0.2822 -1.3191
  138SAPE  C21215013   0.573   2.019   9.322 -0.0041  0.1229 -1.1119
  138SAPE  H12R15014   0.673   1.973   9.312  0.8967  1.1660  2.0578
  138SAPE  C21315015   0.487   2.001   9.198 -0.1343 -0.7626  0.1675
  138SAPE  H13R15016   0.549   2.029   9.111 -0.3897 -2.4280 -0.5971
  138SAPE  H13S15017   0.408   2.079   9.196  0.3220 -0.2509 -2.7788
  138SAPE  C21415018   0.415   1.867   9.181  0.4572 -0.1825  0.4481
  138SAPE  H14R15019   0.423   1.816   9.278  0.3538  1.5320  1.4081
  138SAPE  C21515020   0.352   1.810   9.079 -0.6498 -0.1216  0.0721
  138SAPE  H15R15021   0.328   1.704   9.091  0.2839 -0.3358  0.1546
  138SAPE  C21615022   0.333   1.868   8.944 -0.4104  0.0731  0.1751
  138SAPE  H16R15023   0.435   1.888   8.904  0.3491 -0.5269  1.7281
  138SAPE  H16S15024   0.290   1.970   8.949 -1.3076 -0.3300  0.9929
  138SAPE  C21715025   0.251   1.783   8.847  0.5717 -0.4071 -0.8946
  138SAPE  H17R15026   0.305   1.687   8.833 -0.0869 -0.8081 -0.7532
  138SAPE  H17S15027   0.228   1.838   8.753  1.1349  4.4266  1.4564
  138SAPE  C21815028   0.117   1.728   8.913  0.3221 -0.0566 -0.3656
  138SAPE  H18R15029   0.035   1.800   8.935 -0.1370 -1.0605  1.3986
  138SAPE  H18S15030   0.124   1.664   9.003  0.6338 -0.9300 -0.9961
  138SAPE  C21915031   0.047   1.627   8.807 -0.6948  0.0699 -0.4090
  138SAPE  H19R15032   0.106   1.542   8.766 -1.6234  0.6282 -3.0909
  138SAPE  H19S15033   0.020   1.680   8.713  0.1816  0.0895 -0.6594
  138SAPE  C22015034  -0.068   1.568   8.883  0.3691  0.5036 -0.2590
  138SAPE  H20R15035  -0.039   1.487   8.953  0.0256 -0.5335 -1.2903
  138SAPE  H20S15036  -0.134   1.521   8.807  1.4674  1.4065 -1.8201
  138SAPE  H20T15037  -0.124   1.648   8.937  1.7788 -0.3671  2.6908
  138SAPE   C3315038   0.609   2.691   9.988  0.2400  0.1400  0.2547
  138SAPE   H3X15039   0.508   2.658  10.020  0.8253 -1.2517  0.7616
  138SAPE   H3Y15040   0.663   2.594   9.984 -0.1956 -0.1443  1.0542
  138SAPE   C3415041   0.586   2.731   9.838 -0.3408  0.5577 -0.2862
  138SAPE   H4X15042   0.685   2.739   9.789 -0.9554  0.4930 -1.5868
  138SAPE   H4Y15043   0.535   2.829   9.846 -2.6284 -0.6036  0.1968
  138SAPE   C3515044   0.504   2.626   9.770  0.2670 -0.3970  0.3435
  138SAPE   H5X15045   0.407   2.617   9.824 -0.3291 -0.4475 -0.6906
  138SAPE   H5Y15046   0.551   2.525   9.772  3.5221  1.0090  1.8499
  138SAPE   C3615047   0.486   2.658   9.617  0.1581  0.6157  0.0018
  138SAPE   H6X15048   0.545   2.747   9.586  1.2623 -0.7995 -2.2730
  138SAPE   H6Y15049   0.382   2.685   9.592 -0.3644 -0.4249  0.9418
  138SAPE   C3715050   0.515   2.539   9.524 -0.4199 -0.7628  0.0315
  138SAPE   H7X15051   0.425   2.475   9.532 -1.9883  1.2264 -0.9189
  138SAPE   H7Y15052   0.607   2.490   9.564 -0.4584  0.1386  1.3020
  138SAPE   C3815053   0.533   2.577   9.374 -0.9896  0.0765  0.0877
  138SAPE   H8X15054   0.586   2.675   9.371 -1.5278  0.3618 -2.1267
  138SAPE   H8Y15055   0.433   2.596   9.329 -1.1180  2.5333  1.2539
  138SAPE   C3915056   0.614   2.476   9.286  0.1440 -0.6186  0.1568
  138SAPE   H9X15057   0.540   2.397   9.261  0.7160 -1.0511 -0.1671
  138SAPE   H9Y15058   0.688   2.421   9.347  0.7251 -0.1082 -0.0838
  138SAPE  C31015059   0.682   2.537   9.161  0.5174 -0.3149  0.5541
  138SAPE  H10X15060   0.790   2.543   9.184  0.6804  1.3671 -0.4804
  138SAPE  H10Y15061   0.646   2.635   9.125 -1.1311 -1.6356 -1.6557
  138SAPE  C31115062   0.651   2.454   9.035  0.6707  0.8518 -0.5085
  138SAPE  H11X15063   0.545   2.472   9.009  0.0632  0.7205  1.7220
  138SAPE  H11Y15064   0.659   2.345   9.058 -1.9998 -0.0649 -3.2540
  138SAPE  C31215065   0.743   2.472   8.919 -0.2825 -0.5489 -0.6922
  138SAPE  H12X15066   0.729   2.389   8.846  1.4112 -1.9691  0.4910
  138SAPE  H12Y15067   0.852   2.463   8.943 -0.5895  1.1882  1.6351
  138SAPE  C31315068   0.723   2.598   8.840  0.5415 -0.2681  0.4809
  138SAPE  H13X15069   0.785   2.596   8.747 -1.7342 -0.3644 -1.1060
  138SAPE  H13Y15070   0.757   2.680   8.907  0.2800  0.7420 -0.5905
  138SAPE  C31415071   0.582   2.618   8.788  0.0959 -0.5128  0.6680
  138SAPE  H14X15072   0.507   2.655   8.861  0.0131  0.4301  0.1259
  138SAPE  H14Y15073   0.557   2.514   8.757  1.9794 -0.6081 -0.7100
  138SAPE  C31515074   0.567   2.719   8.676 -0.6820  0.3451  0.2690
  138SAPE  H15X15075   0.622   2.671   8.592 -0.4596 -0.7993  1.0392
  138SAPE  H15Y15076   0.605   2.818   8.708 -1.4796  0.1870  1.7546
  138SAPE  C31615077   0.416   2.736   8.640  0.7182 -0.2718 -0.3230
  138SAPE  H16X15078   0.365   2.796   8.718  0.6562  0.0885 -0.6360
  138SAPE  H16Y15079   0.368   2.637   8.631 -0.9942  0.2067  2.4265
  138SAPE  C31715080   0.403   2.823   8.515  0.2706  0.8184 -0.4342
  138SAPE  H17X15081   0.453   2.773   8.429 -0.6612  1.3642 -1.3137
  138SAPE  H17Y15082   0.455   2.920   8.529 -0.8888  1.8886 -2.9534
  138SAPE  C31815083   0.263   2.853   8.475  0.3428 -0.3734  0.6024
  138SAPE  H18X15084   0.203   2.915   8.545 -0.2671 -0.7586  0.4265
  138SAPE  H18Y15085   0.208   2.757   8.465  2.2707 -1.8015  2.6828
  138SAPE  H18Z15086   0.266   2.908   8.379 -0.1564 -0.2401  0.6569
  139SAPE     N15087   4.750   2.596  10.745 -0.2710 -0.8597 -0.2426
  139SAPE   HN115088   4.764   2.497  10.717 -1.2611 -1.1032  0.0922
  139SAPE   HN215089   4.814   2.612  10.825 -0.1001 -1.1763 -0.3144
  139SAPE   HN315090   4.649   2.606  10.767  0.0626  1.2242  0.6345
  139SAPE   C1215091   4.778   2.700  10.632  0.1181  0.6575  0.1715
  139SAPE  H12A15092   4.788   2.801  10.677  1.5131  0.7309 -0.2532
  139SAPE  H12B15093   4.694   2.695  10.559  0.8270 -0.9280 -0.5926
  139SAPE   C1115094   4.910   2.660  10.560 -0.5254 -0.6618 -0.3048
  139SAPE  H11A15095   4.934   2.737  10.483 -1.4856 -0.5447 -0.5076
  139SAPE  H11B15096   4.902   2.572  10.494  0.7507 -0.4434 -0.7731
  139SAPE     P15097   5.133   2.757  10.679  0.1478  0.1265 -0.4005
  139SAPE   O1315098   5.065   2.861  10.751 -0.9002  0.0455  0.5139
  139SAPE   O1415099   5.249   2.697  10.742 -0.2964 -0.0248  0.1205
  139SAPE   O1215100   5.018   2.646  10.661  0.6279 -0.4682  0.5857
  139SAPE   O1115101   5.173   2.804  10.530  0.3599  0.3650 -0.1432
  139SAPE    C115102   5.190   2.936  10.472 -0.5055  0.4008 -1.0788
  139SAPE    HA15103   5.102   2.946  10.404 -1.6752 -2.8852 -0.2603
  139SAPE    HB15104   5.183   3.015  10.550  0.9023 -0.0765 -0.4452
  139SAPE    C215105   5.327   2.950  10.400  0.1796  0.6349 -0.1119
  139SAPE    HS15106   5.332   3.053  10.360 -0.4722  0.7476  0.0778
  139SAPE   O2115107   5.342   2.838  10.307  0.7328  0.1823  0.0209
  139SAPE   C2115108   5.321   2.873  10.184  0.2287  0.5802  0.6426
  139SAPE   O2215109   5.260   2.968  10.147 -0.4218 -0.0144 -0.3302
  139SAPE   C2215110   5.374   2.776  10.086  0.0268 -0.4940  0.4158
  139SAPE   H2R15111   5.377   2.833   9.990  4.6884  1.4987  1.5056
  139SAPE   H2S15112   5.483   2.763  10.102  0.4527  2.1461  0.0994
  139SAPE    C315113   5.444   2.944  10.503 -0.6244 -0.4555  0.3330
  139SAPE    HX15114   5.430   2.846  10.555  0.0564 -0.0918  1.2427
  139SAPE    HY15115   5.436   3.028  10.576 -0.7902  0.5887 -0.8541
  139SAPE   O3115116   5.573   2.937  10.437  0.1033 -0.0748  0.6204
  139SAPE   C3115117   5.677   2.918  10.513 -0.4607  0.7170  0.5904
  139SAPE   O3215118   5.678   2.922  10.632  0.2936 -0.7146  0.1997
  139SAPE   C3215119   5.787   2.853  10.421 -0.2819 -0.4959  0.3771
  139SAPE   H2X15120   5.864   2.801  10.481  0.9540 -0.2960 -0.9923
  139SAPE   H2Y15121   5.843   2.937  10.374 -1.8983  0.8446  0.7355
  139SAPE   C2315122   5.312   2.637  10.098  0.0281 -0.6255  0.4115
  139SAPE   H3R15123   5.323   2.600  10.202  0.1704  0.4821  0.8131
  139SAPE   H3S15124   5.359   2.557  10.038 -1.0930 -0.0698 -1.2649
  139SAPE   C2415125   5.163   2.639  10.056 -0.1234 -0.9512  0.2881
  139SAPE   H4R15126   5.167   2.682   9.954  2.2991 -0.6567  0.4536
  139SAPE   H4S15127   5.112   2.726  10.102  0.3224  0.3398 -1.5807
  139SAPE   C2515128   5.068   2.521  10.049  0.2804 -0.5984 -0.6735
  139SAPE   H5R15129   4.994   2.519  10.131  2.2454  1.4474  1.2872
  139SAPE   C2615130   5.075   2.419   9.959  0.6894  0.3220 -0.7628
  139SAPE   H6R15131   5.003   2.336   9.959 -0.1854  1.0304  0.8004
  139SAPE   C2715132   5.175   2.398   9.851  0.6524  0.2644 -0.5384
  139SAPE   H7R15133   5.212   2.500   9.827 -0.0808  1.1153  1.6324
  139SAPE   H7S15134   5.110   2.364   9.768 -1.6220 -2.1484  2.0228
  139SAPE   C2815135   5.282   2.295   9.886 -0.4181  0.3470  0.9537
  139SAPE   H8R15136   5.323   2.285   9.987  3.3355 -0.1074 -0.4576
  139SAPE   C2915137   5.348   2.221   9.791 -0.4811 -0.1132 -0.1479
  139SAPE   H9R15138   5.434   2.160   9.822 -0.7955  0.1125  1.2206
  139SAPE  C21015139   5.325   2.220   9.641  0.1007 -0.4967 -0.5555
  139SAPE  H10R15140   5.215   2.221   9.625 -0.8058 -1.7028  4.0412
  139SAPE  H10S15141   5.365   2.121   9.611  2.0352 -0.9807  3.0810
  139SAPE  C21115142   5.392   2.339   9.574 -0.4711  0.4608 -0.0830
  139SAPE  H11R15143   5.497   2.355   9.604  0.0153  0.3780 -1.6379
  139SAPE  C21215144   5.334   2.429   9.484 -0.4466  0.0985 -0.1814
  139SAPE  H12R15145   5.394   2.517   9.459  1.0493 -0.5755  0.8824
  139SAPE  C21315146   5.190   2.406   9.432  0.8513 -0.0219  0.1292
  139SAPE  H13R15147   5.114   2.426   9.511  0.4256  2.1199 -0.7580
  139SAPE  H13S15148   5.174   2.297   9.415 -3.2641  0.2183  1.3089
  139SAPE  C21415149   5.148   2.490   9.311  0.7548  0.2294  0.3418
  139SAPE  H14R15150   5.159   2.456   9.207  2.0543  1.2297  0.1292
  139SAPE  C21515151   5.106   2.618   9.311  0.4263 -0.3648 -0.1490
  139SAPE  H15R15152   5.085   2.665   9.214  0.2796  0.4601  0.2721
  139SAPE  C21615153   5.075   2.700   9.437 -0.0525  0.0716 -0.1019
  139SAPE  H16R15154   5.071   2.632   9.525  2.6774 -0.0897 -0.0080
  139SAPE  H16S15155   4.976   2.751   9.432 -0.0936  0.0525  0.3898
  139SAPE  C21715156   5.169   2.818   9.457 -0.0719  0.7275  0.0501
  139SAPE  H17R15157   5.134   2.900   9.390 -1.8507 -0.9926 -1.2489
  139SAPE  H17S15158   5.275   2.800   9.429 -0.4890 -0.1723 -1.0317
  139SAPE  C21815159   5.167   2.858   9.603 -0.6448 -0.1673  0.4861
  139SAPE  H18R15160   5.207   2.771   9.660 -0.0099  0.1194  0.4918
  139SAPE  H18S15161   5.058   2.874   9.617 -1.1414 -1.0894 -1.8670
  139SAPE  C21915162   5.243   2.988   9.625 -0.2118  0.1559 -0.2867
  139SAPE  H19R15163   5.202   3.062   9.553 -0.6187 -1.4549 -1.7748
  139SAPE  H19S15164   5.348   2.971   9.591  0.3107  2.8697 -0.2805
  139SAPE  C22015165   5.241   3.031   9.774  0.2783  0.3094  0.6779
  139SAPE  H20R15166   5.291   3.127   9.798 -1.9143  1.7605 -0.2379
  139SAPE  H20S15167   5.263   2.950   9.848  0.0034  0.0401  0.4710
  139SAPE  H20T15168   5.137   3.051   9.807  0.4136  1.1010  0.6268
  139SAPE   C3315169   5.748   2.764  10.304  0.1444  0.6598  0.0422
  139SAPE   H3X15170   5.682   2.813  10.230 -2.1363  0.6501  1.9522
  139SAPE   H3Y15171   5.695   2.676  10.347 -0.8194  1.0015 -0.4344
  139SAPE   C3415172   5.873   2.707  10.238  0.0079 -0.4647  0.7919
  139SAPE   H4X15173   5.848   2.628  10.164  1.5233 -0.7443  0.5443
  139SAPE   H4Y15174   5.938   2.655  10.312 -0.3756 -0.9023  0.8242
  139SAPE   C3515175   5.954   2.808  10.153 -0.0954 -0.2877 -0.2093
  139SAPE   H5X15176   5.994   2.887  10.221  0.5206 -0.3993 -0.4313
  139SAPE   H5Y15177   5.889   2.873  10.091  0.1733 -0.0690 -0.2659
  139SAPE   C3615178   6.071   2.747  10.078 -0.2220 -0.7765 -0.0926
  139SAPE   H6X15179   6.035   2.680   9.996 -0.3531 -2.0264  0.9429
  139SAPE   H6Y15180   6.139   2.691  10.147  2.3937 -0.9262 -2.6153
  139SAPE   C3715181   6.155   2.863  10.019 -0.2201 -0.0821  0.0790
  139SAPE   H7X15182   6.242   2.812   9.973 -1.7845 -2.9401  0.0839
  139SAPE   H7Y15183   6.194   2.933  10.096 -0.1341 -0.8166  0.7136
  139SAPE   C3815184   6.077   2.950   9.920  0.3952 -0.5847  0.1184
  139SAPE   H8X15185   6.008   3.019   9.972 -2.8446 -2.2065 -1.7072
  139SAPE   H8Y15186   6.009   2.889   9.857 -1.0332  0.3019  0.7523
  139SAPE   C3915187   6.169   3.041   9.832  0.4569  0.4904 -0.0082
  139SAPE   H9X15188   6.235   2.976   9.771 -0.5903 -0.5480 -0.0634
  139SAPE   H9Y15189   6.227   3.105   9.901 -0.7780 -0.5602  2.1028
  139SAPE  C31015190   6.087   3.138   9.750 -0.3618 -0.1775  0.2960
  139SAPE  H10X15191   6.150   3.222   9.714 -0.4776 -0.4628 -0.5969
  139SAPE  H10Y15192   6.008   3.184   9.813 -1.6494  0.2007 -1.5115
  139SAPE  C31115193   6.016   3.078   9.627 -0.0544  0.4216 -0.3419
  139SAPE  H11X15194   5.939   3.008   9.666 -0.1215  0.6219 -0.1113
  139SAPE  H11Y15195   6.091   3.016   9.575 -0.1960 -0.1647  0.1448
  139SAPE  C31215196   5.961   3.186   9.523 -0.8655  0.8433  0.4439
  139SAPE  H12X15197   6.044   3.253   9.490  1.5621 -1.6839  0.9708
  139SAPE  H12Y15198   5.886   3.250   9.574  0.3412  2.3964  0.3677
  139SAPE  C31315199   5.902   3.120   9.393  0.1034 -0.3379 -0.2102
  139SAPE  H13X15200   5.983   3.091   9.322 -0.5051 -0.2462 -0.9588
  139SAPE  H13Y15201   5.835   3.194   9.344 -0.4769  0.8219  2.2024
  139SAPE  C31415202   5.803   3.007   9.430 -0.3983 -0.0428  0.7121
  139SAPE  H14X15203   5.712   3.043   9.483 -2.1231 -0.2299 -1.9441
  139SAPE  H14Y15204   5.848   2.922   9.486 -1.3773 -0.3707  1.0068
  139SAPE  C31515205   5.753   2.938   9.299 -0.1459 -0.0452  0.0402
  139SAPE  H15X15206   5.843   2.890   9.256  0.8002  1.7057 -0.0178
  139SAPE  H15Y15207   5.724   3.015   9.224  0.1213  1.7249  1.6774
  139SAPE  C31615208   5.647   2.830   9.312  0.4012 -0.6045 -0.2370
  139SAPE  H16X15209   5.668   2.757   9.393 -1.2390 -0.4746  0.3458
  139SAPE  H16Y15210   5.550   2.877   9.339  2.0754  3.0034  0.0831
  139SAPE  C31715211   5.634   2.749   9.181 -0.1954  0.4987 -0.1822
  139SAPE  H17X15212   5.726   2.689   9.166 -1.2445 -1.2579  0.1392
  139SAPE  H17Y15213   5.626   2.817   9.093 -0.1160  1.1975  0.3445
  139SAPE  C31815214   5.516   2.653   9.172 -0.4767 -0.4623 -0.2467
  139SAPE  H18X15215   5.517   2.608   9.071 -0.0809  2.1411 -1.4871
  139SAPE  H18Y15216   5.422   2.708   9.191  0.7656  1.7206 -0.0240
  139SAPE  H18Z15217   5.545   2.579   9.250  0.4506  1.4700  1.3244
  140SAPE     N15218   2.419   5.431  11.338  0.4367  0.3689 -0.5206
  140SAPE   HN115219   2.385   5.355  11.400 -1.2204  1.2518 -0.2895
  140SAPE   HN215220   2.508   5.461  11.384 -0.5789  0.1760  1.7057
  140SAPE   HN315221   2.352   5.510  11.348  0.6609  0.4231  0.6304
  140SAPE   C1215222   2.443   5.374  11.199  0.3564  0.0586  0.2380
  140SAPE  H12A15223   2.531   5.306  11.207  0.6685  0.4872  0.5184
  140SAPE  H12B15224   2.481   5.458  11.137  0.8442 -0.3609 -0.0417
  140SAPE   C1115225   2.327   5.312  11.126 -0.3788  0.6352 -0.2251
  140SAPE  H11A15226   2.300   5.228  11.193  0.4217  0.5292 -0.0299
  140SAPE  H11B15227   2.356   5.274  11.026 -2.2693  0.1530 -0.6319
  140SAPE     P15228   2.164   5.463  10.999 -0.1411  0.2158  0.2467
  140SAPE   O1315229   2.075   5.362  10.932 -0.8327  0.4476 -0.0570
  140SAPE   O1415230   2.118   5.600  11.024  0.3323 -0.1143  0.0487
  140SAPE   O1215231   2.214   5.399  11.128  0.0915 -0.0679 -0.0500
  140SAPE   O1115232   2.301   5.462  10.913 -0.5495 -0.5404  0.1719
  140SAPE    C115233   2.351   5.583  10.868 -0.0492 -0.2792  0.3558
  140SAPE    HA15234   2.357   5.654  10.953  1.8651  0.9992 -0.7533
  140SAPE    HB15235   2.456   5.569  10.835  0.2737 -0.7174  1.5221
  140SAPE    C215236   2.268   5.648  10.750  0.8376 -0.1067  0.3355
  140SAPE    HS15237   2.171   5.676  10.797  0.3313 -1.5061  0.1661
  140SAPE   O2115238   2.255   5.563  10.636 -0.4062  0.0860 -0.0671
  140SAPE   C2115239   2.139   5.538  10.577  0.5794 -0.2419 -0.4323
  140SAPE   O2215240   2.031   5.579  10.620 -0.5793  0.0297 -0.3274
  140SAPE   C2215241   2.154   5.460  10.449 -0.0669 -0.4153  0.6838
  140SAPE   H2R15242   2.232   5.512  10.388 -1.9572 -1.1008 -2.5798
  140SAPE   H2S15243   2.174   5.353  10.471  0.2945 -0.8824 -1.6440
  140SAPE    C315244   2.340   5.785  10.718  0.5059 -0.1200 -0.1412
  140SAPE    HX15245   2.445   5.753  10.707  0.6826  0.2638  0.4169
  140SAPE    HY15246   2.335   5.846  10.811 -0.2466 -0.4055  0.0155
  140SAPE   O3115247   2.290   5.855  10.602 -0.3796  0.2486 -0.1314
  140SAPE   C3115248   2.174   5.926  10.612 -0.4115 -0.2492 -0.0700
  140SAPE   O3215249   2.110   5.947  10.712  0.1538 -0.8999 -0.1927
  140SAPE   C3215250   2.142   5.973  10.467  0.5214  1.0988 -0.3596
  140SAPE   H2X15251   2.228   6.028  10.422  0.6791  0.0597 -1.3976
  140SAPE   H2Y15252   2.045   6.026  10.473 -0.5677 -0.3746 -2.8538
  140SAPE   C2315253   2.027   5.455  10.366 -0.0119 -0.4348  0.0228
  140SAPE   H3R15254   1.981   5.552  10.337 -0.6302 -0.4508  0.9058
  140SAPE   H3S15255   1.957   5.391  10.423 -0.3581 -0.7853 -0.7814
  140SAPE   C2415256   2.039   5.379  10.232  0.4454 -0.2961  0.7953
  140SAPE   H4R15257   2.088   5.281  10.249 -0.3797 -0.6522  1.1328
  140SAPE   H4S15258   2.115   5.427  10.166 -0.1404  0.3395  0.5735
  140SAPE   C2515259   1.901   5.354  10.169  0.8876 -0.1063  0.1669
  140SAPE   H5R15260   1.814   5.330  10.232 -0.8358 -0.3420 -2.1679
  140SAPE   C2615261   1.861   5.351  10.038 -0.0345  0.4069  0.0140
  140SAPE   H6R15262   1.756   5.323  10.017  0.5689 -0.5540 -1.9923
  140SAPE   C2715263   1.943   5.370   9.914 -0.2859  0.7810 -0.0976
  140SAPE   H7R15264   1.931   5.293   9.836  0.2702 -0.7605  1.2804
  140SAPE   H7S15265   2.049   5.368   9.946 -0.7707 -0.0080  1.5785
  140SAPE   C2815266   1.925   5.505   9.848  0.7435 -0.0744  0.3696
  140SAPE   H8R15267   1.911   5.583   9.924  3.2727 -0.0114  0.8409
  140SAPE   C2915268   1.931   5.553   9.720  0.5581  0.0591  0.0783
  140SAPE   H9R15269   1.905   5.658   9.706  1.9029  0.2701 -0.9760
  140SAPE  C21015270   1.971   5.475   9.599  0.1401  0.3073  0.0128
  140SAPE  H10R15271   2.000   5.370   9.624  1.4744  1.1614  2.3068
  140SAPE  H10S15272   2.066   5.518   9.562  1.2670 -1.4255  0.7612
  140SAPE  C21115273   1.866   5.474   9.484 -0.0332  0.0007 -0.2103
  140SAPE  H11R15274   1.762   5.457   9.515  0.4697  0.0931  1.6967
  140SAPE  C21215275   1.882   5.486   9.355  0.4002  0.2369  0.4950
  140SAPE  H12R15276   1.786   5.489   9.301 -0.1997  2.5011  1.5505
  140SAPE  C21315277   2.005   5.509   9.273  1.2368 -0.4537 -0.4212
  140SAPE  H13R15278   2.019   5.427   9.199  1.8711 -2.0063  1.3284
  140SAPE  H13S15279   2.094   5.502   9.340  1.7615  1.1837 -0.9154
  140SAPE  C21415280   2.012   5.645   9.207  0.0158 -0.6952  0.3735
  140SAPE  H14R15281   2.054   5.726   9.268  1.4690 -1.7529  0.8207
  140SAPE  C21515282   1.968   5.679   9.086 -0.2992 -0.0684  0.2724
  140SAPE  H15R15283   1.993   5.781   9.052  1.7082 -0.5888  0.1162
  140SAPE  C21615284   1.895   5.587   8.989 -0.9071  0.5664 -0.2670
  140SAPE  H16R15285   1.792   5.626   8.973 -0.7453  3.3248  3.8193
  140SAPE  H16S15286   1.879   5.488   9.038  1.0138  1.0330  1.4310
  140SAPE  C21715287   1.972   5.575   8.852  0.6831 -0.6171  0.1144
  140SAPE  H17R15288   1.931   5.480   8.812  2.0408 -1.4370  0.5928
  140SAPE  H17S15289   2.076   5.550   8.882  0.5431  1.1548  2.3131
  140SAPE  C21815290   1.968   5.701   8.760  0.0432  0.1301 -0.4068
  140SAPE  H18R15291   2.037   5.772   8.810 -0.8507 -0.8429  2.3850
  140SAPE  H18S15292   1.863   5.732   8.778  0.0920  0.2171 -0.2778
  140SAPE  C21915293   2.006   5.685   8.618 -0.7983  0.6977  0.6371
  140SAPE  H19R15294   1.928   5.623   8.571 -1.0840  1.8831 -0.5189
  140SAPE  H19S15295   2.099   5.625   8.609  0.6786  3.0740 -1.3444
  140SAPE  C22015296   2.011   5.808   8.531 -0.1840 -0.0579  1.0766
  140SAPE  H20R15297   2.023   5.795   8.421  1.5805  2.1667  0.9316
  140SAPE  H20S15298   2.090   5.878   8.566 -0.9713  0.9037  0.9899
  140SAPE  H20T15299   1.918   5.868   8.541 -1.8436 -1.9710 -1.6018
  140SAPE   C3315300   2.109   5.854  10.374 -0.1093  0.3468 -0.1449
  140SAPE   H3X15301   2.037   5.783  10.422 -0.5885  1.2800  0.5506
  140SAPE   H3Y15302   2.203   5.796  10.359 -0.5811 -0.8154  1.1179
  140SAPE   C3415303   2.066   5.902  10.233  0.3547  1.0834  0.1134
  140SAPE   H4X15304   2.146   5.972  10.198  0.4606  0.6706 -0.4894
  140SAPE   H4Y15305   1.979   5.966  10.257 -1.2561 -0.7799 -0.5555
  140SAPE   C3515306   2.038   5.792  10.130 -0.3134  0.1175 -0.4941
  140SAPE   H5X15307   1.951   5.731  10.162 -0.5304 -0.0318 -1.3415
  140SAPE   H5Y15308   2.134   5.736  10.120  0.3486  1.3038 -0.8986
  140SAPE   C3615309   2.019   5.844   9.994 -0.4359 -0.3313  0.2176
  140SAPE   H6X15310   2.068   5.779   9.918  2.4419  0.1068  1.5873
  140SAPE   H6Y15311   2.079   5.937   9.983 -0.5115 -0.0506  2.0002
  140SAPE   C3715312   1.870   5.877   9.957 -0.0761  0.1712 -0.5182
  140SAPE   H7X15313   1.830   5.947  10.033  2.8977  0.5946  0.7883
  140SAPE   H7Y15314   1.804   5.791   9.983 -1.2862  1.0601 -0.5947
  140SAPE   C3815315   1.846   5.928   9.809  0.0635  0.0077  0.1107
  140SAPE   H8X15316   1.909   5.863   9.745  0.0233  1.9176 -1.9892
  140SAPE   H8Y15317   1.893   6.028   9.803  1.0432 -0.3483  1.4749
  140SAPE   C3915318   1.699   5.936   9.764  0.4310 -0.5108  0.0059
  140SAPE   H9X15319   1.650   6.027   9.807 -0.8181 -0.8411 -0.6685
  140SAPE   H9Y15320   1.646   5.841   9.784 -1.2026  0.3210 -0.1696
  140SAPE  C31015321   1.679   5.969   9.610  0.0589 -0.1737 -0.5379
  140SAPE  H10X15322   1.719   6.071   9.595 -0.7841  0.5206  1.5706
  140SAPE  H10Y15323   1.570   5.970   9.586 -0.0437  1.2547 -0.1105
  140SAPE  C31115324   1.754   5.873   9.519  0.6856  0.0955 -0.5223
  140SAPE  H11X15325   1.739   5.765   9.541 -1.0892  0.1534 -1.2847
  140SAPE  H11Y15326   1.862   5.889   9.539  0.4315 -0.2514  1.2874
  140SAPE  C31215327   1.719   5.898   9.378  0.2604  0.4422 -0.5689
  140SAPE  H12X15328   1.772   5.817   9.322  0.4462 -0.3408  0.6951
  140SAPE  H12Y15329   1.750   5.999   9.346 -0.7928  0.2867 -2.2007
  140SAPE  C31315330   1.572   5.864   9.343 -0.8411 -0.2078 -0.3875
  140SAPE  H13X15331   1.513   5.944   9.392  2.5504  4.0572 -2.5819
  140SAPE  H13Y15332   1.532   5.766   9.378 -2.0225  0.8743  1.4549
  140SAPE  C31415333   1.527   5.870   9.193 -0.1801 -0.2209 -0.2972
  140SAPE  H14X15334   1.577   5.958   9.146 -0.5076 -0.2581 -0.7269
  140SAPE  H14Y15335   1.417   5.890   9.189 -0.5839 -2.1273  0.3531
  140SAPE  C31515336   1.561   5.744   9.112  0.9077  0.3757 -0.0982
  140SAPE  H15X15337   1.526   5.649   9.156 -1.6001  0.3672 -1.9412
  140SAPE  H15Y15338   1.671   5.747   9.095  0.5745  1.0097 -2.4233
  140SAPE  C31615339   1.491   5.743   8.974  0.8364 -0.4436 -0.4020
  140SAPE  H16X15340   1.387   5.774   8.997  0.8324  0.0261 -1.0661
  140SAPE  H16Y15341   1.483   5.643   8.927  2.7320 -0.9795  0.2841
  140SAPE  C31715342   1.563   5.836   8.876 -0.0882  0.8686  0.9845
  140SAPE  H17X15343   1.655   5.781   8.847 -0.4891 -1.0628  3.1717
  140SAPE  H17Y15344   1.590   5.934   8.921 -0.5564  1.8697 -0.8089
  140SAPE  C31815345   1.478   5.866   8.748 -0.5835 -0.1111 -0.8443
  140SAPE  H18X15346   1.543   5.901   8.665  1.3077  1.8737  1.3346
  140SAPE  H18Y15347   1.386   5.925   8.767 -0.3144 -0.2864  1.1787
  140SAPE  H18Z15348   1.439   5.766   8.717 -1.2210 -0.2291  0.2785
  141SAPE     N15349   2.859   0.819  11.138  0.2290 -0.3377  0.2893
  141SAPE   HN115350   2.854   0.715  11.141  1.4435 -0.3837  1.5928
  141SAPE   HN215351   2.961   0.842  11.139 -0.2812  2.1899  0.9016
  141SAPE   HN315352   2.825   0.847  11.232  0.9505  1.8204 -0.0406
  141SAPE   C1215353   2.790   0.865  11.012 -0.2960  0.1497 -0.3981
  141SAPE  H12A15354   2.774   0.975  11.013 -1.7378 -0.0245 -1.4873
  141SAPE  H12B15355   2.694   0.810  11.000 -0.1766 -0.1429 -0.0254
  141SAPE   C1115356   2.886   0.824  10.895  0.0581 -0.9022 -0.1761
  141SAPE  H11A15357   2.971   0.894  10.890 -2.3885  2.3761  0.8892
  141SAPE  H11B15358   2.829   0.836  10.800 -1.6785  0.7797  1.0036
  141SAPE     P15359   3.049   0.619  10.842  0.2760  0.5724 -0.1585
  141SAPE   O1315360   3.160   0.711  10.822  0.6662 -0.5248 -0.3248
  141SAPE   O1415361   3.081   0.493  10.910  0.0862 -0.0812 -0.3802
  141SAPE   O1215362   2.926   0.687  10.905  0.8523  0.1354  0.1825
  141SAPE   O1115363   3.005   0.581  10.699 -0.1363  0.9489 -0.0786
  141SAPE    C115364   2.887   0.509  10.674  0.1559  0.0676  0.4107
  141SAPE    HA15365   2.836   0.482  10.769 -1.0491 -1.4873 -0.6164
  141SAPE    HB15366   2.815   0.580  10.628  0.3335 -0.4329 -0.6750
  141SAPE    C215367   2.900   0.390  10.578 -0.4809  0.2304  0.6560
  141SAPE    HS15368   2.993   0.341  10.615  0.4986  0.5200 -1.2655
  141SAPE   O2115369   2.916   0.434  10.440  0.7958  0.1586 -0.6262
  141SAPE   C2115370   2.993   0.347  10.362  0.4965  0.0966 -0.5587
  141SAPE   O2215371   3.056   0.251  10.405  0.7571  0.0051  0.1616
  141SAPE   C2215372   3.010   0.410  10.230 -0.3752  0.5406  0.0963
  141SAPE   H2R15373   2.956   0.507  10.220 -2.2217 -0.0119  3.2514
  141SAPE   H2S15374   3.118   0.436  10.218 -0.4366  1.2025  0.8326
  141SAPE    C315375   2.784   0.284  10.588 -0.3081 -0.4678 -0.4226
  141SAPE    HX15376   2.684   0.328  10.570  0.6692  1.5310 -1.3401
  141SAPE    HY15377   2.780   0.249  10.694  0.4503  1.0005  0.1277
  141SAPE   O3115378   2.795   0.175  10.485  0.3887  0.1875 -0.1509
  141SAPE   C3115379   2.831   0.059  10.537 -0.5646 -0.4938  0.1886
  141SAPE   O3215380   2.821   0.018  10.651  0.4921  0.1700 -0.3580
  141SAPE   C3215381   2.886  -0.031  10.426 -0.2251  0.4678 -0.4320
  141SAPE   H2X15382   2.960  -0.103  10.468  0.1911  0.4979 -1.1056
  141SAPE   H2Y15383   2.938   0.041  10.360  4.0601 -0.2108  1.8459
  141SAPE   C2315384   2.981   0.313  10.115  0.3190 -0.2247  0.1192
  141SAPE   H3R15385   3.061   0.237  10.127  0.6258  0.3317  1.9304
  141SAPE   H3S15386   3.007   0.359  10.018  0.0741 -1.8983 -0.7859
  141SAPE   C2415387   2.836   0.261  10.111 -0.3906 -0.4022 -0.6789
  141SAPE   H4R15388   2.773   0.351  10.092  1.6985  1.7406  1.6921
  141SAPE   H4S15389   2.802   0.228  10.211  0.5297 -1.4857 -0.7000
  141SAPE   C2515390   2.814   0.162  10.000 -0.4361 -0.7050  0.5446
  141SAPE   H5R15391   2.809   0.055  10.023 -2.4494 -1.1032 -1.4473
  141SAPE   C2615392   2.796   0.189   9.872 -0.1337  0.3666  0.0728
  141SAPE   H6R15393   2.786   0.101   9.807  1.6243  0.9353 -1.0280
  141SAPE   C2715394   2.794   0.325   9.802  0.4015 -0.2918 -0.2218
  141SAPE   H7R15395   2.885   0.340   9.741 -0.7308  0.0508 -1.8837
  141SAPE   H7S15396   2.799   0.403   9.881 -0.2277  2.2364 -2.5236
  141SAPE   C2815397   2.668   0.334   9.723 -0.1250  0.0727 -0.0659
  141SAPE   H8R15398   2.574   0.358   9.774 -1.2825 -1.3660 -1.4485
  141SAPE   C2915399   2.659   0.310   9.590  0.3955  0.1332  0.3528
  141SAPE   H9R15400   2.560   0.330   9.546 -0.0713  3.1771  2.4331
  141SAPE  C21015401   2.766   0.262   9.500 -0.2693  0.9805  0.0980
  141SAPE  H10R15402   2.837   0.195   9.552  0.3355  0.4873 -1.3178
  141SAPE  H10S15403   2.814   0.348   9.448  0.0235 -0.5358 -2.2994
  141SAPE  C21115404   2.708   0.170   9.395 -0.8424 -0.1825  0.0576
  141SAPE  H11R15405   2.669   0.072   9.427 -3.2869 -0.0025 -2.0134
  141SAPE  C21215406   2.689   0.192   9.264 -0.0284  0.6176 -0.1214
  141SAPE  H12R15407   2.636   0.115   9.206 -1.2986  1.4610 -0.1182
  141SAPE  C21315408   2.726   0.320   9.185  0.1619  0.6608 -0.9115
  141SAPE  H13R15409   2.808   0.298   9.114 -0.4741  1.3225 -1.8863
  141SAPE  H13S15410   2.767   0.389   9.263  0.2043 -0.2934 -0.0761
  141SAPE  C21415411   2.607   0.387   9.123 -0.0866 -0.1395  0.0221
  141SAPE  H14R15412   2.522   0.390   9.192  2.6833 -0.3011  3.7460
  141SAPE  C21515413   2.605   0.441   8.999 -0.2524  0.6530 -0.1001
  141SAPE  H15R15414   2.508   0.481   8.966 -1.4323 -0.0411  2.2812
  141SAPE  C21615415   2.713   0.440   8.894 -0.4774  0.3283 -0.1915
  141SAPE  H16R15416   2.806   0.396   8.934 -0.6136 -0.4362 -0.6907
  141SAPE  H16S15417   2.749   0.541   8.864  0.6035  0.0788  0.2255
  141SAPE  C21715418   2.677   0.355   8.771 -0.0803  0.2361 -0.9975
  141SAPE  H17R15419   2.601   0.400   8.703  0.7502  0.8745 -1.5329
  141SAPE  H17S15420   2.637   0.258   8.805 -1.4341  1.1257  0.0496
  141SAPE  C21815421   2.797   0.325   8.681 -0.0911 -0.5429 -0.0220
  141SAPE  H18R15422   2.865   0.243   8.714  1.6786  0.7979 -0.2048
  141SAPE  H18S15423   2.859   0.416   8.674 -0.5522 -0.2675 -0.5738
  141SAPE  C21915424   2.762   0.299   8.533  0.0557  0.6887  0.1073
  141SAPE  H19R15425   2.854   0.265   8.481 -2.2379 -1.9383 -2.6924
  141SAPE  H19S15426   2.731   0.400   8.499  3.5580  2.3767  1.4889
  141SAPE  C22015427   2.658   0.189   8.517  0.3339  0.4417 -0.5567
  141SAPE  H20R15428   2.560   0.229   8.550  0.3025 -0.3399  0.3316
  141SAPE  H20S15429   2.680   0.097   8.576 -4.8426 -1.5956 -1.2948
  141SAPE  H20T15430   2.631   0.159   8.414 -1.0518 -0.6316  0.0985
  141SAPE   C3315431   2.770  -0.104  10.355  0.7712 -0.1103 -0.0181
  141SAPE   H3X15432   2.701  -0.033  10.305 -0.8292 -1.3038  0.4352
  141SAPE   H3Y15433   2.716  -0.169  10.427 -0.4756  1.7601  0.8262
  141SAPE   C3415434   2.822  -0.199  10.244 -0.2799  0.1216  0.1054
  141SAPE   H4X15435   2.897  -0.267  10.290  0.4891  1.3535  0.7092
  141SAPE   H4Y15436   2.880  -0.145  10.167  0.7433  0.5281  1.1329
  141SAPE   C3515437   2.717  -0.271  10.162 -0.2038 -0.2214  0.0069
  141SAPE   H5X15438   2.633  -0.200  10.145  0.0841  0.2616  0.5589
  141SAPE   H5Y15439   2.674  -0.349  10.228 -0.7534  0.8712  0.9707
  141SAPE   C3615440   2.774  -0.333  10.033 -0.3843  0.4921  0.0705
  141SAPE   H6X15441   2.742  -0.439  10.030 -1.6584  0.8151  1.3030
  141SAPE   H6Y15442   2.883  -0.317  10.021 -0.5759  0.6212 -1.6975
  141SAPE   C3715443   2.714  -0.259   9.919 -0.1749 -0.3663  0.4072
  141SAPE   H7X15444   2.739  -0.152   9.931  2.7092 -0.4228 -3.1558
  141SAPE   H7Y15445   2.603  -0.262   9.917 -0.2882 -2.4858  3.1745
  141SAPE   C3815446   2.756  -0.319   9.789 -0.0887  0.0546 -0.0737
  141SAPE   H8X15447   2.744  -0.429   9.794 -1.4752  0.1054 -1.6171
  141SAPE   H8Y15448   2.864  -0.297   9.773 -0.1228 -0.1534 -0.6071
  141SAPE   C3915449   2.667  -0.273   9.675 -0.2308  0.1544 -0.4014
  141SAPE   H9X15450   2.692  -0.167   9.654 -1.2462  0.7187  1.0994
  141SAPE   H9Y15451   2.563  -0.267   9.715  0.3004  0.9394  0.9052
  141SAPE  C31015452   2.668  -0.375   9.565 -0.1828  1.0626  0.3445
  141SAPE  H10X15453   2.626  -0.471   9.604  1.1984 -0.3108 -1.3501
  141SAPE  H10Y15454   2.774  -0.387   9.534 -0.8035 -2.0394 -1.0252
  141SAPE  C31115455   2.587  -0.319   9.446  0.3877 -1.0864 -0.5329
  141SAPE  H11X15456   2.611  -0.211   9.436 -0.5876 -0.8056 -0.0090
  141SAPE  H11Y15457   2.479  -0.333   9.468  0.6639 -0.2652  1.4957
  141SAPE  C31215458   2.633  -0.394   9.321  0.0355  0.6019  0.7779
  141SAPE  H12X15459   2.737  -0.367   9.293 -0.2752 -0.2258 -1.3918
  141SAPE  H12Y15460   2.576  -0.346   9.239 -0.7877  2.4917  2.3876
  141SAPE  C31315461   2.615  -0.549   9.330  0.9583 -0.5439  0.1058
  141SAPE  H13X15462   2.510  -0.583   9.346  0.8833 -0.5894 -0.4484
  141SAPE  H13Y15463   2.668  -0.588   9.419  1.8375 -1.4164 -0.7676
  141SAPE  C31415464   2.655  -0.629   9.205 -0.0181 -0.4243 -0.3534
  141SAPE  H14X15465   2.651  -0.738   9.225 -0.1588 -0.4840 -0.7018
  141SAPE  H14Y15466   2.763  -0.603   9.194 -0.6807  1.7365 -2.5496
  141SAPE  C31515467   2.586  -0.589   9.078  0.3382 -0.8535  0.0906
  141SAPE  H15X15468   2.582  -0.479   9.060  1.8911 -0.7228  0.3938
  141SAPE  H15Y15469   2.478  -0.615   9.076 -0.1538  0.9934  0.4157
  141SAPE  C31615470   2.659  -0.645   8.957 -1.1149  0.0519  0.3228
  141SAPE  H16X15471   2.643  -0.755   8.955  4.1608 -1.0976  2.4695
  141SAPE  H16Y15472   2.767  -0.633   8.982 -1.5873 -1.6643  3.6574
  141SAPE  C31715473   2.625  -0.583   8.820  0.5738  0.7729 -0.1516
  141SAPE  H17X15474   2.672  -0.483   8.808  0.5331  0.9538  1.0779
  141SAPE  H17Y15475   2.517  -0.558   8.832  0.2935 -1.2476  2.4571
  141SAPE  C31815476   2.657  -0.683   8.712 -0.0600  0.3980 -0.0576
  141SAPE  H18X15477   2.581  -0.764   8.704 -1.4904  1.9059 -3.5373
  141SAPE  H18Y15478   2.750  -0.736   8.744 -0.9273 -0.7097  0.7378
  141SAPE  H18Z15479   2.677  -0.625   8.619  3.6782 -0.8847 -0.2244
  142SAPE     N15480   2.154   5.774  11.219  1.0061  0.2802  0.7929
  142SAPE   HN115481   2.058   5.766  11.257 -0.0114  0.8116 -1.5277
  142SAPE   HN215482   2.158   5.700  11.146 -1.6948 -0.0565  0.9101
  142SAPE   HN315483   2.214   5.751  11.301  0.6167  1.4220  1.4111
  142SAPE   C1215484   2.198   5.904  11.154  0.3292  0.3537  0.1509
  142SAPE  H12A15485   2.287   5.884  11.091 -1.5200 -0.9307 -2.2228
  142SAPE  H12B15486   2.216   5.971  11.240 -0.7232 -0.9490  1.4494
  142SAPE   C1115487   2.089   5.964  11.064 -0.5635 -0.1788 -0.0555
  142SAPE  H11A15488   1.991   5.975  11.115 -1.5387 -1.4009 -1.5811
  142SAPE  H11B15489   2.072   5.891  10.982  1.8572 -0.6188 -0.2388
  142SAPE     P15490   2.088   6.230  11.037 -0.0432  0.6423  0.3359
  142SAPE   O1315491   1.954   6.232  11.095  0.5819 -0.1329 -0.3282
  142SAPE   O1415492   2.199   6.293  11.114  0.0294  0.5604  0.1300
  142SAPE   O1215493   2.142   6.082  11.008  0.4164 -0.3276  0.2378
  142SAPE   O1115494   2.088   6.288  10.889  0.2807  0.0683  0.0776
  142SAPE    C115495   2.204   6.281  10.807  0.5374 -1.0864  0.0060
  142SAPE    HA15496   2.285   6.333  10.861 -0.7453  0.9220  0.1116
  142SAPE    HB15497   2.218   6.176  10.774 -1.5435 -0.7909 -2.1051
  142SAPE    C215498   2.177   6.374  10.685  0.5055  0.0443  0.3011
  142SAPE    HS15499   2.122   6.463  10.722 -0.8069  0.5326 -2.5593
  142SAPE   O2115500   2.093   6.294  10.587  0.6513  0.0017 -0.1458
  142SAPE   C2115501   2.048   6.363  10.487 -0.6620 -0.2321 -0.1232
  142SAPE   O2215502   2.040   6.484  10.490 -0.2499 -0.0224 -0.0684
  142SAPE   C2215503   2.020   6.271  10.374  0.7125 -0.3379  0.0627
  142SAPE   H2R15504   2.117   6.221  10.353  0.1481 -1.6175  0.4010
  142SAPE   H2S15505   1.938   6.202  10.404 -0.1609  0.3012 -0.7796
  142SAPE    C315506   2.319   6.419  10.629 -0.0407  0.1693 -0.0510
  142SAPE    HX15507   2.371   6.486  10.700  0.9128  1.6247 -2.0200
  142SAPE    HY15508   2.291   6.471  10.535  2.8048 -0.5371 -1.3836
  142SAPE   O3115509   2.400   6.308  10.596 -0.2567 -0.6724  0.2723
  142SAPE   C3115510   2.513   6.336  10.535 -0.1633 -0.8079  0.5243
  142SAPE   O3215511   2.538   6.450  10.494 -0.0443 -0.0363 -0.6734
  142SAPE   C3215512   2.597   6.217  10.524 -0.5745 -0.6300  0.6555
  142SAPE   H2X15513   2.535   6.134  10.482  0.6566 -1.0314 -0.4629
  142SAPE   H2Y15514   2.639   6.205  10.626  1.5658  1.6171  0.1381
  142SAPE   C2315515   1.962   6.339  10.243 -0.0805  0.2351 -0.6807
  142SAPE   H3R15516   1.888   6.415  10.275  1.4303  0.5968  2.2637
  142SAPE   H3S15517   1.908   6.268  10.177 -0.8138  2.0812 -2.1926
  142SAPE   C2415518   2.064   6.397  10.149  0.5843  0.3835  0.1634
  142SAPE   H4R15519   2.000   6.462  10.086 -0.8984 -0.0040  1.2086
  142SAPE   H4S15520   2.101   6.313  10.086  0.2297  1.9067 -2.1890
  142SAPE   C2515521   2.173   6.480  10.205  0.5826  0.1444  1.1075
  142SAPE   H5R15522   2.139   6.571  10.258 -0.8270  0.3693 -0.1123
  142SAPE   C2615523   2.306   6.452  10.189 -0.4287  0.7648  0.1869
  142SAPE   H6R15524   2.371   6.512  10.254  0.0326  1.0684 -0.5432
  142SAPE   C2715525   2.368   6.331  10.139 -0.1506  0.9184  0.2801
  142SAPE   H7R15526   2.289   6.252  10.134 -1.4946  2.3087 -1.5516
  142SAPE   H7S15527   2.436   6.294  10.219  2.1198  0.0404 -1.9093
  142SAPE   C2815528   2.441   6.334  10.011 -0.1620 -0.4719  0.2356
  142SAPE   H8R15529   2.544   6.360  10.037 -0.5655 -0.2100  1.6369
  142SAPE   C2915530   2.404   6.311   9.879  0.4616  0.2018 -0.1054
  142SAPE   H9R15531   2.481   6.323   9.802 -1.0882  0.9954 -1.5727
  142SAPE  C21015532   2.271   6.267   9.825 -0.7529 -0.8343  0.0834
  142SAPE  H10R15533   2.205   6.223   9.903 -0.5689  0.8910  1.2784
  142SAPE  H10S15534   2.295   6.189   9.750 -0.0997  0.4196 -1.0588
  142SAPE  C21115535   2.190   6.381   9.765 -0.6327  0.3959  0.4097
  142SAPE  H11R15536   2.197   6.478   9.818 -0.4445  0.8394 -0.4087
  142SAPE  C21215537   2.110   6.375   9.657 -0.6250 -0.5939  0.1862
  142SAPE  H12R15538   2.062   6.468   9.624 -0.3178 -1.0155 -1.5497
  142SAPE  C21315539   2.088   6.254   9.563  0.3459 -0.8428 -0.3030
  142SAPE  H13R15540   2.007   6.283   9.493  0.3647  1.8972  0.6733
  142SAPE  H13S15541   2.041   6.176   9.627  0.7241  0.6975  1.9931
  142SAPE  C21415542   2.210   6.203   9.495 -0.4746 -0.7023  1.0914
  142SAPE  H14R15543   2.305   6.223   9.546  0.3469 -2.2285  0.2331
  142SAPE  C21515544   2.209   6.148   9.370  0.2375  0.0621  0.4613
  142SAPE  H15R15545   2.305   6.108   9.333  0.4380  2.1139 -1.4532
  142SAPE  C21615546   2.087   6.136   9.285 -0.2112  0.5077  0.0605
  142SAPE  H16R15547   2.009   6.214   9.302  0.4191  1.1959 -0.1767
  142SAPE  H16S15548   2.054   6.032   9.306  0.5765  0.4397  0.9903
  142SAPE  C21715549   2.103   6.138   9.135 -0.1095 -0.5420  0.5348
  142SAPE  H17R15550   2.179   6.065   9.100 -2.0645 -1.7312 -1.4837
  142SAPE  H17S15551   2.149   6.233   9.101 -1.4216  0.5694  1.7226
  142SAPE  C21815552   1.973   6.094   9.070 -0.2448  0.1738  0.0507
  142SAPE  H18R15553   1.895   6.163   9.109 -0.2227 -1.3590  3.1484
  142SAPE  H18S15554   1.933   5.994   9.096 -0.1043 -0.5715 -2.2988
  142SAPE  C21915555   1.985   6.097   8.913 -0.3095  0.1335  0.1840
  142SAPE  H19R15556   2.046   6.005   8.899 -0.8442 -0.1302 -0.4504
  142SAPE  H19S15557   2.038   6.191   8.887 -0.1664 -0.1671 -0.6493
  142SAPE  C22015558   1.863   6.100   8.827  0.3705  0.5923  0.4344
  142SAPE  H20R15559   1.780   6.159   8.870 -1.1131 -1.3908  0.4491
  142SAPE  H20S15560   1.812   6.003   8.810 -0.4948  1.2709 -1.0512
  142SAPE  H20T15561   1.897   6.150   8.734 -0.1873  0.5010  0.1777
  142SAPE   C3315562   2.723   6.244  10.436 -0.6083 -0.4077  0.8997
  142SAPE   H3X15563   2.807   6.195  10.489 -0.1455  0.6123  1.1326
  142SAPE   H3Y15564   2.754   6.350  10.438  0.8829 -0.7281 -1.4485
  142SAPE   C3415565   2.721   6.195  10.293  0.2351  0.7839  0.5267
  142SAPE   H4X15566   2.811   6.233  10.240  0.3819 -1.1176 -0.6620
  142SAPE   H4Y15567   2.628   6.238  10.251  0.5881  1.2365  0.1854
  142SAPE   C3515568   2.698   6.045  10.265  0.3024  0.3704  0.1336
  142SAPE   H5X15569   2.630   5.988  10.332  1.4991 -2.7590 -1.1109
  142SAPE   H5Y15570   2.791   5.989  10.287 -0.8476 -0.9498  2.0335
  142SAPE   C3615571   2.659   6.018  10.120  0.0333  0.3011  0.1824
  142SAPE   H6X15572   2.746   6.032  10.051  0.3378  1.0456  0.7152
  142SAPE   H6Y15573   2.587   6.094  10.084  0.6972  0.5650 -0.6276
  142SAPE   C3715574   2.597   5.875  10.101 -0.9020  0.9449 -0.5603
  142SAPE   H7X15575   2.510   5.869  10.170 -1.2862 -0.7477 -1.1677
  142SAPE   H7Y15576   2.662   5.789  10.124  0.2260  1.6156 -1.1350
  142SAPE   C3815577   2.541   5.852   9.960 -0.8904  0.4994 -0.5142
  142SAPE   H8X15578   2.518   5.743   9.954  0.0196  0.2739 -0.1185
  142SAPE   H8Y15579   2.634   5.872   9.903  0.7309 -2.1100  0.9701
  142SAPE   C3915580   2.426   5.947   9.914 -0.0702  0.1914  0.1026
  142SAPE   H9X15581   2.455   6.054   9.921 -1.5018  0.5118  1.5701
  142SAPE   H9Y15582   2.356   5.933   9.998  0.3469 -0.8532  0.3004
  142SAPE  C31015583   2.360   5.899   9.786 -0.3073  0.2109 -0.0814
  142SAPE  H10X15584   2.268   5.962   9.782 -1.1412 -0.8371  1.6682
  142SAPE  H10Y15585   2.325   5.796   9.802 -2.1828  0.8060 -0.1226
  142SAPE  C31115586   2.439   5.906   9.658 -0.4964 -0.2212  0.0931
  142SAPE  H11X15587   2.534   5.849   9.665  0.9240  2.0001 -0.3162
  142SAPE  H11Y15588   2.469   6.009   9.630 -2.1518  0.3323  0.2393
  142SAPE  C31215589   2.355   5.845   9.545 -0.2271 -0.2210  0.1821
  142SAPE  H12X15590   2.261   5.904   9.539  0.5326  0.8358 -2.4832
  142SAPE  H12Y15591   2.325   5.739   9.563 -0.6384 -0.4762 -1.8216
  142SAPE  C31315592   2.427   5.848   9.409 -0.5767  0.6337 -0.1009
  142SAPE  H13X15593   2.512   5.776   9.414 -0.3291  0.9943  1.3836
  142SAPE  H13Y15594   2.482   5.944   9.412  0.8428 -0.1643  1.1487
  142SAPE  C31415595   2.348   5.831   9.277 -0.9114  0.5438 -0.6283
  142SAPE  H14X15596   2.254   5.883   9.305 -0.6105  0.3198  0.9044
  142SAPE  H14Y15597   2.322   5.724   9.261 -1.4563  0.7996 -1.5020
  142SAPE  C31515598   2.421   5.884   9.155  0.0796 -0.5045 -0.6418
  142SAPE  H15X15599   2.522   5.838   9.161 -0.3907 -1.8666 -2.1610
  142SAPE  H15Y15600   2.435   5.994   9.163  0.5192 -0.6653  1.1716
  142SAPE  C31615601   2.353   5.842   9.027 -0.0416 -0.1184 -0.2113
  142SAPE  H16X15602   2.251   5.885   9.027  0.8166  2.1323  1.4687
  142SAPE  H16Y15603   2.322   5.736   9.042 -1.6963  0.5581  1.5826
  142SAPE  C31715604   2.424   5.891   8.901 -0.1958  0.4724  0.1130
  142SAPE  H17X15605   2.532   5.865   8.901 -0.2250  0.1817 -2.0659
  142SAPE  H17Y15606   2.421   6.001   8.890  1.7843  0.5526  0.0485
  142SAPE  C31815607   2.358   5.817   8.782 -0.0215 -0.0510 -0.3621
  142SAPE  H18X15608   2.249   5.835   8.769 -0.0639  0.2033  0.3004
  142SAPE  H18Y15609   2.376   5.708   8.792  0.5110  0.0725  0.0721
  142SAPE  H18Z15610   2.412   5.834   8.686  0.2559 -0.2116 -0.2354
  143SAPE     N15611   4.977   5.568  10.908  0.1299 -0.3983  0.2182
  143SAPE   HN115612   4.905   5.506  10.949 -1.3972 -0.2241 -2.0431
  143SAPE   HN215613   4.952   5.588  10.809 -0.9638 -2.4061  0.0512
  143SAPE   HN315614   5.066   5.514  10.914 -1.4144 -2.9406  2.3193
  143SAPE   C1215615   5.002   5.692  10.990  0.3692  0.5324  0.0194
  143SAPE  H12A15616   5.025   5.663  11.095  2.7260 -1.4260 -0.9325
  143SAPE  H12B15617   4.915   5.760  10.991 -0.2749 -0.2696  1.6549
  143SAPE   C1115618   5.115   5.769  10.928 -0.6964 -0.1917  0.8971
  143SAPE  H11A15619   5.113   5.870  10.974 -0.5148  1.3633 -2.2324
  143SAPE  H11B15620   5.099   5.777  10.818  4.1541  1.2138  0.0824
  143SAPE     P15621   5.350   5.727  11.035 -0.1386  0.2488 -0.2123
  143SAPE   O1315622   5.294   5.808  11.149  0.4478  0.0278  0.1111
  143SAPE   O1415623   5.421   5.602  11.070  0.1793 -0.2511  0.6349
  143SAPE   O1215624   5.231   5.686  10.943 -0.2273  0.3014 -0.6170
  143SAPE   O1115625   5.425   5.816  10.936 -0.0598 -0.3932  0.3870
  143SAPE    C115626   5.409   5.855  10.797 -0.0592  0.7703 -0.4190
  143SAPE    HA15627   5.314   5.907  10.774 -1.8162 -2.7636 -1.9380
  143SAPE    HB15628   5.493   5.925  10.776  0.9769 -0.1734  0.4331
  143SAPE    C215629   5.413   5.735  10.701  0.2711 -0.5610 -0.5915
  143SAPE    HS15630   5.329   5.667  10.727  1.4766 -1.6007  0.7563
  143SAPE   O2115631   5.536   5.676  10.726  0.4923  0.1218 -0.7276
  143SAPE   C2115632   5.537   5.548  10.714  0.4127  0.6326  0.3567
  143SAPE   O2215633   5.441   5.477  10.687  0.1512  0.1273  0.1394
  143SAPE   C2215634   5.675   5.494  10.736 -0.4424 -0.1015  0.0268
  143SAPE   H2R15635   5.699   5.521  10.841 -1.1485  1.1140 -0.1130
  143SAPE   H2S15636   5.667   5.384  10.724 -2.2188  0.2113 -2.5164
  143SAPE    C315637   5.407   5.784  10.550 -0.4086  0.1128  0.3807
  143SAPE    HX15638   5.503   5.839  10.540 -0.7093  0.8043  1.1776
  143SAPE    HY15639   5.330   5.859  10.521 -0.1254 -0.7081 -2.8650
  143SAPE   O3115640   5.388   5.679  10.455 -0.1581 -0.2630  0.1151
  143SAPE   C3115641   5.266   5.646  10.424  0.1409 -0.3474  0.0219
  143SAPE   O3215642   5.168   5.706  10.468  0.0024  0.1659  0.4573
  143SAPE   C3215643   5.267   5.538  10.313 -0.6046 -0.1643  0.0206
  143SAPE   H2X15644   5.351   5.467  10.329 -0.2502  0.1118 -0.5963
  143SAPE   H2Y15645   5.283   5.586  10.215 -4.6981  1.2112 -0.1764
  143SAPE   C2315646   5.770   5.567  10.638  0.0495  0.7800 -0.4073
  143SAPE   H3R15647   5.873   5.539  10.667 -0.1118  0.4739 -0.1264
  143SAPE   H3S15648   5.758   5.677  10.648 -0.1675  0.6926  0.3339
  143SAPE   C2415649   5.770   5.523  10.491 -0.1745 -0.2439  0.2668
  143SAPE   H4R15650   5.672   5.545  10.444 -0.4109  1.9210  1.6441
  143SAPE   H4S15651   5.808   5.420  10.472  0.4846  0.0460 -0.0091
  143SAPE   C2515652   5.868   5.612  10.409  0.4851  0.6104  0.0403
  143SAPE   H5R15653   5.934   5.668  10.478 -1.5371  1.3665  1.4466
  143SAPE   C2615654   5.873   5.619  10.274  0.5017 -0.3791  0.1193
  143SAPE   H6R15655   5.950   5.685  10.231 -0.5990  1.3193  0.6462
  143SAPE   C2715656   5.788   5.527  10.180 -0.0366 -0.6079 -0.3544
  143SAPE   H7R15657   5.698   5.501  10.240 -0.1341 -0.0078 -0.2280
  143SAPE   H7S15658   5.845   5.433  10.168 -0.3757 -0.7996 -0.4599
  143SAPE   C2815659   5.760   5.586  10.050  0.3960  0.0161  0.1306
  143SAPE   H8R15660   5.848   5.612   9.988 -0.6077 -0.9384 -1.7839
  143SAPE   C2915661   5.643   5.607   9.992 -0.4099  0.8255  0.2211
  143SAPE   H9R15662   5.651   5.665   9.899  2.3211 -0.3135 -0.3529
  143SAPE  C21015663   5.511   5.571  10.047  0.4928  0.2343  0.5499
  143SAPE  H10R15664   5.503   5.555  10.156 -2.8830  0.5106  0.4444
  143SAPE  H10S15665   5.476   5.477   9.998 -0.7789  0.6603  0.6101
  143SAPE  C21115666   5.420   5.693  10.012  0.1404  0.2356 -0.3506
  143SAPE  H11R15667   5.402   5.771  10.088 -0.5311  0.5637 -0.8412
  143SAPE  C21215668   5.349   5.703   9.894 -0.1159  0.1728 -0.0020
  143SAPE  H12R15669   5.276   5.784   9.882 -0.3482 -0.1608 -0.8836
  143SAPE  C21315670   5.354   5.598   9.786  0.2452 -0.5215 -0.8116
  143SAPE  H13R15671   5.254   5.550   9.785 -0.1094  0.2014 -0.7212
  143SAPE  H13S15672   5.430   5.519   9.805 -1.1358 -1.5146  0.9447
  143SAPE  C21415673   5.372   5.663   9.652 -0.1239  0.0590 -1.1214
  143SAPE  H14R15674   5.455   5.735   9.652  0.3363 -0.4581 -2.0530
  143SAPE  C21515675   5.289   5.639   9.546  1.0008  0.5193  0.3530
  143SAPE  H15R15676   5.316   5.675   9.445  0.7323 -1.7676 -0.5815
  143SAPE  C21615677   5.170   5.547   9.547 -0.2084  0.1483 -0.3958
  143SAPE  H16R15678   5.091   5.586   9.616  0.6403 -2.1116  2.0212
  143SAPE  H16S15679   5.197   5.446   9.586  2.5752  0.5942 -1.0218
  143SAPE  C21715680   5.109   5.529   9.401 -0.0621  0.2606 -0.5535
  143SAPE  H17R15681   5.096   5.626   9.350 -1.5788  1.2900  1.6502
  143SAPE  H17S15682   5.004   5.497   9.413  0.3924 -0.4222  2.4370
  143SAPE  C21815683   5.188   5.425   9.313  0.5541 -0.2040 -0.1265
  143SAPE  H18R15684   5.203   5.330   9.369  1.1154 -0.4076 -0.6100
  143SAPE  H18S15685   5.289   5.467   9.296  0.5731  0.5041  1.5303
  143SAPE  C21915686   5.116   5.389   9.177  0.4185 -0.4191 -0.6785
  143SAPE  H19R15687   5.010   5.369   9.201  0.2107  2.0990  0.8252
  143SAPE  H19S15688   5.172   5.314   9.116  0.4663 -0.5102 -0.5232
  143SAPE  C22015689   5.110   5.504   9.083 -0.1245 -0.3937 -0.0618
  143SAPE  H20R15690   5.037   5.574   9.129 -0.5749 -0.4752 -0.6367
  143SAPE  H20S15691   5.067   5.485   8.982  2.0227  0.9384 -1.3086
  143SAPE  H20T15692   5.211   5.547   9.071  0.1767 -1.1517 -0.3172
  143SAPE   C3315693   5.137   5.456  10.309  0.1782  0.0854  0.5505
  143SAPE   H3X15694   5.049   5.522  10.290  1.0215  0.7092 -1.4604
  143SAPE   H3Y15695   5.132   5.402  10.406  1.9054 -0.9631  0.0993
  143SAPE   C3415696   5.123   5.363  10.188  0.2955  0.3017  0.2888
  143SAPE   H4X15697   5.115   5.426  10.097 -0.3533  1.6438  1.2418
  143SAPE   H4Y15698   5.035   5.294  10.184  0.9487 -0.5590 -2.9964
  143SAPE   C3515699   5.249   5.275  10.178 -0.3232  0.5054  0.7633
  143SAPE   H5X15700   5.262   5.224  10.276  1.2103 -0.1105  0.2816
  143SAPE   H5Y15701   5.344   5.329  10.156  0.7907 -1.7988 -0.3516
  143SAPE   C3615702   5.242   5.171  10.065  0.4011 -0.7351 -0.4345
  143SAPE   H6X15703   5.184   5.091  10.115  0.6573 -0.1839  0.7945
  143SAPE   H6Y15704   5.337   5.122  10.037  0.7516  0.8619 -2.2948
  143SAPE   C3715705   5.162   5.210   9.940  0.1571  0.0747  0.2967
  143SAPE   H7X15706   5.209   5.305   9.906  0.9942 -0.3988  0.1125
  143SAPE   H7Y15707   5.056   5.231   9.968 -0.2697 -1.9639  0.3359
  143SAPE   C3815708   5.162   5.105   9.826 -0.1861 -0.1490 -0.9337
  143SAPE   H8X15709   5.129   5.009   9.872 -0.8699  0.7903  0.6150
  143SAPE   H8Y15710   5.267   5.101   9.791  0.3632  0.9141  0.4845
  143SAPE   C3915711   5.057   5.133   9.721  0.8271 -0.1655 -0.7016
  143SAPE   H9X15712   5.058   5.243   9.707 -1.1046  0.1632  1.1623
  143SAPE   H9Y15713   4.957   5.097   9.754  1.2548 -0.8172 -0.1020
  143SAPE  C31015714   5.094   5.060   9.596 -0.9541  0.2207  0.3840
  143SAPE  H10X15715   5.106   4.951   9.613 -0.2632  0.5812  2.5945
  143SAPE  H10Y15716   5.192   5.100   9.561 -0.2887 -0.0097  1.8938
  143SAPE  C31115717   5.001   5.073   9.472  0.3039  0.4491  0.7758
  143SAPE  H11X15718   4.978   5.182   9.472 -0.9647  0.2136 -0.2364
  143SAPE  H11Y15719   4.908   5.016   9.492  1.1593 -0.8241  1.2468
  143SAPE  C31215720   5.055   5.022   9.338 -0.5242 -0.5050  0.1058
  143SAPE  H12X15721   5.077   4.914   9.351 -0.8438 -0.3575  2.2935
  143SAPE  H12Y15722   5.149   5.081   9.324 -1.0457  0.0264 -1.3416
  143SAPE  C31315723   4.975   5.057   9.211 -0.2655  0.0122 -0.6677
  143SAPE  H13X15724   4.941   5.163   9.199 -1.0060 -0.1932 -0.4574
  143SAPE  H13Y15725   4.878   5.006   9.226  0.2758 -0.7975  0.1162
  143SAPE  C31415726   5.048   5.019   9.077 -0.0501 -0.4849 -0.1807
  143SAPE  H14X15727   5.088   4.916   9.084 -2.2398 -1.3115  0.9492
  143SAPE  H14Y15728   5.132   5.091   9.061 -0.3202  0.1525  1.1034
  143SAPE  C31515729   4.948   5.015   8.963 -0.6712 -0.2596 -0.1104
  143SAPE  H15X15730   4.913   5.119   8.942  1.3916  0.3327 -0.9600
  143SAPE  H15Y15731   4.864   4.950   8.995  0.4178 -1.5833  0.1582
  143SAPE  C31615732   5.011   4.957   8.838  0.0927 -0.2809  0.3237
  143SAPE  H16X15733   5.029   4.850   8.861 -2.0440 -0.4157  1.5581
  143SAPE  H16Y15734   5.110   5.005   8.819 -0.2768  1.0029  1.4998
  143SAPE  C31715735   4.928   4.965   8.709 -0.0457 -0.5258  0.4312
  143SAPE  H17X15736   4.833   4.912   8.732 -1.5080  1.5003 -0.6839
  143SAPE  H17Y15737   4.994   4.920   8.632  2.1978  0.1689  1.8239
  143SAPE  C31815738   4.898   5.102   8.654  0.2712  0.0228  0.0384
  143SAPE  H18X15739   4.809   5.144   8.705 -0.9948  1.5628 -3.1825
  143SAPE  H18Y15740   4.877   5.103   8.545 -0.7283 -0.0880  0.2237
  143SAPE  H18Z15741   4.982   5.172   8.675 -0.4550  0.7159  0.7044
  144SAPE     N15742   1.773   2.253  10.875 -0.2596 -0.2589 -0.7734
  144SAPE   HN115743   1.726   2.183  10.814 -1.5102 -1.5197  1.5242
  144SAPE   HN215744   1.822   2.323  10.816  0.7424 -1.3202 -1.2376
  144SAPE   HN315745   1.851   2.201  10.920  1.4125  1.7746 -1.1551
  144SAPE   C1215746   1.673   2.304  10.979  0.0498 -0.6917 -0.1605
  144SAPE  H12A15747   1.741   2.366  11.040  0.3778  1.1242 -2.2273
  144SAPE  H12B15748   1.636   2.226  11.049  0.1924  0.6778  1.4850
  144SAPE   C1115749   1.565   2.389  10.917  0.0833  0.0195  0.2408
  144SAPE  H11A15750   1.497   2.317  10.867 -0.5405  1.5102 -1.1504
  144SAPE  H11B15751   1.613   2.457  10.843  0.2082 -0.7533 -0.3978
  144SAPE     P15752   1.519   2.621  11.044  0.2131  0.6733 -0.2565
  144SAPE   O1315753   1.398   2.664  11.116  0.1733 -0.2664 -0.2524
  144SAPE   O1415754   1.650   2.650  11.099  0.0319  0.4845  0.1477
  144SAPE   O1215755   1.497   2.457  11.028 -0.4776 -0.0774  0.3519
  144SAPE   O1115756   1.522   2.672  10.895 -0.0439 -0.9531  0.3052
  144SAPE    C115757   1.411   2.670  10.814 -0.8444  0.0521 -0.4828
  144SAPE    HA15758   1.351   2.578  10.830  0.1765 -0.3396  1.2910
  144SAPE    HB15759   1.344   2.757  10.825 -0.7312  0.1470 -0.5375
  144SAPE    C215760   1.441   2.679  10.659  0.2853  0.1614 -0.7371
  144SAPE    HS15761   1.357   2.730  10.607 -0.1638 -0.0717 -0.2444
  144SAPE   O2115762   1.449   2.543  10.601  0.7156 -0.5331 -0.3090
  144SAPE   C2115763   1.333   2.471  10.597 -0.1814 -1.0771 -0.3349
  144SAPE   O2215764   1.221   2.516  10.613 -0.1380  0.5135 -0.8256
  144SAPE   C2215765   1.363   2.329  10.566  0.1941 -0.0649  0.2140
  144SAPE   H2R15766   1.472   2.308  10.570  0.3167  0.7147  1.7956
  144SAPE   H2S15767   1.311   2.273  10.647 -1.5865  0.5380 -0.4559
  144SAPE    C315768   1.582   2.760  10.626  1.0575  0.0982 -0.8764
  144SAPE    HX15769   1.659   2.702  10.681 -0.4464 -2.5686 -1.3885
  144SAPE    HY15770   1.576   2.853  10.688 -1.5402 -1.2591  1.1286
  144SAPE   O3115771   1.613   2.770  10.483  0.1769  0.1682 -0.2741
  144SAPE   C3115772   1.552   2.870  10.422 -0.5894  0.3807 -0.2129
  144SAPE   O3215773   1.507   2.972  10.480 -0.0324 -0.0977 -0.5530
  144SAPE   C3215774   1.555   2.839  10.269 -0.1276  0.0605 -0.1861
  144SAPE   H2X15775   1.487   2.752  10.255  1.3048 -1.0585 -0.3918
  144SAPE   H2Y15776   1.659   2.811  10.242 -0.4944 -0.3388 -1.2433
  144SAPE   C2315777   1.302   2.265  10.435  0.0763 -0.3512  0.2580
  144SAPE   H3R15778   1.197   2.300  10.437  0.7261  1.6909  1.1860
  144SAPE   H3S15779   1.292   2.155  10.440 -1.8493 -0.2138  0.2780
  144SAPE   C2415780   1.377   2.304  10.309 -0.3472 -0.1578  0.7768
  144SAPE   H4R15781   1.472   2.246  10.314  2.0826  3.3666 -0.2743
  144SAPE   H4S15782   1.410   2.410  10.308 -2.7453  0.6503 -0.5043
  144SAPE   C2515783   1.300   2.253  10.196  0.2105  0.5624 -0.2163
  144SAPE   H5R15784   1.203   2.303  10.183  2.1418  4.3308 -1.5770
  144SAPE   C2615785   1.341   2.165  10.097  0.4836 -0.2878 -0.6745
  144SAPE   H6R15786   1.275   2.142  10.012 -1.2775 -1.4703  0.9168
  144SAPE   C2715787   1.470   2.083  10.100  0.6186 -0.2951 -0.0528
  144SAPE   H7R15788   1.442   1.977  10.122  2.0513 -1.0249 -1.5081
  144SAPE   H7S15789   1.536   2.106  10.186  3.1199 -0.2346 -1.8925
  144SAPE   C2815790   1.551   2.099   9.976  0.0421 -0.4926 -0.1381
  144SAPE   H8R15791   1.645   2.154   9.992  0.4550 -1.1757 -0.1735
  144SAPE   C2915792   1.512   2.070   9.848 -0.6032  0.2293  0.3224
  144SAPE   H9R15793   1.587   2.076   9.768 -0.5440 -1.0661  0.2607
  144SAPE  C21015794   1.384   2.003   9.811 -0.2570 -0.4801 -0.0668
  144SAPE  H10R15795   1.325   1.984   9.903 -1.8412  2.6957 -0.2750
  144SAPE  H10S15796   1.406   1.909   9.756  1.2610  1.1324 -2.4129
  144SAPE  C21115797   1.306   2.102   9.735  0.5364  0.1463  1.3828
  144SAPE  H11R15798   1.238   2.170   9.789  0.1884  0.0299  1.0986
  144SAPE  C21215799   1.287   2.110   9.596  0.1381 -0.5338 -0.2389
  144SAPE  H12R15800   1.229   2.188   9.545 -0.3456 -1.1730 -0.6823
  144SAPE  C21315801   1.365   2.027   9.500  0.0842 -0.1459 -0.4852
  144SAPE  H13R15802   1.290   1.980   9.433 -2.3761  0.4020  1.6987
  144SAPE  H13S15803   1.418   1.938   9.539 -0.0283 -0.3462 -0.7914
  144SAPE  C21415804   1.466   2.110   9.423 -0.5925  0.0725  0.1342
  144SAPE  H14R15805   1.524   2.164   9.499 -1.5124  0.5498  0.5184
  144SAPE  C21515806   1.494   2.115   9.292  0.0854  0.1473 -0.1821
  144SAPE  H15R15807   1.580   2.174   9.257  0.8294 -1.2647 -0.8136
  144SAPE  C21615808   1.426   2.032   9.186 -0.8152  0.0451 -0.2758
  144SAPE  H16R15809   1.332   1.993   9.230 -1.3777 -1.3630 -2.5513
  144SAPE  H16S15810   1.488   1.951   9.141  0.2041 -0.0015  1.1506
  144SAPE  C21715811   1.390   2.118   9.070 -0.6425 -0.5175  0.6860
  144SAPE  H17R15812   1.476   2.170   9.023  0.1750  0.4752  3.0939
  144SAPE  H17S15813   1.326   2.204   9.097 -0.3492 -0.4026  1.0311
  144SAPE  C21815814   1.299   2.053   8.960  0.3008 -0.3102 -0.0996
  144SAPE  H18R15815   1.231   2.133   8.923 -0.7901 -0.3978  1.6033
  144SAPE  H18S15816   1.241   1.975   9.014 -1.3445  1.5259  0.9230
  144SAPE  C21915817   1.364   1.992   8.840 -0.1272 -0.6805 -0.5745
  144SAPE  H19R15818   1.425   1.903   8.866  1.6860  0.4938 -0.6771
  144SAPE  H19S15819   1.433   2.063   8.790 -0.3946  0.4850  0.6527
  144SAPE  C22015820   1.261   1.943   8.737  0.6750 -0.3449  0.0584
  144SAPE  H20R15821   1.211   2.026   8.682  1.3764  0.1146  0.1124
  144SAPE  H20S15822   1.182   1.885   8.791  0.5445  0.3356  0.6100
  144SAPE  H20T15823   1.308   1.880   8.658  2.2388  0.8215  0.0253
  144SAPE   C3315824   1.504   2.956  10.181 -0.4622 -0.1369 -0.5018
  144SAPE   H3X15825   1.561   3.049  10.204  2.1364 -1.5211 -0.9500
  144SAPE   H3Y15826   1.396   2.965  10.206 -0.4894 -1.8979  0.1124
  144SAPE   C3415827   1.526   2.922  10.039  0.0449 -0.3766 -0.4082
  144SAPE   H4X15828   1.469   2.828  10.022 -3.0604  1.1145  1.0514
  144SAPE   H4Y15829   1.635   2.903  10.023  0.0689 -0.1620 -0.5010
  144SAPE   C3515830   1.464   3.019   9.933 -0.1766 -0.0898 -0.2240
  144SAPE   H5X15831   1.506   3.122   9.942 -1.3444  0.4296 -0.4890
  144SAPE   H5Y15832   1.355   3.029   9.951 -0.1512  0.4142 -0.3132
  144SAPE   C3615833   1.492   2.967   9.791  0.0699 -0.3254 -0.5120
  144SAPE   H6X15834   1.452   2.865   9.775  1.3242 -0.7549 -1.0684
  144SAPE   H6Y15835   1.601   2.949   9.800 -0.1723 -1.1783  1.2131
  144SAPE   C3715836   1.456   3.056   9.671  0.8687  0.4975 -0.0390
  144SAPE   H7X15837   1.526   3.140   9.654  1.9408 -0.3808 -0.1271
  144SAPE   H7Y15838   1.352   3.089   9.691  1.0624  1.8707 -1.2146
  144SAPE   C3815839   1.454   2.979   9.536  0.1451 -0.2910 -0.2630
  144SAPE   H8X15840   1.382   2.895   9.542 -1.2050  0.9085  2.3265
  144SAPE   H8Y15841   1.551   2.925   9.531  0.8798  0.7429  1.5604
  144SAPE   C3915842   1.411   3.059   9.422  0.0927 -0.4757 -0.1217
  144SAPE   H9X15843   1.481   3.145   9.415 -2.3409  2.0796  3.1688
  144SAPE   H9Y15844   1.317   3.108   9.453  1.3193  0.9458  1.5622
  144SAPE  C31015845   1.411   2.977   9.296 -0.0319  0.5457 -0.1261
  144SAPE  H10X15846   1.348   2.890   9.325  1.6827 -0.2889  1.3414
  144SAPE  H10Y15847   1.511   2.932   9.274 -0.2382  1.1762 -2.7227
  144SAPE  C31115848   1.348   3.043   9.176  0.0717 -0.7897 -0.1573
  144SAPE  H11X15849   1.259   3.096   9.216  2.0658  2.3077  0.5265
  144SAPE  H11Y15850   1.297   2.978   9.103 -1.6504  0.5046 -0.1812
  144SAPE  C31215851   1.439   3.136   9.101  0.0360  0.2617  0.8378
  144SAPE  H12X15852   1.530   3.150   9.164 -0.0534 -1.6597  1.4471
  144SAPE  H12Y15853   1.404   3.240   9.083  1.3113  0.6403  0.4124
  144SAPE  C31315854   1.466   3.081   8.957 -0.6210 -0.6998 -0.4622
  144SAPE  H13X15855   1.372   3.029   8.928 -1.0153 -1.4151  1.8214
  144SAPE  H13Y15856   1.538   2.996   8.956 -0.0384 -0.2143 -0.3722
  144SAPE  C31415857   1.509   3.190   8.860 -0.2233 -0.4993 -0.2937
  144SAPE  H14X15858   1.607   3.229   8.895 -0.2797  0.7228 -1.4094
  144SAPE  H14Y15859   1.445   3.280   8.870  1.4219  0.6518  0.2777
  144SAPE  C31515860   1.520   3.152   8.708  0.4034  0.1252 -0.4172
  144SAPE  H15X15861   1.414   3.143   8.675  0.7311 -0.4484 -1.3769
  144SAPE  H15Y15862   1.562   3.051   8.687 -1.6186 -0.8429 -0.1052
  144SAPE  C31615863   1.596   3.244   8.628  0.2263 -0.6496 -0.1735
  144SAPE  H16X15864   1.701   3.218   8.654  0.3681 -1.2061 -1.2494
  144SAPE  H16Y15865   1.562   3.343   8.664  0.5459  0.3932 -2.5894
  144SAPE  C31715866   1.582   3.239   8.480 -0.5337  0.3097 -0.3561
  144SAPE  H17X15867   1.585   3.346   8.452 -2.0887  1.4246  3.0775
  144SAPE  H17Y15868   1.481   3.207   8.448 -0.2714 -1.1509  0.1867
  144SAPE  C31815869   1.691   3.155   8.413  0.5054  0.5779  0.5783
  144SAPE  H18X15870   1.791   3.200   8.429  0.0082  1.4180  1.4437
  144SAPE  H18Y15871   1.676   3.168   8.304  1.5943  0.1060  0.3656
  144SAPE  H18Z15872   1.675   3.045   8.417 -1.4499  0.5910 -2.7100
  145SAPE     N15873   5.426   5.769  11.421  0.7044  0.1763  0.2311
  145SAPE   HN115874   5.425   5.748  11.319 -1.7312 -1.0068  0.4384
  145SAPE   HN215875   5.358   5.847  11.425 -0.5640 -0.9307  1.1832
  145SAPE   HN315876   5.521   5.809  11.435  1.0357 -0.6302  0.3366
  145SAPE   C1215877   5.411   5.642  11.500  0.5234 -0.2381  0.1522
  145SAPE  H12A15878   5.307   5.612  11.474  0.2634  1.4171 -0.9238
  145SAPE  H12B15879   5.414   5.666  11.608 -3.0491 -0.8586  0.4923
  145SAPE   C1115880   5.509   5.533  11.455 -0.6742  0.5759 -0.3368
  145SAPE  H11A15881   5.488   5.517  11.347 -0.5537 -0.3705 -0.2278
  145SAPE  H11B15882   5.491   5.439  11.512  0.0003 -0.2820 -1.5126
  145SAPE     P15883   5.785   5.501  11.481  0.1033 -0.3805  0.0172
  145SAPE   O1315884   5.893   5.607  11.489 -0.4845 -0.4061 -0.1778
  145SAPE   O1415885   5.783   5.408  11.597 -0.2580  0.4436 -0.4080
  145SAPE   O1215886   5.646   5.582  11.467 -0.0698 -0.1486 -0.4180
  145SAPE   O1115887   5.797   5.420  11.348  0.0656 -1.0660 -0.2547
  145SAPE    C115888   5.766   5.491  11.226 -0.8113 -0.0184 -0.3466
  145SAPE    HA15889   5.753   5.415  11.146 -0.8597 -1.0199  0.5749
  145SAPE    HB15890   5.665   5.537  11.229 -0.7323  0.1541 -0.3161
  145SAPE    C215891   5.874   5.603  11.183 -0.3710 -0.1749 -0.3795
  145SAPE    HS15892   5.864   5.685  11.257 -1.1213 -0.9421  0.3869
  145SAPE   O2115893   5.828   5.660  11.055  0.4512  0.2194  0.6704
  145SAPE   C2115894   5.885   5.785  11.019 -0.3044  0.2505  0.2859
  145SAPE   O2215895   5.968   5.839  11.092  0.0216  1.0380  0.1572
  145SAPE   C2215896   5.852   5.824  10.878  0.0598  0.4113  0.3642
  145SAPE   H2R15897   5.863   5.739  10.806 -0.6487  1.9944 -1.7278
  145SAPE   H2S15898   5.743   5.847  10.885  0.1118  1.0107 -0.6026
  145SAPE    C315899   6.015   5.549  11.177 -0.5973 -0.3922  0.6014
  145SAPE    HX15900   6.054   5.516  11.276  3.3110 -0.2821 -0.7502
  145SAPE    HY15901   6.090   5.628  11.158  0.3242 -0.2823  3.9827
  145SAPE   O3115902   6.019   5.438  11.087  0.3275  0.0467 -0.5972
  145SAPE   C3115903   6.042   5.463  10.961  0.1233  0.0503  0.1616
  145SAPE   O3215904   6.087   5.568  10.918  0.4504  0.2072  0.6544
  145SAPE   C3215905   5.999   5.333  10.882  0.3055  0.4254  0.2166
  145SAPE   H2X15906   5.891   5.338  10.859  0.2425 -0.5360  0.2596
  145SAPE   H2Y15907   6.010   5.245  10.950 -1.0705  0.5772  0.6612
  145SAPE   C2315908   5.930   5.944  10.827  0.5143  0.7729  0.1714
  145SAPE   H3R15909   6.037   5.920  10.840  0.2309  0.3829  1.9882
  145SAPE   H3S15910   5.918   6.018  10.909 -0.7484 -1.9555  2.6347
  145SAPE   C2415911   5.901   6.005  10.696 -0.0442  0.9826  0.7080
  145SAPE   H4R15912   5.919   5.928  10.618  0.6579  0.6866  1.1534
  145SAPE   H4S15913   5.969   6.091  10.680  0.1682  0.8959  1.1275
  145SAPE   C2515914   5.750   6.048  10.683  0.2089 -1.0532  0.2080
  145SAPE   H5R15915   5.706   6.079  10.779  0.4462 -0.3698  0.0996
  145SAPE   C2615916   5.698   6.084  10.563  0.6559 -0.0739 -1.4848
  145SAPE   H6R15917   5.593   6.118  10.564 -0.1421 -2.2917 -0.5058
  145SAPE   C2715918   5.751   6.073  10.420 -0.1402 -0.0787 -0.8480
  145SAPE   H7R15919   5.862   6.066  10.418 -0.1313  0.1160 -1.0855
  145SAPE   H7S15920   5.719   6.159  10.358 -0.4783 -0.4759 -1.2262
  145SAPE   C2815921   5.706   5.938  10.378  0.2289  0.5184 -0.0679
  145SAPE   H8R15922   5.746   5.859  10.442 -0.5409  0.3167  0.1769
  145SAPE   C2915923   5.649   5.905  10.257  0.1775 -0.7149 -1.3500
  145SAPE   H9R15924   5.619   5.800  10.246  1.9258 -1.4818  0.6845
  145SAPE  C21015925   5.618   6.008  10.151 -0.0051 -0.2649 -0.1862
  145SAPE  H10R15926   5.550   6.089  10.185  0.5587  0.5439 -0.9142
  145SAPE  H10S15927   5.565   5.949  10.073 -1.8967  1.3741 -0.2259
  145SAPE  C21115928   5.741   6.073  10.080  0.1162  0.9842 -0.3857
  145SAPE  H11R15929   5.832   6.090  10.139 -0.6659  2.0568  0.5553
  145SAPE  C21215930   5.754   6.082   9.949 -0.0835  0.2528  0.0382
  145SAPE  H12R15931   5.842   6.138   9.916  0.8947 -1.9192 -1.2311
  145SAPE  C21315932   5.659   6.053   9.836  0.2448 -0.0261 -0.4737
  145SAPE  H13R15933   5.616   5.953   9.856  0.5493 -0.2138 -0.7458
  145SAPE  H13S15934   5.707   6.025   9.740  1.4531 -0.9436  0.3729
  145SAPE  C21415935   5.543   6.155   9.823  0.2749  0.5588 -0.0333
  145SAPE  H14R15936   5.531   6.208   9.918  3.1392 -0.2720  0.8982
  145SAPE  C21515937   5.469   6.186   9.716 -0.0418 -0.3295  0.0427
  145SAPE  H15R15938   5.401   6.272   9.720 -1.4480 -1.4570  3.4699
  145SAPE  C21615939   5.494   6.129   9.576  0.3964  0.0856  0.5843
  145SAPE  H16R15940   5.529   6.024   9.573  0.1928  0.0397 -1.9455
  145SAPE  H16S15941   5.571   6.180   9.516  2.7569 -2.7416  0.9748
  145SAPE  C21715942   5.362   6.125   9.493  0.4287  0.2514  0.3472
  145SAPE  H17R15943   5.336   6.231   9.473  1.2432  0.5019  0.5832
  145SAPE  H17S15944   5.278   6.074   9.546  0.0107  0.5793  0.0096
  145SAPE  C21815945   5.371   6.039   9.362 -0.9832  0.0974  0.0518
  145SAPE  H18R15946   5.380   5.932   9.391  1.2178  0.4100  0.7071
  145SAPE  H18S15947   5.463   6.062   9.305 -1.0801  1.1338  0.2997
  145SAPE  C21915948   5.243   6.054   9.275 -0.9198 -0.2374 -0.3804
  145SAPE  H19R15949   5.152   6.034   9.335 -0.1614  1.4465  1.4783
  145SAPE  H19S15950   5.253   5.982   9.191  0.1492 -0.5658  0.0148
  145SAPE  C22015951   5.215   6.188   9.224 -0.2761  0.0330  0.6228
  145SAPE  H20R15952   5.227   6.266   9.303 -2.1198  0.6683  0.3300
  145SAPE  H20S15953   5.106   6.177   9.205 -0.3931  0.9943  0.6765
  145SAPE  H20T15954   5.263   6.223   9.131 -0.0533 -2.9410 -0.4827
  145SAPE   C3315955   6.071   5.335  10.752 -1.0129  0.9164  0.2610
  145SAPE   H3X15956   6.171   5.288  10.763 -0.8638  1.0677 -0.4185
  145SAPE   H3Y15957   6.076   5.434  10.702 -1.0281  0.0566 -1.5029
  145SAPE   C3415958   5.992   5.252  10.656 -0.6226 -0.6068 -0.0451
  145SAPE   H4X15959   5.896   5.304  10.635  0.3017  1.5975  0.8042
  145SAPE   H4Y15960   5.958   5.159  10.706  0.4247 -0.6939  0.5422
  145SAPE   C3515961   6.084   5.196  10.542  0.0621 -0.0426 -0.4041
  145SAPE   H5X15962   6.161   5.135  10.593 -0.5011 -1.0923 -0.7729
  145SAPE   H5Y15963   6.126   5.291  10.503  0.4261 -0.1295 -0.2206
  145SAPE   C3615964   6.006   5.100  10.452  0.2419 -0.0514 -0.2103
  145SAPE   H6X15965   5.914   5.146  10.410 -0.2075  0.3666  1.1877
  145SAPE   H6Y15966   5.977   5.003  10.497  1.2159 -0.6175 -0.7530
  145SAPE   C3715967   6.098   5.076  10.329  0.1842  0.0055 -0.5320
  145SAPE   H7X15968   6.191   5.024  10.357  1.0833  2.2490  0.9256
  145SAPE   H7Y15969   6.126   5.179  10.296  1.9852 -0.5743 -0.9254
  145SAPE   C3815970   6.020   5.008  10.220  0.2381  0.4077  0.1892
  145SAPE   H8X15971   5.924   5.064  10.208 -0.9714 -1.2969  1.4853
  145SAPE   H8Y15972   5.984   4.911  10.259  1.0228  0.1390  0.2501
  145SAPE   C3915973   6.094   4.983  10.089 -0.3366 -0.4434  0.8081
  145SAPE   H9X15974   6.185   4.923  10.112  0.4260  1.5204  3.3475
  145SAPE   H9Y15975   6.114   5.084  10.048 -1.1885 -0.6290 -0.0969
  145SAPE  C31015976   6.025   4.902   9.982  0.2272  0.2443  0.5771
  145SAPE  H10X15977   5.930   4.954   9.958 -0.1793 -0.0181  1.5720
  145SAPE  H10Y15978   5.999   4.803  10.026 -0.4390 -0.6314 -1.6528
  145SAPE  C31115979   6.106   4.881   9.852 -0.4853  0.5080 -0.2882
  145SAPE  H11X15980   6.203   4.831   9.870 -2.3736 -3.6235 -0.4743
  145SAPE  H11Y15981   6.127   4.985   9.817  1.0300  0.2308 -0.2782
  145SAPE  C31215982   6.034   4.809   9.743  0.1710  0.3700 -0.0376
  145SAPE  H12X15983   6.016   4.703   9.773 -1.2461  0.3369 -0.9089
  145SAPE  H12Y15984   6.100   4.792   9.655  0.2179 -2.2443  0.4258
  145SAPE  C31315985   5.904   4.880   9.696  0.4039 -0.1611 -0.7501
  145SAPE  H13X15986   5.927   4.988   9.694 -1.0833  0.2877  1.4084
  145SAPE  H13Y15987   5.837   4.855   9.782  1.0390 -1.8750 -0.7089
  145SAPE  C31415988   5.840   4.828   9.565  0.2858 -0.4671  0.6164
  145SAPE  H14X15989   5.746   4.886   9.554  0.2973 -0.6952 -1.0129
  145SAPE  H14Y15990   5.821   4.718   9.561  0.9018 -0.5422 -1.4515
  145SAPE  C31515991   5.923   4.865   9.447  0.0335 -0.3484 -0.4960
  145SAPE  H15X15992   6.028   4.831   9.460 -0.1135 -0.1052  1.7269
  145SAPE  H15Y15993   5.918   4.976   9.439  2.4187 -0.1066  0.3132
  145SAPE  C31615994   5.871   4.806   9.313  0.0250 -0.9533 -0.0362
  145SAPE  H16X15995   5.760   4.799   9.311 -0.0342 -0.0304 -0.7065
  145SAPE  H16Y15996   5.907   4.702   9.302  0.8009 -0.5233 -1.9251
  145SAPE  C31715997   5.920   4.882   9.187  0.4638  0.0048 -0.2248
  145SAPE  H17X15998   6.027   4.863   9.166  0.4337  2.1715 -2.8014
  145SAPE  H17Y15999   5.913   4.988   9.221  1.0256 -0.2773  0.8258
  145SAPE  C31816000   5.832   4.856   9.065 -0.2601  0.0122 -0.3211
  145SAPE  H18X16001   5.877   4.915   8.983 -0.5507  1.2927  0.4186
  145SAPE  H18Y16002   5.727   4.889   9.077 -0.9169 -0.7580 -3.1797
  145SAPE  H18Z16003   5.826   4.748   9.039 -0.2133 -0.2556  0.7256
  146SAPE     N16004   3.655   4.024  10.966  0.2914 -0.1056  0.4682
  146SAPE   HN116005   3.743   3.971  10.980  1.4315  1.3526 -0.8173
  146SAPE   HN216006   3.685   4.117  11.001 -1.0121  0.2052  0.8029
  146SAPE   HN316007   3.589   3.972  11.027 -0.7786 -2.6831 -2.6354
  146SAPE   C1216008   3.627   4.012  10.812  0.0669 -0.2035  0.0625
  146SAPE  H12A16009   3.539   4.075  10.790  0.6298  1.1957  1.6297
  146SAPE  H12B16010   3.616   3.903  10.790 -0.3132  0.1227 -1.4253
  146SAPE   C1116011   3.748   4.074  10.731  0.1730  0.0875 -1.0955
  146SAPE  H11A16012   3.768   4.169  10.785 -0.5962 -0.8183  0.8879
  146SAPE  H11B16013   3.713   4.097  10.628 -0.6167 -0.8159 -1.0463
  146SAPE     P16014   3.980   3.986  10.839 -0.4479 -0.1678 -0.1074
  146SAPE   O1316015   3.918   3.973  10.972  0.5393  0.3577 -0.0859
  146SAPE   O1416016   4.086   3.890  10.807  0.6973  0.8599  0.1144
  146SAPE   O1216017   3.863   3.983  10.734  0.0919 -0.0571 -0.5581
  146SAPE   O1116018   4.034   4.134  10.824  0.0987 -1.1279  0.5586
  146SAPE    C116019   4.164   4.161  10.764 -0.1920  0.1677  0.1346
  146SAPE    HA16020   4.228   4.190  10.850 -0.3911 -1.0851  0.7302
  146SAPE    HB16021   4.214   4.076  10.712 -0.8477  1.4482 -2.7931
  146SAPE    C216022   4.154   4.267  10.652  0.5437  0.6408 -0.0441
  146SAPE    HS16023   4.117   4.358  10.704  2.0864  0.0830  2.2005
  146SAPE   O2116024   4.060   4.223  10.555 -0.5652 -0.1596 -0.2561
  146SAPE   C2116025   3.994   4.327  10.498  1.0312  0.3696 -0.3709
  146SAPE   O2216026   4.004   4.444  10.532  0.1705  0.3137  0.5446
  146SAPE   C2216027   3.917   4.271  10.387  0.2612 -0.5162  1.0980
  146SAPE   H2R16028   3.828   4.227  10.435  0.4205 -0.7950  1.1394
  146SAPE   H2S16029   3.889   4.358  10.323  0.7193 -0.2788  1.2078
  146SAPE    C316030   4.292   4.292  10.594 -0.0930  0.3088  0.0960
  146SAPE    HX16031   4.324   4.191  10.561  0.1464 -0.0181  1.2732
  146SAPE    HY16032   4.345   4.323  10.686  0.5182 -2.4294  0.7446
  146SAPE   O3116033   4.286   4.377  10.478  0.5540 -0.0837 -0.0631
  146SAPE   C3116034   4.301   4.510  10.499  0.0237 -0.0320 -0.3759
  146SAPE   O3216035   4.318   4.565  10.609  0.3211 -0.1703  0.4966
  146SAPE   C3216036   4.296   4.586  10.365  0.1391 -0.1527  0.5050
  146SAPE   H2X16037   4.363   4.674  10.366  0.9521 -0.7423 -0.5775
  146SAPE   H2Y16038   4.190   4.620  10.374  0.0452 -0.6421  1.3563
  146SAPE   C2316039   3.999   4.168  10.290  0.5535 -0.4825  0.8187
  146SAPE   H3R16040   4.005   4.071  10.344 -0.2586 -0.7799  0.3975
  146SAPE   H3S16041   4.104   4.197  10.269 -0.6134  2.2928 -1.8951
  146SAPE   C2416042   3.918   4.126  10.168 -0.1741 -0.4694 -0.5243
  146SAPE   H4R16043   3.813   4.111  10.201  0.5187 -2.5068  0.9893
  146SAPE   H4S16044   3.954   4.030  10.125  1.4881 -0.7155  1.2832
  146SAPE   C2516045   3.927   4.244  10.069  0.4269 -0.0829  0.7694
  146SAPE   H5R16046   3.932   4.348  10.104  1.9819  0.5158 -1.0580
  146SAPE   C2616047   3.930   4.220   9.938  0.3297  0.0257  0.1447
  146SAPE   H6R16048   3.932   4.303   9.865 -0.4324 -1.1254 -1.2490
  146SAPE   C2716049   3.924   4.087   9.859  0.1655  0.0482 -0.2591
  146SAPE   H7R16050   3.829   4.087   9.801 -0.1840  0.1230  0.3083
  146SAPE   H7S16051   3.906   4.000   9.925 -2.1782 -0.7858 -1.8494
  146SAPE   C2816052   4.049   4.062   9.783 -0.2795 -1.1192  1.1043
  146SAPE   H8R16053   4.144   4.066   9.838 -0.1183 -0.8977  0.8122
  146SAPE   C2916054   4.069   4.044   9.649 -0.0825 -0.2139 -0.0581
  146SAPE   H9R16055   4.176   4.032   9.623  0.6963  1.3620  2.0823
  146SAPE  C21016056   3.962   4.042   9.542 -0.0368 -0.4479 -0.0726
  146SAPE  H10R16057   3.857   4.027   9.575 -0.9946  1.2764 -2.1173
  146SAPE  H10S16058   3.986   3.962   9.470 -0.5263  0.4726 -1.2940
  146SAPE  C21116059   3.976   4.174   9.474 -0.8813 -0.7445  0.4450
  146SAPE  H11R16060   3.989   4.255   9.547 -2.7695 -0.9264  1.0521
  146SAPE  C21216061   3.975   4.203   9.339  0.3083 -0.6110 -0.4185
  146SAPE  H12R16062   4.004   4.305   9.313  0.7437 -0.7822 -0.6189
  146SAPE  C21316063   3.963   4.099   9.226  0.0101  0.4551 -0.5050
  146SAPE  H13R16064   3.889   4.129   9.149  0.3483 -0.3637 -1.1668
  146SAPE  H13S16065   3.926   4.004   9.269  1.2270  0.3083  0.2765
  146SAPE  C21416066   4.105   4.068   9.180 -0.1836  0.3766  0.1674
  146SAPE  H14R16067   4.182   4.047   9.256  0.7019 -3.5860 -1.5766
  146SAPE  C21516068   4.143   4.056   9.052 -0.5261 -0.8163  0.1629
  146SAPE  H15R16069   4.247   4.043   9.021 -0.9904 -0.9932 -1.4475
  146SAPE  C21616070   4.062   4.072   8.926  0.1172  0.3722 -0.4624
  146SAPE  H16R16071   4.117   4.140   8.857  0.2952 -1.2560 -1.9933
  146SAPE  H16S16072   3.965   4.116   8.956  0.2169 -0.4940  1.2169
  146SAPE  C21716073   4.039   3.934   8.856 -0.1111 -0.4482 -0.1681
  146SAPE  H17R16074   3.975   3.872   8.922 -0.5157 -0.9411 -1.0039
  146SAPE  H17S16075   4.134   3.876   8.852 -2.1536 -4.4265  2.1506
  146SAPE  C21816076   3.974   3.942   8.713  0.2071 -0.4001  0.0781
  146SAPE  H18R16077   3.970   3.832   8.692  1.7610 -1.0095  2.5875
  146SAPE  H18S16078   4.035   4.006   8.646  2.1195 -1.8714  0.3370
  146SAPE  C21916079   3.831   3.987   8.714  0.1626 -0.1039 -0.0904
  146SAPE  H19R16080   3.818   4.092   8.749 -3.4696 -1.0905  2.0568
  146SAPE  H19S16081   3.765   3.938   8.789  1.6364 -0.5732  0.9539
  146SAPE  C22016082   3.766   3.990   8.571  0.1896 -0.4922  0.1939
  146SAPE  H20R16083   3.834   4.032   8.495 -2.0846  1.1273 -1.0692
  146SAPE  H20S16084   3.683   4.064   8.571 -1.5875 -2.3169 -2.0337
  146SAPE  H20T16085   3.727   3.888   8.549 -1.6728 -0.1979  1.8313
  146SAPE   C3316086   4.319   4.504  10.240 -0.0163  0.3797  0.0975
  146SAPE   H3X16087   4.247   4.420  10.252  0.2813 -0.0351 -0.9173
  146SAPE   H3Y16088   4.422   4.466  10.225  0.4229  0.6472  2.2017
  146SAPE   C3416089   4.303   4.595  10.119  0.1516 -0.6948  0.5488
  146SAPE   H4X16090   4.393   4.644  10.077  0.6504 -2.6735 -0.8384
  146SAPE   H4Y16091   4.236   4.679  10.149 -1.2741 -2.1976  1.8522
  146SAPE   C3516092   4.240   4.518  10.001 -0.5385 -0.3243 -0.1951
  146SAPE   H5X16093   4.134   4.490  10.020 -0.6378  0.5107  0.5042
  146SAPE   H5Y16094   4.306   4.429   9.987  0.4985  0.2811  0.6965
  146SAPE   C3616095   4.233   4.602   9.874 -0.0974  1.4230 -0.2956
  146SAPE   H6X16096   4.337   4.618   9.838  0.9808 -1.4570  1.1937
  146SAPE   H6Y16097   4.200   4.705   9.898  0.7217  1.2958  1.5329
  146SAPE   C3716098   4.143   4.535   9.767 -0.0737 -0.1926  0.2435
  146SAPE   H7X16099   4.037   4.523   9.798 -0.8227  3.4317 -0.5034
  146SAPE   H7Y16100   4.192   4.438   9.745  0.0765 -0.3025  1.0301
  146SAPE   C3816101   4.135   4.618   9.638  0.7514 -0.0531  0.0765
  146SAPE   H8X16102   4.235   4.649   9.600  0.6162 -1.4708 -1.5698
  146SAPE   H8Y16103   4.096   4.719   9.661 -1.2955 -0.9308  0.6562
  146SAPE   C3916104   4.055   4.550   9.527 -0.5859 -0.0130  0.5449
  146SAPE   H9X16105   3.953   4.515   9.553  0.0059 -1.2345  1.2687
  146SAPE   H9Y16106   4.105   4.456   9.496 -0.0043 -0.0923  1.6775
  146SAPE  C31016107   4.027   4.647   9.407  0.3210  0.1517 -0.3678
  146SAPE  H10X16108   4.126   4.694   9.386  0.9027 -0.2884  1.2313
  146SAPE  H10Y16109   3.951   4.721   9.440  0.5694 -0.4803  1.7886
  146SAPE  C31116110   3.979   4.568   9.286 -0.1384 -0.4873  0.1896
  146SAPE  H11X16111   3.886   4.517   9.319 -2.0195  1.8676 -1.1965
  146SAPE  H11Y16112   4.053   4.489   9.261  1.9735  1.9241 -1.6477
  146SAPE  C31216113   3.944   4.669   9.167  0.3553  0.2545 -0.4899
  146SAPE  H12X16114   4.043   4.698   9.126  0.6473 -1.9448 -1.4759
  146SAPE  H12Y16115   3.886   4.760   9.195  0.3671  0.4469 -1.0756
  146SAPE  C31316116   3.872   4.582   9.059 -0.1195 -0.9311 -0.3504
  146SAPE  H13X16117   3.763   4.582   9.082  0.1629 -0.8662  1.0843
  146SAPE  H13Y16118   3.901   4.476   9.073  0.5426 -0.6208  0.7977
  146SAPE  C31416119   3.919   4.608   8.917 -0.2015  0.5192  0.3073
  146SAPE  H14X16120   4.029   4.592   8.909 -0.2241  0.4396  0.1468
  146SAPE  H14Y16121   3.905   4.717   8.900 -2.5189  0.0245 -1.4723
  146SAPE  C31516122   3.849   4.521   8.810 -0.2209 -0.5669 -0.7280
  146SAPE  H15X16123   3.754   4.572   8.785  0.1556  0.4314 -0.1712
  146SAPE  H15Y16124   3.833   4.420   8.853 -2.2076  1.0054  2.6427
  146SAPE  C31616125   3.912   4.510   8.668 -0.0516 -0.1848 -0.5913
  146SAPE  H16X16126   4.014   4.553   8.670  0.0725 -0.3764 -1.8704
  146SAPE  H16Y16127   3.856   4.572   8.595 -1.8786 -3.1794 -1.9408
  146SAPE  C31716128   3.926   4.372   8.601 -0.2079  0.0688 -0.0845
  146SAPE  H17X16129   3.829   4.319   8.593 -1.0207  1.2984  1.1590
  146SAPE  H17Y16130   3.987   4.323   8.680 -1.1484  1.6516  1.7070
  146SAPE  C31816131   4.005   4.365   8.470 -0.0613 -0.3849 -0.1093
  146SAPE  H18X16132   4.109   4.394   8.495 -0.1972  1.8064 -1.8352
  146SAPE  H18Y16133   3.966   4.447   8.407 -0.6348  1.9604  3.0346
  146SAPE  H18Z16134   4.004   4.262   8.427  1.0515 -1.0228  1.2671
  147SAPE     N16135   0.242   1.757   6.214  0.0522  0.6099 -0.2244
  147SAPE   HN116136   0.308   1.684   6.179  2.6714  2.7113 -0.0635
  147SAPE   HN216137   0.154   1.730   6.166 -0.3890  0.2768  0.7542
  147SAPE   HN316138   0.271   1.854   6.189 -0.3512  0.7039 -0.3336
  147SAPE   C1216139   0.223   1.752   6.368 -0.6980 -0.0276 -0.5590
  147SAPE  H12A16140   0.305   1.808   6.418 -0.6670 -0.3882 -0.2010
  147SAPE  H12B16141   0.219   1.647   6.404 -2.9489  0.1048 -0.2957
  147SAPE   C1116142   0.102   1.830   6.414  0.3462  0.5000  0.3359
  147SAPE  H11A16143   0.111   1.858   6.521 -1.1871 -0.0309  0.6369
  147SAPE  H11B16144   0.016   1.761   6.401  1.8027 -1.4209  0.3732
  147SAPE     P16145   0.133   2.077   6.373 -0.2198  0.0062  0.0786
  147SAPE   O1316146   0.277   2.052   6.408  0.3679 -0.5430  0.3521
  147SAPE   O1416147   0.102   2.174   6.264  0.2063  0.3954  0.2006
  147SAPE   O1216148   0.078   1.937   6.336 -0.3856  0.4250 -0.2882
  147SAPE   O1116149   0.056   2.127   6.508  0.4297 -0.0928  0.2869
  147SAPE    C116150  -0.085   2.124   6.499 -0.2059  0.2250 -0.5510
  147SAPE    HA16151  -0.128   2.220   6.535  1.1383  0.2258  1.2002
  147SAPE    HB16152  -0.129   2.102   6.399  0.6518  0.0692 -0.9075
  147SAPE    C216153  -0.155   2.015   6.593 -0.7021 -0.0850 -1.2120
  147SAPE    HS16154  -0.230   2.061   6.660  1.7685 -0.0094  1.7234
  147SAPE   O2116155  -0.047   1.960   6.680  0.1412  0.6419 -0.0149
  147SAPE   C2116156   0.009   2.044   6.765 -0.6983  0.1259 -0.1486
  147SAPE   O2216157  -0.025   2.157   6.791  0.4427  0.0731  0.1311
  147SAPE   C2216158   0.137   1.971   6.817 -0.2501  0.2880 -0.3662
  147SAPE   H2R16159   0.098   1.874   6.856  2.8065 -0.6029  0.8186
  147SAPE   H2S16160   0.204   1.959   6.729  1.2055 -1.2691  0.8637
  147SAPE    C316161  -0.232   1.903   6.518  0.2245 -0.2337 -0.2536
  147SAPE    HX16162  -0.169   1.855   6.439 -1.5186 -1.2877 -1.0642
  147SAPE    HY16163  -0.313   1.960   6.469  2.6106  1.1059 -2.9699
  147SAPE   O3116164  -0.273   1.806   6.610 -0.6573  0.5817 -0.3700
  147SAPE   C3116165  -0.396   1.811   6.657  0.3261  0.4537  0.1787
  147SAPE   O3216166  -0.469   1.906   6.655 -0.3873  0.0789 -0.2638
  147SAPE   C3216167  -0.408   1.695   6.754  0.7071 -0.1047  0.1118
  147SAPE   H2X16168  -0.307   1.652   6.765 -0.1969 -2.5419 -0.5654
  147SAPE   H2Y16169  -0.475   1.618   6.709  0.3447 -1.5878  2.9282
  147SAPE   C2316170   0.198   2.047   6.939  0.8230 -0.1167 -0.3971
  147SAPE   H3R16171   0.179   2.155   6.923 -0.9342 -0.2291  0.6856
  147SAPE   H3S16172   0.308   2.033   6.945  0.7501 -0.2754  0.6815
  147SAPE   C2416173   0.130   2.006   7.072 -0.2518 -0.5313  1.0425
  147SAPE   H4R16174   0.141   1.899   7.096 -0.6915 -0.7603  0.2730
  147SAPE   H4S16175   0.019   2.013   7.066 -0.2740 -0.4028  1.5436
  147SAPE   C2516176   0.179   2.100   7.180 -0.2236 -0.7560 -0.3327
  147SAPE   H5R16177   0.216   2.198   7.145  1.0071 -1.9410 -2.5415
  147SAPE   C2616178   0.193   2.071   7.312  0.2884  0.1267 -0.3903
  147SAPE   H6R16179   0.245   2.141   7.380  1.8302 -1.3356 -0.0072
  147SAPE   C2716180   0.158   1.939   7.375 -0.0713 -0.6558 -0.1302
  147SAPE   H7R16181   0.256   1.886   7.378 -0.8776 -2.1602  1.3738
  147SAPE   H7S16182   0.081   1.888   7.313 -1.1973  2.0709 -1.1351
  147SAPE   C2816183   0.097   1.978   7.508 -0.1542  0.4633  0.7456
  147SAPE   H8R16184   0.003   2.034   7.504  0.4857  1.6490  1.5969
  147SAPE   C2916185   0.138   1.956   7.634 -0.1611  0.6096 -0.5818
  147SAPE   H9R16186   0.069   1.988   7.713 -1.0813 -0.5541 -0.8817
  147SAPE  C21016187   0.265   1.886   7.674  0.7043  0.4468  0.4455
  147SAPE  H10R16188   0.346   1.892   7.599 -0.0939 -4.4775 -1.2125
  147SAPE  H10S16189   0.242   1.777   7.666  2.5849 -0.0206  0.9354
  147SAPE  C21116190   0.315   1.902   7.814 -0.4564 -0.3837 -0.9127
  147SAPE  H11R16191   0.389   1.980   7.839  0.3132 -1.6165  0.8631
  147SAPE  C21216192   0.274   1.828   7.921  0.1819  0.3465 -0.3549
  147SAPE  H12R16193   0.312   1.836   8.024 -2.0903 -0.9486  0.6521
  147SAPE  C21316194   0.181   1.702   7.925 -0.0727 -0.2896  0.5050
  147SAPE  H13R16195   0.217   1.637   8.007 -0.5880  0.5583  1.4234
  147SAPE  H13S16196   0.196   1.646   7.830  0.7488 -0.7505  0.8944
  147SAPE  C21416197   0.033   1.728   7.942  0.1150  0.0779 -0.0415
  147SAPE  H14R16198  -0.015   1.823   7.913 -0.6697 -0.1666  0.4036
  147SAPE  C21516199  -0.049   1.652   8.015 -0.7059  0.7263  0.0740
  147SAPE  H15R16200  -0.154   1.685   8.013 -0.2107  2.5589  1.6008
  147SAPE  C21616201  -0.038   1.527   8.102 -0.1147 -0.2153 -0.0394
  147SAPE  H16R16202   0.063   1.482   8.095 -0.4875 -1.2290  0.6592
  147SAPE  H16S16203  -0.106   1.445   8.069 -0.1124 -1.2220  2.2143
  147SAPE  C21716204  -0.065   1.569   8.250  0.1617  0.3182  0.1561
  147SAPE  H17R16205  -0.168   1.604   8.270 -0.4779 -2.3372  2.1845
  147SAPE  H17S16206   0.011   1.647   8.271  0.1540  0.0469  1.2664
  147SAPE  C21816207  -0.022   1.453   8.349 -0.4545  0.3638 -0.6116
  147SAPE  H18R16208   0.083   1.472   8.383 -0.3308  1.1340 -1.3864
  147SAPE  H18S16209  -0.030   1.358   8.294 -0.8295  0.3694 -0.5674
  147SAPE  C21916210  -0.113   1.435   8.476  0.2353  0.4556 -0.6181
  147SAPE  H19R16211  -0.222   1.453   8.458 -0.2677 -0.5621  1.2271
  147SAPE  H19S16212  -0.085   1.517   8.545 -0.6880  1.0505 -0.9178
  147SAPE  C22016213  -0.098   1.295   8.539  0.2748  0.6278  0.3864
  147SAPE  H20R16214   0.010   1.273   8.552  0.3774  1.5930  1.2411
  147SAPE  H20S16215  -0.126   1.220   8.462 -1.5782  0.8275  0.8295
  147SAPE  H20T16216  -0.152   1.284   8.635 -0.2414 -1.7887 -0.1005
  147SAPE   C3316217  -0.487   1.719   6.888 -0.5150  0.2555  0.1760
  147SAPE   H3X16218  -0.528   1.619   6.916  0.1335  0.1011  0.5785
  147SAPE   H3Y16219  -0.577   1.784   6.881  0.3534  1.3513 -1.7141
  147SAPE   C3416220  -0.400   1.766   7.008 -0.0865 -0.2806 -0.4271
  147SAPE   H4X16221  -0.348   1.860   6.979 -1.4934  0.6001 -0.2132
  147SAPE   H4Y16222  -0.326   1.683   7.011  0.2282 -0.0046 -0.4541
  147SAPE   C3516223  -0.490   1.771   7.133  0.0024  0.1171  0.6037
  147SAPE   H5X16224  -0.540   1.672   7.129  2.7914 -1.3755 -1.0855
  147SAPE   H5Y16225  -0.571   1.847   7.132 -1.0426 -0.9674  0.8338
  147SAPE   C3616226  -0.405   1.800   7.258  0.3290 -0.8660 -0.6943
  147SAPE   H6X16227  -0.338   1.887   7.242  0.1074 -0.6679 -0.5599
  147SAPE   H6Y16228  -0.336   1.715   7.273  0.2158 -0.7569  0.5307
  147SAPE   C3716229  -0.483   1.814   7.391 -0.1144  0.1589 -0.2016
  147SAPE   H7X16230  -0.533   1.716   7.405 -0.4555  0.1502 -1.3757
  147SAPE   H7Y16231  -0.553   1.900   7.384  1.5146  1.3926 -3.0681
  147SAPE   C3816232  -0.391   1.838   7.510 -0.5499 -0.7303 -0.2944
  147SAPE   H8X16233  -0.336   1.932   7.486  0.3097 -1.2926 -0.5987
  147SAPE   H8Y16234  -0.319   1.754   7.523  2.6432  1.9102  0.4417
  147SAPE   C3916235  -0.465   1.853   7.637 -0.2366  0.1261 -0.1620
  147SAPE   H9X16236  -0.497   1.753   7.674  0.5298  0.0319  0.2512
  147SAPE   H9Y16237  -0.551   1.923   7.634 -0.5500 -0.1951  0.8971
  147SAPE  C31016238  -0.361   1.905   7.742  0.1281 -0.5590 -0.6739
  147SAPE  H10X16239  -0.367   2.015   7.734 -0.1998  0.0781  4.7321
  147SAPE  H10Y16240  -0.264   1.858   7.713  0.3541 -2.0449  2.0872
  147SAPE  C31116241  -0.407   1.859   7.882  0.1990 -0.2198 -0.0171
  147SAPE  H11X16242  -0.393   1.751   7.904  0.1735 -0.4695 -1.1653
  147SAPE  H11Y16243  -0.515   1.880   7.898 -0.1867 -1.8365 -0.2901
  147SAPE  C31216244  -0.336   1.928   7.993  0.0351 -0.1437  0.4155
  147SAPE  H12X16245  -0.342   2.038   7.985  0.2385 -0.1872 -0.3335
  147SAPE  H12Y16246  -0.229   1.899   7.997  0.3991  0.6545 -2.2547
  147SAPE  C31316247  -0.409   1.899   8.125 -0.3972  0.3931 -0.4207
  147SAPE  H13X16248  -0.439   1.793   8.138  0.6505  0.1729  0.3808
  147SAPE  H13Y16249  -0.493   1.967   8.151  0.3919  1.9501 -1.7496
  147SAPE  C31416250  -0.308   1.907   8.239 -0.0208  1.0102 -0.2038
  147SAPE  H14X16251  -0.278   2.013   8.251  1.3721  0.4551  1.7528
  147SAPE  H14Y16252  -0.212   1.864   8.205 -0.3978 -0.1985  0.1909
  147SAPE  C31516253  -0.371   1.847   8.365 -0.5034  0.1606  0.3463
  147SAPE  H15X16254  -0.360   1.736   8.360 -1.6827  0.0283  0.4713
  147SAPE  H15Y16255  -0.478   1.878   8.365 -0.6557 -0.3502  0.4851
  147SAPE  C31616256  -0.301   1.887   8.501  0.1749 -0.8937  0.0518
  147SAPE  H16X16257  -0.342   1.988   8.521  0.8627 -0.3830 -1.0216
  147SAPE  H16Y16258  -0.192   1.876   8.480  0.4783  0.9662  0.4529
  147SAPE  C31716259  -0.344   1.794   8.617 -0.4094  0.4770  0.3512
  147SAPE  H17X16260  -0.316   1.688   8.596 -0.1016  0.2114  1.9272
  147SAPE  H17Y16261  -0.455   1.798   8.612 -0.3191  1.6056 -1.7288
  147SAPE  C31816262  -0.294   1.843   8.750  0.3353  0.0032 -0.7128
  147SAPE  H18X16263  -0.288   1.954   8.749  0.6008  0.0080 -2.1873
  147SAPE  H18Y16264  -0.193   1.812   8.784 -0.3624 -0.7974  0.6932
  147SAPE  H18Z16265  -0.370   1.803   8.820 -1.4126 -1.0777 -3.0717
  148SAPE     N16266   5.968   1.147   6.577 -0.8208  0.4361 -0.5907
  148SAPE   HN116267   5.884   1.191   6.535 -0.0123  0.0071 -2.7796
  148SAPE   HN216268   6.032   1.125   6.498  0.8812  0.8533  0.6175
  148SAPE   HN316269   5.943   1.066   6.637  0.6294  1.7549  1.9597
  148SAPE   C1216270   6.033   1.251   6.666  0.1051  0.9109  0.2220
  148SAPE  H12A16271   6.090   1.192   6.742  1.9519  0.6133 -1.3067
  148SAPE  H12B16272   5.941   1.293   6.712  0.6996  1.3101  1.0741
  148SAPE   C1116273   6.113   1.348   6.582 -0.4182  0.5500 -0.3065
  148SAPE  H11A16274   6.204   1.303   6.536  0.7892  0.2306  2.2111
  148SAPE  H11B16275   6.148   1.432   6.645 -2.0090  1.2113 -0.2804
  148SAPE     P16276   5.973   1.547   6.482  0.2270 -0.1280  0.1268
  148SAPE   O1316277   6.095   1.637   6.480  0.1130  0.6162  0.8432
  148SAPE   O1416278   5.866   1.576   6.385 -1.0410  0.5164 -0.1738
  148SAPE   O1216279   6.026   1.399   6.476 -0.0338  0.1808 -0.2812
  148SAPE   O1116280   5.891   1.559   6.617 -0.1776  0.1614  0.3792
  148SAPE    C116281   5.912   1.669   6.708  0.5441  0.3735  0.3435
  148SAPE    HA16282   6.020   1.682   6.730  0.2052  1.7393  1.2648
  148SAPE    HB16283   5.880   1.764   6.662 -0.6897 -0.1423  0.0890
  148SAPE    C216284   5.826   1.652   6.840 -0.3838  0.3616  0.3315
  148SAPE    HS16285   5.850   1.744   6.896 -2.0723  0.9543  0.1416
  148SAPE   O2116286   5.872   1.533   6.902 -0.0652 -0.1325 -0.0052
  148SAPE   C2116287   5.967   1.535   6.987 -0.1864  0.2675  0.7546
  148SAPE   O2216288   6.030   1.633   7.029  0.4964  0.1431  0.4423
  148SAPE   C2216289   6.011   1.392   7.019  0.1432 -0.6108 -0.2869
  148SAPE   H2R16290   5.933   1.318   6.991 -0.3581 -0.4341  0.5886
  148SAPE   H2S16291   6.104   1.378   6.960 -0.4733  0.2817 -1.5080
  148SAPE    C316292   5.674   1.649   6.794  0.2127 -0.5820 -0.3261
  148SAPE    HX16293   5.646   1.553   6.745 -1.1227 -0.4096  0.0656
  148SAPE    HY16294   5.662   1.728   6.718 -0.9103  0.3937  0.8071
  148SAPE   O3116295   5.586   1.676   6.902  0.0919  0.5844 -0.2350
  148SAPE   C3116296   5.559   1.574   6.995  0.6254 -0.1452  0.1590
  148SAPE   O3216297   5.595   1.460   6.986 -0.2150  0.1628  0.3515
  148SAPE   C3216298   5.502   1.644   7.127  0.3581  0.2903 -0.0083
  148SAPE   H2X16299   5.395   1.667   7.106  0.0527 -1.6521 -0.9130
  148SAPE   H2Y16300   5.565   1.735   7.132  2.1490 -0.8421 -0.8266
  148SAPE   C2316301   6.035   1.384   7.174 -0.3935  0.0947  0.4074
  148SAPE   H3R16302   6.103   1.462   7.213  2.1438 -0.9355 -1.6599
  148SAPE   H3S16303   6.092   1.290   7.190 -0.7022 -0.5609 -1.8796
  148SAPE   C2416304   5.903   1.384   7.261  0.0439 -0.3399  0.3831
  148SAPE   H4R16305   5.856   1.483   7.249  0.5312  0.0568  1.5527
  148SAPE   H4S16306   5.930   1.380   7.369 -1.3713 -0.0018  0.7772
  148SAPE   C2516307   5.804   1.271   7.236  0.6688  0.2672  0.1031
  148SAPE   H5R16308   5.770   1.265   7.132 -1.8485 -1.3795  0.9328
  148SAPE   C2616309   5.752   1.182   7.322 -0.2193 -0.4526  0.7384
  148SAPE   H6R16310   5.669   1.121   7.285 -0.5196 -0.6049  1.6254
  148SAPE   C2716311   5.788   1.179   7.470  0.1635 -0.2641 -0.8427
  148SAPE   H7R16312   5.725   1.097   7.510 -0.2998  0.5336  0.1254
  148SAPE   H7S16313   5.757   1.276   7.516  1.0971 -0.2241 -0.2691
  148SAPE   C2816314   5.932   1.153   7.507  0.1530  0.0965 -0.0485
  148SAPE   H8R16315   5.997   1.103   7.434  0.1659 -1.9399  1.2754
  148SAPE   C2916316   5.995   1.197   7.617  0.4498  0.1478 -0.2955
  148SAPE   H9R16317   6.103   1.184   7.628  0.4278  0.4112  0.2904
  148SAPE  C21016318   5.942   1.285   7.734 -0.8867 -0.2305  0.2781
  148SAPE  H10R16319   5.881   1.368   7.694 -0.2154  1.5890  2.7763
  148SAPE  H10S16320   6.023   1.345   7.782 -1.4802  0.0551  0.9347
  148SAPE  C21116321   5.850   1.210   7.833  0.6990 -0.1132 -0.1647
  148SAPE  H11R16322   5.746   1.246   7.831  0.3543 -1.1118 -0.6519
  148SAPE  C21216323   5.888   1.105   7.905 -0.3050 -0.0348 -0.7543
  148SAPE  H12R16324   5.815   1.064   7.976 -0.3074  1.3477  0.0677
  148SAPE  C21316325   6.023   1.037   7.919 -0.8522  0.5560 -0.2934
  148SAPE  H13R16326   6.062   1.090   8.008  0.5529 -1.2927  0.2557
  148SAPE  H13S16327   6.098   1.059   7.839  1.5063  0.8913  1.8817
  148SAPE  C21416328   6.035   0.888   7.946 -0.3558  0.0345 -0.1191
  148SAPE  H14R16329   6.056   0.827   7.857  0.5144 -0.2929  0.3037
  148SAPE  C21516330   6.016   0.820   8.059  0.1910  0.3124 -0.2062
  148SAPE  H15R16331   6.018   0.710   8.052  0.9702  0.1584  1.8184
  148SAPE  C21616332   5.982   0.863   8.197  0.2123  0.3798 -0.1484
  148SAPE  H16R16333   6.020   0.964   8.223  0.9759 -0.2645  1.4236
  148SAPE  H16S16334   6.029   0.803   8.278  0.3289  1.1845  0.3892
  148SAPE  C21716335   5.836   0.845   8.231 -0.2986 -0.1956 -0.5580
  148SAPE  H17R16336   5.806   0.741   8.203  1.4153 -0.8956  0.0777
  148SAPE  H17S16337   5.778   0.911   8.163 -0.2297 -1.7301 -2.1756
  148SAPE  C21816338   5.795   0.894   8.373 -0.1532 -0.5863  0.1063
  148SAPE  H18R16339   5.837   0.993   8.398 -0.8027 -0.9813  3.1953
  148SAPE  H18S16340   5.823   0.816   8.448 -0.7251 -2.2128 -1.3119
  148SAPE  C21916341   5.643   0.916   8.369  0.1315  0.1501 -0.5668
  148SAPE  H19R16342   5.621   0.988   8.287  1.4535  1.3019  0.0550
  148SAPE  H19S16343   5.595   0.941   8.466  0.0894 -0.8736 -0.3034
  148SAPE  C22016344   5.560   0.791   8.324 -0.2285 -0.5204 -0.1440
  148SAPE  H20R16345   5.450   0.805   8.336 -0.1599  1.8963 -1.6552
  148SAPE  H20S16346   5.586   0.707   8.391 -0.1208 -2.8142 -2.8607
  148SAPE  H20T16347   5.591   0.765   8.220  1.4081  1.0319 -0.0938
  148SAPE   C3316348   5.509   1.551   7.253  0.4073 -0.3530 -0.2282
  148SAPE   H3X16349   5.600   1.488   7.254  1.0618  0.4329  3.0968
  148SAPE   H3Y16350   5.430   1.473   7.240  0.8321 -0.6522 -1.0228
  148SAPE   C3416351   5.506   1.617   7.396 -0.0184  0.6774  0.0932
  148SAPE   H4X16352   5.510   1.537   7.473 -2.7033  1.2491  0.9407
  148SAPE   H4Y16353   5.419   1.683   7.416 -0.3254 -0.2874  2.2610
  148SAPE   C3516354   5.640   1.690   7.416 -0.1996  0.1633 -0.9241
  148SAPE   H5X16355   5.636   1.795   7.381 -0.8954  2.0093  3.9047
  148SAPE   H5Y16356   5.730   1.633   7.385  1.9189  1.2823  2.6182
  148SAPE   C3616357   5.663   1.705   7.572  0.1574  0.1155 -0.6805
  148SAPE   H6X16358   5.579   1.751   7.627 -1.4355 -0.6295 -2.3634
  148SAPE   H6Y16359   5.745   1.779   7.582  0.9738 -0.8156 -0.2970
  148SAPE   C3716360   5.716   1.576   7.650  0.8057 -0.5631  0.6536
  148SAPE   H7X16361   5.806   1.538   7.598  0.3760 -0.2468 -0.3366
  148SAPE   H7Y16362   5.642   1.495   7.633  0.7857  0.0504 -2.7835
  148SAPE   C3816363   5.732   1.594   7.799 -0.2628 -0.0717 -0.4783
  148SAPE   H8X16364   5.713   1.492   7.839 -0.9309 -0.2172 -1.1436
  148SAPE   H8Y16365   5.654   1.665   7.834  1.0814  1.3877 -0.3840
  148SAPE   C3916366   5.869   1.638   7.851 -0.1644 -0.1719  0.6955
  148SAPE   H9X16367   5.892   1.745   7.832  1.7856 -0.0065  3.4088
  148SAPE   H9Y16368   5.947   1.579   7.800  0.4508 -0.8068  2.3055
  148SAPE  C31016369   5.877   1.610   7.996 -0.4435 -0.4881  0.4302
  148SAPE  H10X16370   5.908   1.504   8.007 -0.0483 -0.3425  0.7538
  148SAPE  H10Y16371   5.781   1.634   8.046 -0.1775  1.1305  0.2099
  148SAPE  C31116372   5.997   1.684   8.059 -0.2583 -0.0512 -0.3905
  148SAPE  H11X16373   5.992   1.792   8.032  0.3184  0.7238  2.3301
  148SAPE  H11Y16374   6.095   1.647   8.022 -0.6314  1.0849 -2.6992
  148SAPE  C31216375   5.971   1.690   8.210  0.4157 -0.0479  0.4440
  148SAPE  H12X16376   5.967   1.585   8.246  0.0787  0.1089  0.8650
  148SAPE  H12Y16377   5.869   1.733   8.227  0.7165  1.2066 -0.7409
  148SAPE  C31316378   6.062   1.782   8.299 -0.0224  1.0109 -0.3856
  148SAPE  H13X16379   6.060   1.889   8.266 -0.1656  1.5703  1.3461
  148SAPE  H13Y16380   6.166   1.744   8.289 -0.1801  0.6625 -0.7329
  148SAPE  C31416381   6.023   1.769   8.442 -0.5738  0.2576 -0.2207
  148SAPE  H14X16382   5.919   1.810   8.453  0.0029  1.5907  0.6143
  148SAPE  H14Y16383   6.084   1.847   8.493  1.7127 -1.8850  0.5139
  148SAPE  C31516384   6.054   1.632   8.511  0.6740 -0.6595  0.1890
  148SAPE  H15X16385   6.163   1.611   8.507  1.2732  1.9664  1.2222
  148SAPE  H15Y16386   6.004   1.545   8.462  1.6689 -1.9641  1.4016
  148SAPE  C31616387   6.009   1.630   8.668 -0.0191 -0.2044 -0.5541
  148SAPE  H16X16388   6.064   1.713   8.717  3.0185 -2.8030  0.7984
  148SAPE  H16Y16389   6.061   1.546   8.719 -0.1910 -0.2058 -0.3825
  148SAPE  C31716390   5.862   1.651   8.699  1.1124 -0.5168  0.6055
  148SAPE  H17X16391   5.808   1.577   8.637  1.5667  1.6178 -2.5493
  148SAPE  H17Y16392   5.822   1.751   8.672  1.8526  0.2205  2.1270
  148SAPE  C31816393   5.834   1.620   8.853  0.6166 -0.9084  0.0270
  148SAPE  H18X16394   5.839   1.510   8.850  0.5029 -0.8797 -2.0368
  148SAPE  H18Y16395   5.729   1.644   8.881  0.1980 -0.7938 -1.5676
  148SAPE  H18Z16396   5.903   1.667   8.927 -2.1878  1.5269  1.3284
  149SAPE     N16397   5.417   6.722   6.334  0.2235 -0.1931 -0.1052
  149SAPE   HN116398   5.477   6.640   6.357 -0.6999 -0.8667 -0.0861
  149SAPE   HN216399   5.320   6.708   6.367 -0.3914  0.4129 -1.5692
  149SAPE   HN316400   5.409   6.728   6.231 -0.1445  1.0927 -0.0199
  149SAPE   C1216401   5.500   6.838   6.394  0.5808  0.1024  0.7239
  149SAPE  H12A16402   5.520   6.798   6.496 -0.5794  0.0835  0.9553
  149SAPE  H12B16403   5.448   6.936   6.392  0.6107  0.1697  2.3597
  149SAPE   C1116404   5.640   6.842   6.325  0.5240  0.0152 -0.5073
  149SAPE  H11A16405   5.709   6.915   6.372 -0.4377  0.7776 -0.2537
  149SAPE  H11B16406   5.616   6.887   6.226  1.6786  0.6678 -0.5047
  149SAPE     P16407   5.820   6.667   6.389  0.3037 -0.3090  0.7945
  149SAPE   O1316408   5.831   6.522   6.367  0.0745  0.3568  0.3501
  149SAPE   O1416409   5.930   6.754   6.327  0.7182  0.2796 -0.4493
  149SAPE   O1216410   5.689   6.706   6.312 -0.4644  0.1343 -0.1929
  149SAPE   O1116411   5.801   6.704   6.539 -0.3013  0.1100  0.2793
  149SAPE    C116412   5.892   6.793   6.603  0.1351 -0.2072 -0.0813
  149SAPE    HA16413   5.977   6.825   6.539  1.1296 -0.9063  0.8484
  149SAPE    HB16414   5.842   6.884   6.642 -0.4953 -1.2022  1.5178
  149SAPE    C216415   5.964   6.727   6.729  0.5492 -0.7706  0.3863
  149SAPE    HS16416   6.038   6.648   6.703  1.2177 -0.0630  0.0818
  149SAPE   O2116417   5.864   6.673   6.811  0.3490 -0.3586  0.6633
  149SAPE   C2116418   5.902   6.573   6.886 -0.0418  0.2594  0.2121
  149SAPE   O2216419   6.009   6.511   6.881  0.5150 -0.4612 -0.1787
  149SAPE   C2216420   5.782   6.547   6.980  0.1417  0.2894 -0.0659
  149SAPE   H2R16421   5.698   6.620   6.975  0.0199  0.1901  0.4670
  149SAPE   H2S16422   5.736   6.447   6.965  1.5722 -0.2368 -1.2536
  149SAPE    C316423   6.048   6.826   6.813 -0.1264  0.1613 -0.4471
  149SAPE    HX16424   5.982   6.907   6.850  1.4237  0.2720  2.4103
  149SAPE    HY16425   6.119   6.876   6.743 -0.5926  1.7625  0.1752
  149SAPE   O3116426   6.126   6.767   6.921 -0.4079 -0.0089 -0.4578
  149SAPE   C3116427   6.186   6.869   6.992  0.7706 -0.1543  0.5831
  149SAPE   O3216428   6.161   6.986   6.983  0.4174 -0.2668  0.6249
  149SAPE   C3216429   6.288   6.802   7.084  0.8255  0.3106  0.1905
  149SAPE   H2X16430   6.302   6.699   7.046 -0.8399 -0.7825  2.3138
  149SAPE   H2Y16431   6.236   6.814   7.182 -2.4335  0.5041 -1.4262
  149SAPE   C2316432   5.821   6.560   7.130  0.5654 -0.0372  0.0159
  149SAPE   H3R16433   5.891   6.477   7.152 -1.3669 -1.6483  0.4685
  149SAPE   H3S16434   5.723   6.539   7.179 -0.7139  1.8763 -1.5339
  149SAPE   C2416435   5.863   6.701   7.174 -0.4395  0.2845  0.6385
  149SAPE   H4R16436   5.796   6.777   7.128  0.4321  0.3183 -0.6311
  149SAPE   H4S16437   5.956   6.708   7.115  0.5721 -2.0890  1.8217
  149SAPE   C2516438   5.897   6.725   7.321  0.4014 -0.0680 -0.2034
  149SAPE   H5R16439   5.927   6.638   7.380  0.1628 -0.0813 -0.1007
  149SAPE   C2616440   5.903   6.842   7.385 -0.4550  0.0405  0.5353
  149SAPE   H6R16441   5.918   6.850   7.494 -1.0436  0.4532  0.5947
  149SAPE   C2716442   5.872   6.975   7.325  0.0481 -0.6879 -0.5296
  149SAPE   H7R16443   5.873   6.967   7.214 -0.5331 -2.6517 -0.4358
  149SAPE   H7S16444   5.958   7.039   7.354 -0.9596 -0.3745  2.0727
  149SAPE   C2816445   5.745   7.041   7.376 -0.4859  0.3786 -0.1251
  149SAPE   H8R16446   5.659   7.046   7.307  1.9563 -0.8913 -3.5391
  149SAPE   C2916447   5.732   7.102   7.494  0.3316  0.1982 -0.1121
  149SAPE   H9R16448   5.648   7.171   7.507  1.0731  0.7916  1.9780
  149SAPE  C21016449   5.820   7.099   7.616 -0.3810  0.2016  0.2395
  149SAPE  H10R16450   5.860   7.202   7.624  0.4370  0.2309 -2.8316
  149SAPE  H10S16451   5.906   7.033   7.592 -1.2592 -1.6890  1.9789
  149SAPE  C21116452   5.743   7.060   7.738 -0.1242 -1.1547  0.3720
  149SAPE  H11R16453   5.641   7.099   7.744 -0.1636 -1.3223  0.9188
  149SAPE  C21216454   5.787   6.998   7.847  0.2700  0.9580 -0.7599
  149SAPE  H12R16455   5.717   6.987   7.931 -0.8755  0.8227 -1.7076
  149SAPE  C21316456   5.927   6.938   7.863  0.3992  0.1381 -0.2859
  149SAPE  H13R16457   5.996   7.023   7.848  0.8437 -0.1858 -0.0885
  149SAPE  H13S16458   5.952   6.864   7.784  0.6247  0.2575 -0.3243
  149SAPE  C21416459   5.942   6.880   8.008  0.0830  0.9081  0.2303
  149SAPE  H14R16460   5.934   6.770   8.010 -1.2769  0.8749 -2.5683
  149SAPE  C21516461   5.944   6.948   8.125 -0.0176  0.2249  0.2551
  149SAPE  H15R16462   5.967   6.890   8.216  1.5131 -0.5080 -0.5652
  149SAPE  C21616463   5.946   7.103   8.138 -0.6692  0.1047 -0.1487
  149SAPE  H16R16464   5.964   7.153   8.040  1.9079 -2.7481 -1.3264
  149SAPE  H16S16465   6.038   7.134   8.192  0.6375 -1.3422 -1.4196
  149SAPE  C21716466   5.832   7.166   8.216 -0.0437  0.0160  0.3065
  149SAPE  H17R16467   5.729   7.145   8.180 -0.7059  3.7623 -0.4390
  149SAPE  H17S16468   5.848   7.273   8.192  1.2051 -0.2925 -0.3131
  149SAPE  C21816469   5.843   7.135   8.366  0.3866  0.5330  0.9662
  149SAPE  H18R16470   5.935   7.178   8.410  0.7199  2.0528 -1.0742
  149SAPE  H18S16471   5.842   7.025   8.383 -0.4117  0.2166 -0.8693
  149SAPE  C21916472   5.720   7.195   8.444 -0.0889  0.6498  0.5521
  149SAPE  H19R16473   5.632   7.165   8.383  0.4254 -2.2626  1.0991
  149SAPE  H19S16474   5.727   7.306   8.438 -1.4072  0.7514  0.7757
  149SAPE  C22016475   5.720   7.157   8.590  0.4479 -0.0427  0.2252
  149SAPE  H20R16476   5.704   7.048   8.606  0.8147 -0.1767 -0.2642
  149SAPE  H20S16477   5.631   7.208   8.631  0.7482 -0.2273  1.1200
  149SAPE  H20T16478   5.810   7.192   8.646 -0.4280 -0.2456  1.8065
  149SAPE   C3316479   6.421   6.881   7.085  0.1434 -0.3497  0.1916
  149SAPE   H3X16480   6.391   6.975   7.135  1.8881 -1.3934  3.5055
  149SAPE   H3Y16481   6.442   6.905   6.978 -2.6815 -0.8604 -0.5612
  149SAPE   C3416482   6.539   6.815   7.170 -0.2841 -0.1402  0.9521
  149SAPE   H4X16483   6.619   6.890   7.184  0.1332 -0.6628  1.3946
  149SAPE   H4Y16484   6.577   6.722   7.122 -0.9223 -0.1891  0.5250
  149SAPE   C3516485   6.482   6.748   7.297 -0.1249  0.0611  0.1316
  149SAPE   H5X16486   6.555   6.683   7.349  0.3775  0.7356  0.2795
  149SAPE   H5Y16487   6.401   6.677   7.270 -1.2789  1.4365 -0.1438
  149SAPE   C3616488   6.430   6.844   7.396 -0.2209  0.2909 -0.2061
  149SAPE   H6X16489   6.358   6.911   7.344  1.6268  3.1021  0.6791
  149SAPE   H6Y16490   6.510   6.912   7.431  0.9999 -1.0095 -0.3727
  149SAPE   C3716491   6.357   6.774   7.515  0.5126 -0.2099  0.5333
  149SAPE   H7X16492   6.431   6.704   7.558  1.8163  1.2619  0.8064
  149SAPE   H7Y16493   6.272   6.717   7.473 -0.2905  0.5009  1.1733
  149SAPE   C3816494   6.298   6.874   7.615 -0.5786  0.5308 -0.0664
  149SAPE   H8X16495   6.215   6.931   7.569 -1.3114  1.0184  1.7783
  149SAPE   H8Y16496   6.379   6.939   7.654  1.1462 -3.2269  3.4155
  149SAPE   C3916497   6.244   6.811   7.745  0.0848 -0.4014 -0.4677
  149SAPE   H9X16498   6.156   6.752   7.712 -0.2387  0.6948 -1.6333
  149SAPE   H9Y16499   6.222   6.895   7.814  0.4663 -1.5110  1.0689
  149SAPE  C31016500   6.351   6.721   7.818 -0.9788  0.2034 -0.1015
  149SAPE  H10X16501   6.446   6.769   7.788 -0.6438  0.2478  0.9753
  149SAPE  H10Y16502   6.340   6.618   7.778 -2.4317  0.7581 -1.2312
  149SAPE  C31116503   6.343   6.717   7.967 -0.0879  0.3950  0.9424
  149SAPE  H11X16504   6.403   6.638   8.017 -2.3327 -1.0557  1.4667
  149SAPE  H11Y16505   6.239   6.690   7.994 -0.0192 -1.4306 -0.4286
  149SAPE  C31216506   6.394   6.844   8.033  0.1259 -0.2989  0.5679
  149SAPE  H12X16507   6.324   6.928   8.011  1.3966  0.9296  1.0929
  149SAPE  H12Y16508   6.487   6.872   7.978  0.3653 -2.1408 -0.0385
  149SAPE  C31316509   6.399   6.831   8.182 -0.4258 -0.4124  0.3616
  149SAPE  H13X16510   6.462   6.908   8.232 -0.7258 -0.4471  0.8021
  149SAPE  H13Y16511   6.433   6.729   8.209  0.5137 -0.7015 -1.7206
  149SAPE  C31416512   6.260   6.852   8.247 -0.1703 -0.0307 -0.1420
  149SAPE  H14X16513   6.193   6.765   8.228  1.2348 -0.7711 -1.9569
  149SAPE  H14Y16514   6.218   6.951   8.220 -0.7357  0.5305  2.5331
  149SAPE  C31516515   6.271   6.844   8.398 -0.1493  0.1889 -0.7909
  149SAPE  H15X16516   6.358   6.906   8.430  0.1087 -1.2818  1.5514
  149SAPE  H15Y16517   6.299   6.746   8.441 -0.0756  1.5273  2.5070
  149SAPE  C31616518   6.148   6.901   8.468  0.6142 -0.5315 -0.4663
  149SAPE  H16X16519   6.065   6.827   8.475  0.1038 -0.0792 -1.5294
  149SAPE  H16Y16520   6.112   6.988   8.409 -2.2744 -0.6849  0.8494
  149SAPE  C31716521   6.185   6.973   8.604 -0.4516  0.2865 -0.2857
  149SAPE  H17X16522   6.263   7.046   8.574 -0.6812 -0.0222 -1.6909
  149SAPE  H17Y16523   6.227   6.898   8.676 -0.1990 -1.3667 -2.0580
  149SAPE  C31816524   6.071   7.039   8.680 -0.1312  0.4437  0.8761
  149SAPE  H18X16525   6.032   7.125   8.621 -0.8677  0.5464  1.4893
  149SAPE  H18Y16526   6.098   7.070   8.783  1.6590 -3.7164  1.8535
  149SAPE  H18Z16527   5.985   6.969   8.692 -0.1392  0.2464 -0.2232
  150SAPE     N16528   4.965   2.505   6.084 -0.4916  0.7351 -0.4387
  150SAPE   HN116529   4.889   2.555   6.033  0.2204  1.2343 -1.0375
  150SAPE   HN216530   4.970   2.552   6.177  0.8077  0.5576 -0.4122
  150SAPE   HN316531   5.054   2.524   6.035 -1.2859  1.8440 -1.5358
  150SAPE   C1216532   4.951   2.358   6.116 -0.1895  0.0141  0.3171
  150SAPE  H12A16533   5.044   2.298   6.105 -0.5808 -0.5488  0.0183
  150SAPE  H12B16534   4.891   2.318   6.031 -0.3389 -0.1477  0.4988
  150SAPE   C1116535   4.877   2.341   6.249  0.1337  0.6917 -0.4192
  150SAPE  H11A16536   4.854   2.233   6.247 -1.5515  0.9476  1.7617
  150SAPE  H11B16537   4.779   2.394   6.250  0.8973  2.1565 -0.6074
  150SAPE     P16538   4.963   2.504   6.437  0.2466  0.0186  0.3370
  150SAPE   O1316539   5.047   2.507   6.560 -0.0818  0.0882 -0.5588
  150SAPE   O1416540   5.003   2.606   6.338 -0.1123  0.0041 -0.4117
  150SAPE   O1216541   4.968   2.363   6.367  0.0184 -0.2099 -0.2372
  150SAPE   O1116542   4.808   2.525   6.476 -0.0429 -0.0497  0.3074
  150SAPE    C116543   4.731   2.637   6.441  0.4696 -0.2304 -0.7000
  150SAPE    HA16544   4.749   2.674   6.338  2.3406 -0.2732 -0.4118
  150SAPE    HB16545   4.623   2.609   6.447  0.0532  1.3648 -0.1287
  150SAPE    C216546   4.742   2.755   6.543  0.3025  0.1602 -0.3083
  150SAPE    HS16547   4.829   2.818   6.515 -0.7392  1.2582 -1.2021
  150SAPE   O2116548   4.762   2.695   6.673  0.0840  0.4872  0.3662
  150SAPE   C2116549   4.881   2.701   6.724  0.0005 -0.1971  0.8380
  150SAPE   O2216550   4.970   2.782   6.688  0.1802  0.2184  0.1956
  150SAPE   C2216551   4.899   2.602   6.843  0.6241 -0.1250 -0.3695
  150SAPE   H2R16552   4.809   2.553   6.887  0.1935 -1.0886 -2.2008
  150SAPE   H2S16553   4.966   2.527   6.796  4.0357  2.4297  0.1074
  150SAPE    C316554   4.615   2.842   6.544  0.2013  0.7863 -0.2269
  150SAPE    HX16555   4.532   2.774   6.573 -0.1835  1.0585 -0.6624
  150SAPE    HY16556   4.597   2.883   6.442 -1.9513 -0.6250 -0.4842
  150SAPE   O3116557   4.634   2.947   6.643  0.1740 -0.4432 -0.9297
  150SAPE   C3116558   4.662   3.064   6.602 -0.7082  0.2480  0.2927
  150SAPE   O3216559   4.664   3.102   6.486 -0.6528 -0.0788  0.8578
  150SAPE   C3216560   4.677   3.167   6.711  0.7430 -0.5554  0.2439
  150SAPE   H2X16561   4.654   3.265   6.663  1.5880 -0.6935 -0.4654
  150SAPE   H2Y16562   4.782   3.178   6.744  1.4368 -0.6552 -1.8427
  150SAPE   C2316563   4.976   2.663   6.961 -0.1338  0.0056  0.0769
  150SAPE   H3R16564   5.067   2.716   6.925 -1.0476  2.0749  0.6587
  150SAPE   H3S16565   5.001   2.587   7.038 -1.2024 -1.8484 -1.3338
  150SAPE   C2416566   4.897   2.771   7.025 -0.1443  1.1728  0.2771
  150SAPE   H4R16567   4.854   2.841   6.951 -0.8191  0.5604  0.0709
  150SAPE   H4S16568   4.969   2.842   7.071 -0.9102  1.8048  0.5187
  150SAPE   C2516569   4.793   2.711   7.122  0.2364 -0.2162  0.1013
  150SAPE   H5R16570   4.731   2.628   7.085  3.3492 -3.4441  1.5425
  150SAPE   C2616571   4.776   2.758   7.248 -0.5397  0.3370  0.3543
  150SAPE   H6R16572   4.706   2.706   7.316  0.0231  1.7101  2.0565
  150SAPE   C2716573   4.844   2.872   7.314  0.2043  0.5319  0.6733
  150SAPE   H7R16574   4.779   2.899   7.400 -1.7389 -2.5441  0.3280
  150SAPE   H7S16575   4.857   2.967   7.259  0.3664 -0.6166 -1.3906
  150SAPE   C2816576   4.979   2.823   7.361  0.0153 -1.3050 -0.3550
  150SAPE   H8R16577   5.054   2.830   7.281  3.3009 -1.9791  2.4554
  150SAPE   C2916578   5.018   2.814   7.493 -0.2698  0.3927  0.5203
  150SAPE   H9R16579   5.112   2.760   7.514 -0.3937  0.8977  2.5927
  150SAPE  C21016580   4.932   2.824   7.617 -0.3990  0.1841  0.2852
  150SAPE  H10R16581   4.824   2.809   7.596 -0.7146  1.4068  0.9743
  150SAPE  H10S16582   4.946   2.933   7.634  0.3467  0.2493 -0.6410
  150SAPE  C21116583   4.976   2.738   7.727  0.4396  0.4505  0.3935
  150SAPE  H11R16584   4.920   2.645   7.745 -0.5001  0.8114 -0.6047
  150SAPE  C21216585   5.072   2.770   7.818  1.2255 -0.0750 -0.1635
  150SAPE  H12R16586   5.093   2.688   7.888  2.7447  0.7689  0.4055
  150SAPE  C21316587   5.157   2.897   7.837  0.0289 -0.1388 -0.1999
  150SAPE  H13R16588   5.181   2.941   7.738 -1.1751  0.6526 -0.1532
  150SAPE  H13S16589   5.259   2.879   7.879 -0.8245 -0.4677  1.8831
  150SAPE  C21416590   5.081   3.002   7.912 -0.0576  0.2916 -0.6264
  150SAPE  H14R16591   5.057   3.089   7.849 -0.2544  0.5816 -0.1552
  150SAPE  C21516592   5.053   3.012   8.042 -0.2013 -0.0427 -0.1370
  150SAPE  H15R16593   5.010   3.105   8.081 -0.1324  0.1680 -0.5589
  150SAPE  C21616594   5.087   2.898   8.135 -0.2672  0.2532 -0.6772
  150SAPE  H16R16595   5.148   2.931   8.222 -0.6009  0.1997 -0.4203
  150SAPE  H16S16596   5.153   2.816   8.098  1.3015  1.4144 -0.5941
  150SAPE  C21716597   4.964   2.827   8.195 -0.2921  0.1683 -0.0176
  150SAPE  H17R16598   4.899   2.793   8.111  0.2549 -2.0674  0.4125
  150SAPE  H17S16599   4.911   2.894   8.266 -0.9177 -0.3987  0.0598
  150SAPE  C21816600   5.011   2.701   8.268  0.5375 -0.0009  0.3757
  150SAPE  H18R16601   5.103   2.719   8.326 -0.8396  0.5641  2.4690
  150SAPE  H18S16602   5.034   2.639   8.179 -2.5559  4.0241 -3.7378
  150SAPE  C21916603   4.900   2.638   8.354  0.3312 -0.6471  0.2229
  150SAPE  H19R16604   4.938   2.537   8.380  1.2815 -0.8377 -1.7629
  150SAPE  H19S16605   4.811   2.621   8.290  1.7036 -0.4728 -1.7984
  150SAPE  C22016606   4.853   2.728   8.473 -0.7555  0.0390 -0.2283
  150SAPE  H20R16607   4.946   2.759   8.526 -0.7407 -0.0562 -0.1989
  150SAPE  H20S16608   4.790   2.666   8.540 -0.7041  1.9788  1.7470
  150SAPE  H20T16609   4.792   2.813   8.435  1.0277  1.2127 -0.6018
  150SAPE   C3316610   4.583   3.134   6.824  0.8538  0.0743  0.1419
  150SAPE   H3X16611   4.492   3.094   6.775 -0.7197  1.9998  1.3252
  150SAPE   H3Y16612   4.555   3.233   6.867 -0.4310 -0.2428  0.0943
  150SAPE   C3416613   4.643   3.050   6.932  0.4987  0.1415 -0.4700
  150SAPE   H4X16614   4.724   3.108   6.981 -0.0552  1.5895 -1.2259
  150SAPE   H4Y16615   4.690   2.959   6.888  0.4068  0.7066 -1.7929
  150SAPE   C3516616   4.539   3.012   7.041 -0.4339 -0.6591 -0.1455
  150SAPE   H5X16617   4.573   2.940   7.119 -0.5512 -0.3834  0.1623
  150SAPE   H5Y16618   4.449   2.960   7.002  1.1024 -5.3811  1.8379
  150SAPE   C3616619   4.498   3.132   7.128 -0.7038  0.0993  0.0366
  150SAPE   H6X16620   4.434   3.200   7.068  0.6331  1.1562 -0.2354
  150SAPE   H6Y16621   4.591   3.176   7.169 -0.6075  1.3692 -1.4709
  150SAPE   C3716622   4.410   3.089   7.247 -0.3535 -0.2001  0.2556
  150SAPE   H7X16623   4.347   2.999   7.226  1.8650 -1.6979 -0.2747
  150SAPE   H7Y16624   4.333   3.167   7.266  0.0790  0.1175  0.7277
  150SAPE   C3816625   4.491   3.074   7.380  0.2899  0.8986 -0.1837
  150SAPE   H8X16626   4.563   3.159   7.383  1.9276 -0.4252 -0.1599
  150SAPE   H8Y16627   4.547   2.979   7.370  0.9376  1.2822 -0.3245
  150SAPE   C3916628   4.408   3.070   7.514  0.0940  0.0348 -0.3638
  150SAPE   H9X16629   4.326   2.997   7.505 -0.9898  1.0273  1.0014
  150SAPE   H9Y16630   4.373   3.176   7.522  1.0090  0.3589 -0.4878
  150SAPE  C31016631   4.492   3.058   7.644 -0.1030 -0.1614  0.5600
  150SAPE  H10X16632   4.571   3.136   7.645  0.0092 -0.2775  0.8895
  150SAPE  H10Y16633   4.545   2.961   7.645  0.6035  0.2088  1.8279
  150SAPE  C31116634   4.421   3.063   7.782 -0.5040 -0.2300 -0.1778
  150SAPE  H11X16635   4.345   2.984   7.798 -0.1795 -1.2143 -2.8824
  150SAPE  H11Y16636   4.374   3.163   7.795  1.4175  0.8141 -0.9441
  150SAPE  C31216637   4.511   3.043   7.909 -0.0236 -0.1312  0.2504
  150SAPE  H12X16638   4.588   3.123   7.910 -1.0397  0.8885 -0.5771
  150SAPE  H12Y16639   4.567   2.947   7.907  0.9808  0.2948  3.3729
  150SAPE  C31316640   4.427   3.053   8.032  0.2917  0.2829 -0.4959
  150SAPE  H13X16641   4.355   2.969   8.046  0.3159  0.4831  0.9925
  150SAPE  H13Y16642   4.364   3.144   8.035  1.2187  0.9435  2.0249
  150SAPE  C31416643   4.524   3.044   8.152 -0.2307 -1.0299 -0.5987
  150SAPE  H14X16644   4.593   3.130   8.161 -0.8855 -0.4743 -0.8022
  150SAPE  H14Y16645   4.591   2.956   8.138 -0.0268 -1.1743  1.0764
  150SAPE  C31516646   4.450   3.015   8.289  0.2230 -0.4516  0.0417
  150SAPE  H15X16647   4.393   2.919   8.289 -0.9531  0.0861  3.6898
  150SAPE  H15Y16648   4.372   3.092   8.308  0.6183 -0.0012 -0.1443
  150SAPE  C31616649   4.542   3.011   8.410 -0.4180  0.3268  1.0591
  150SAPE  H16X16650   4.589   3.110   8.427  1.3833 -0.3203  0.1343
  150SAPE  H16Y16651   4.632   2.949   8.388 -1.4232 -0.4740 -1.0998
  150SAPE  C31716652   4.470   2.969   8.535 -0.8583 -0.1611  0.0665
  150SAPE  H17X16653   4.434   2.864   8.531  0.9214 -0.8998  1.6946
  150SAPE  H17Y16654   4.374   3.025   8.533  0.3822  2.0731  0.1362
  150SAPE  C31816655   4.553   3.001   8.662 -0.0164  0.7119 -0.4374
  150SAPE  H18X16656   4.505   2.964   8.756 -0.6208  0.3089 -0.8974
  150SAPE  H18Y16657   4.567   3.109   8.683 -2.4604  1.0018  0.0336
  150SAPE  H18Z16658   4.656   2.959   8.663 -0.6353 -0.9315  0.8103
  151SAPE     N16659   0.306   6.358   6.230  0.5059  0.6156 -0.0196
  151SAPE   HN116660   0.243   6.425   6.182 -0.1020  0.4610  0.5409
  151SAPE   HN216661   0.259   6.267   6.246  2.3402 -0.0254  2.2816
  151SAPE   HN316662   0.333   6.399   6.322 -0.1067 -0.3373  0.5958
  151SAPE   C1216663   0.432   6.339   6.145  0.8244  0.7234  0.0624
  151SAPE  H12A16664   0.425   6.409   6.059 -0.5806 -0.1831 -0.6038
  151SAPE  H12B16665   0.425   6.239   6.099 -0.1458  0.9379 -0.2844
  151SAPE   C1116666   0.559   6.375   6.218  0.4767  0.4744  0.4158
  151SAPE  H11A16667   0.641   6.350   6.147 -1.1685 -0.3832 -1.2384
  151SAPE  H11B16668   0.575   6.299   6.298  0.9755 -1.0858 -1.1067
  151SAPE     P16669   0.510   6.585   6.392  0.2828  0.0878 -0.0703
  151SAPE   O1316670   0.483   6.731   6.368  0.2086 -0.4242  0.1211
  151SAPE   O1416671   0.404   6.495   6.451 -0.0047 -0.3130  0.0370
  151SAPE   O1216672   0.559   6.516   6.254 -0.0767 -0.1661 -0.3839
  151SAPE   O1116673   0.645   6.586   6.479 -0.2814  0.5790  0.5090
  151SAPE    C116674   0.658   6.490   6.584  0.4237 -0.6823  0.1197
  151SAPE    HA16675   0.632   6.386   6.556  0.8827 -0.7392 -0.1070
  151SAPE    HB16676   0.767   6.490   6.607  1.0843  2.4111 -2.2141
  151SAPE    C216677   0.585   6.541   6.714 -0.3471 -0.6127 -1.0805
  151SAPE    HS16678   0.476   6.561   6.701 -0.5007 -0.7130 -0.0503
  151SAPE   O2116679   0.656   6.667   6.744  0.4070  0.2470 -0.1357
  151SAPE   C2116680   0.574   6.767   6.781 -0.0283 -0.1448  0.7676
  151SAPE   O2216681   0.454   6.765   6.790  0.0083  0.1010 -0.3146
  151SAPE   C2216682   0.661   6.889   6.797  0.4709 -0.2482 -0.2849
  151SAPE   H2R16683   0.766   6.859   6.820  0.4489  0.5259  0.9187
  151SAPE   H2S16684   0.656   6.952   6.705  0.1272 -0.9833 -0.7725
  151SAPE    C316685   0.594   6.436   6.825 -0.1715 -0.0656 -0.3692
  151SAPE    HX16686   0.703   6.418   6.838 -0.0338  1.9644  1.8332
  151SAPE    HY16687   0.526   6.350   6.805 -3.7565  2.5640 -0.4177
  151SAPE   O3116688   0.545   6.500   6.955 -0.5714 -0.3625 -0.3992
  151SAPE   C3116689   0.413   6.512   6.957  0.1445  0.2818 -0.3932
  151SAPE   O3216690   0.332   6.480   6.874 -0.0164  0.2668 -0.5787
  151SAPE   C3216691   0.376   6.595   7.084  0.1971  0.3461  0.1875
  151SAPE   H2X16692   0.400   6.698   7.052  1.7851 -0.7982 -2.7001
  151SAPE   H2Y16693   0.445   6.558   7.162 -0.3277  2.1668  1.5734
  151SAPE   C2316694   0.638   6.975   6.922  0.2482  0.1039 -0.4265
  151SAPE   H3R16695   0.531   6.978   6.952  0.1697 -2.5119 -0.2109
  151SAPE   H3S16696   0.673   7.079   6.907  3.7150 -1.0008 -0.8434
  151SAPE   C2416697   0.714   6.920   7.049  0.3183  0.2230 -0.3658
  151SAPE   H4R16698   0.729   6.998   7.127 -2.1401  0.5495 -0.1494
  151SAPE   H4S16699   0.813   6.904   7.002  0.5984 -0.5487  0.4595
  151SAPE   C2516700   0.661   6.792   7.107  0.9542 -0.1039 -0.9335
  151SAPE   H5R16701   0.649   6.705   7.041  0.8060 -0.9445  0.1627
  151SAPE   C2616702   0.606   6.783   7.230 -0.1572 -0.3349 -0.2022
  151SAPE   H6R16703   0.554   6.691   7.260 -2.1635  1.0881  0.9373
  151SAPE   C2716704   0.608   6.896   7.334  0.0379  0.4032 -0.0386
  151SAPE   H7R16705   0.555   6.988   7.300 -0.7815  0.8777  2.2879
  151SAPE   H7S16706   0.709   6.932   7.364 -0.2459  2.3319 -1.2024
  151SAPE   C2816707   0.532   6.845   7.454 -0.0986 -0.8269 -0.7415
  151SAPE   H8R16708   0.530   6.736   7.466  2.1854 -0.6914  1.5603
  151SAPE   C2916709   0.469   6.925   7.552 -0.7650  0.2418 -0.1832
  151SAPE   H9R16710   0.440   6.870   7.643  0.0377 -0.4479 -0.3308
  151SAPE  C21016711   0.469   7.074   7.544  0.4863 -0.1063  0.2916
  151SAPE  H10R16712   0.370   7.115   7.574 -0.0521  0.3207 -1.8717
  151SAPE  H10S16713   0.476   7.106   7.438 -2.4810 -0.3628 -0.0763
  151SAPE  C21116714   0.577   7.128   7.631 -0.6606  0.2505 -0.7609
  151SAPE  H11R16715   0.636   7.057   7.691 -0.9920  0.7450  0.1566
  151SAPE  C21216716   0.625   7.261   7.636  0.5544  0.9676 -0.0571
  151SAPE  H12R16717   0.711   7.292   7.698  0.6952  2.8930 -1.1226
  151SAPE  C21316718   0.574   7.379   7.555  0.4106  0.7721 -0.4586
  151SAPE  H13R16719   0.553   7.460   7.627  0.3411  0.0745  0.3208
  151SAPE  H13S16720   0.475   7.348   7.513 -0.3110 -0.2812  1.8469
  151SAPE  C21416721   0.679   7.398   7.447 -0.8301 -0.5572 -0.2354
  151SAPE  H14R16722   0.770   7.446   7.487 -1.6624  0.1507  0.8422
  151SAPE  C21516723   0.656   7.388   7.315 -0.4071  0.5149 -0.0432
  151SAPE  H15R16724   0.737   7.419   7.247 -2.4806 -0.4616 -3.1456
  151SAPE  C21616725   0.533   7.342   7.245  0.7301  0.1651  0.3029
  151SAPE  H16R16726   0.449   7.308   7.310 -1.8279  1.0185 -2.3610
  151SAPE  H16S16727   0.551   7.253   7.181  2.4354  0.1896  0.7176
  151SAPE  C21716728   0.471   7.459   7.156 -0.2093 -0.3541  0.3699
  151SAPE  H17R16729   0.469   7.559   7.203  0.1668  1.0082 -2.3094
  151SAPE  H17S16730   0.364   7.446   7.129 -0.6035  0.0299  1.7006
  151SAPE  C21816731   0.546   7.484   7.025 -0.4604 -0.1494  0.1265
  151SAPE  H18R16732   0.541   7.396   6.958  1.2115 -1.3096  1.4345
  151SAPE  H18S16733   0.652   7.507   7.051 -1.0346  0.1910  2.3758
  151SAPE  C21916734   0.487   7.601   6.943  0.6330  0.4081 -0.4668
  151SAPE  H19R16735   0.498   7.691   7.007 -0.7002 -0.3300  0.8668
  151SAPE  H19S16736   0.377   7.596   6.926  0.6941  1.1554 -1.1426
  151SAPE  C22016737   0.562   7.643   6.816 -0.7536  0.1053 -0.0990
  151SAPE  H20R16738   0.508   7.726   6.765 -0.0054 -0.9347 -2.7645
  151SAPE  H20S16739   0.670   7.663   6.833 -0.9424  0.7649  0.3506
  151SAPE  H20T16740   0.567   7.557   6.745  3.8705  1.2100 -1.4528
  151SAPE   C3316741   0.230   6.595   7.122 -0.0347  0.3891  0.2466
  151SAPE   H3X16742   0.187   6.492   7.123  0.0086  0.3710  0.2295
  151SAPE   H3Y16743   0.181   6.651   7.039  1.6451  1.3126 -0.1647
  151SAPE   C3416744   0.227   6.656   7.261 -0.3615 -0.8629 -0.1107
  151SAPE   H4X16745   0.294   6.744   7.253 -1.3398 -0.1853 -1.2086
  151SAPE   H4Y16746   0.262   6.601   7.351 -0.5534  0.4837  0.8248
  151SAPE   C3516747   0.087   6.707   7.303 -0.1921  0.0276 -0.3572
  151SAPE   H5X16748   0.008   6.631   7.289 -1.9714  1.6469  0.4622
  151SAPE   H5Y16749   0.058   6.796   7.243 -2.1176 -1.2812 -1.4436
  151SAPE   C3616750   0.084   6.746   7.451  0.2951 -0.0060 -0.3091
  151SAPE   H6X16751  -0.002   6.813   7.471  0.6035  0.2430  0.1871
  151SAPE   H6Y16752   0.172   6.811   7.469  0.0572  1.6825 -4.1182
  151SAPE   C3716753   0.067   6.624   7.540 -0.5940 -0.1008  0.5626
  151SAPE   H7X16754   0.161   6.572   7.569  0.7911  1.8067 -0.2975
  151SAPE   H7Y16755  -0.005   6.553   7.492  1.4515 -2.5900  0.9585
  151SAPE   C3816756  -0.004   6.660   7.674 -0.0744  0.2974 -0.5412
  151SAPE   H8X16757  -0.096   6.717   7.650 -0.7637 -0.9839 -1.0306
  151SAPE   H8Y16758   0.063   6.729   7.729  0.9298  2.8219 -4.5385
  151SAPE   C3916759  -0.035   6.527   7.758 -0.2625  0.4428 -0.2472
  151SAPE   H9X16760   0.058   6.491   7.807 -0.5070  1.1673  0.7687
  151SAPE   H9Y16761  -0.074   6.446   7.692  0.4380  0.6820 -0.9780
  151SAPE  C31016762  -0.129   6.562   7.878  0.0394 -0.3321  0.0542
  151SAPE  H10X16763  -0.230   6.571   7.833  0.5159  0.1352 -0.9780
  151SAPE  H10Y16764  -0.111   6.665   7.915 -0.6712 -0.1759 -0.0155
  151SAPE  C31116765  -0.143   6.472   7.993 -0.0605  0.4609 -0.5847
  151SAPE  H11X16766  -0.148   6.366   7.957  1.7738  0.4531 -0.8772
  151SAPE  H11Y16767  -0.233   6.497   8.053 -0.5081  2.0348 -1.8471
  151SAPE  C31216768  -0.021   6.472   8.088  0.8523 -0.2304  0.2967
  151SAPE  H12X16769  -0.034   6.554   8.162 -1.4726  2.3704 -2.6459
  151SAPE  H12Y16770   0.068   6.520   8.043  0.9440 -0.2331  0.4768
  151SAPE  C31316771  -0.004   6.341   8.156 -0.2620  0.2401  0.1026
  151SAPE  H13X16772  -0.093   6.286   8.194 -0.3869  0.6785  0.4437
  151SAPE  H13Y16773   0.065   6.351   8.243 -0.3495 -0.8573  0.3219
  151SAPE  C31416774   0.063   6.240   8.063  1.4134  0.9452  0.9081
  151SAPE  H14X16775   0.162   6.269   8.022  0.6521 -0.4617 -2.1914
  151SAPE  H14Y16776   0.010   6.235   7.966  0.5946  0.4510  1.3623
  151SAPE  C31516777   0.063   6.095   8.124 -0.7872 -0.3783  0.3670
  151SAPE  H15X16778  -0.041   6.072   8.155 -1.8090  1.1305 -1.6481
  151SAPE  H15Y16779   0.128   6.102   8.213 -0.2728 -1.5629  0.1031
  151SAPE  C31616780   0.120   5.985   8.036 -0.6507 -0.5289 -0.1055
  151SAPE  H16X16781   0.223   6.011   8.002 -0.9593  2.5762  1.0360
  151SAPE  H16Y16782   0.055   5.985   7.946 -1.3018  1.0994  0.3313
  151SAPE  C31716783   0.129   5.851   8.105 -0.1682 -0.1437 -0.1873
  151SAPE  H17X16784   0.110   5.774   8.027 -1.8078  1.4613 -1.4570
  151SAPE  H17Y16785   0.050   5.844   8.182  0.1728 -1.0190  0.0970
  151SAPE  C31816786   0.253   5.820   8.180 -0.7864 -0.7761  0.0286
  151SAPE  H18X16787   0.347   5.826   8.121 -1.1145  1.1932 -0.3692
  151SAPE  H18Y16788   0.253   5.720   8.230 -0.4763 -0.0886  1.4468
  151SAPE  H18Z16789   0.274   5.898   8.256  1.0662 -1.0797 -0.1104
  152SAPE     N16790   4.044   2.408   5.982 -0.1373  0.2282 -0.2100
  152SAPE   HN116791   3.994   2.491   6.018 -0.8465 -1.3271  2.7773
  152SAPE   HN216792   4.069   2.428   5.883 -4.1896 -0.6012 -1.6085
  152SAPE   HN316793   3.979   2.328   5.998  0.6121 -0.4589 -0.5076
  152SAPE   C1216794   4.172   2.403   6.065 -0.0271  0.0620 -0.3707
  152SAPE  H12A16795   4.245   2.476   6.024 -0.5705  1.1657  0.6078
  152SAPE  H12B16796   4.208   2.298   6.058  0.1216  0.1922 -1.9846
  152SAPE   C1116797   4.139   2.439   6.212 -0.7587 -0.0307 -0.6936
  152SAPE  H11A16798   4.071   2.527   6.210 -0.8264 -0.0414  0.6298
  152SAPE  H11B16799   4.227   2.479   6.266 -0.5398 -1.4516  0.0290
  152SAPE     P16800   4.140   2.219   6.359 -0.2947  0.0811 -0.2065
  152SAPE   O1316801   4.046   2.111   6.389  0.2006 -0.2805 -0.0175
  152SAPE   O1416802   4.261   2.177   6.291  0.0429  0.3494  0.2570
  152SAPE   O1216803   4.073   2.330   6.275 -0.0145 -0.0885  0.0244
  152SAPE   O1116804   4.182   2.295   6.493  0.5675  0.5711 -0.2391
  152SAPE    C116805   4.304   2.266   6.557  0.1794  0.7685 -0.0231
  152SAPE    HA16806   4.314   2.165   6.602 -1.6791  0.6408  0.1695
  152SAPE    HB16807   4.385   2.293   6.486  0.2236  0.3859 -0.1155
  152SAPE    C216808   4.323   2.358   6.679 -0.4846  0.2187 -0.1443
  152SAPE    HS16809   4.400   2.307   6.741  0.6902  3.2038  1.0138
  152SAPE   O2116810   4.200   2.367   6.755 -0.6116  0.1869 -0.4201
  152SAPE   C2116811   4.158   2.261   6.807 -0.2286 -0.6957  0.2072
  152SAPE   O2216812   4.213   2.151   6.807  0.1071  0.5672 -0.1784
  152SAPE   C2216813   4.018   2.282   6.862 -0.0647 -0.0595  0.7163
  152SAPE   H2R16814   3.942   2.289   6.781 -0.5489 -1.0441  1.0760
  152SAPE   H2S16815   4.000   2.187   6.916  0.3921 -1.4179 -1.4245
  152SAPE    C316816   4.388   2.500   6.636 -0.4034 -0.2308  1.0623
  152SAPE    HX16817   4.326   2.541   6.554  0.9201 -0.7477 -0.2458
  152SAPE    HY16818   4.487   2.480   6.590  0.2824  0.9658  1.9642
  152SAPE   O3116819   4.382   2.594   6.739 -0.0394  0.0373  0.1074
  152SAPE   C3116820   4.476   2.573   6.829 -0.5048  0.0604  0.5945
  152SAPE   O3216821   4.565   2.489   6.833 -0.7301 -0.1484  0.1389
  152SAPE   C3216822   4.463   2.670   6.942  0.5585  0.6226  0.5092
  152SAPE   H2X16823   4.511   2.766   6.913  2.6759 -0.7180 -0.6525
  152SAPE   H2Y16824   4.528   2.625   7.020 -1.5764 -2.4284  0.6906
  152SAPE   C2316825   3.974   2.403   6.955 -0.5026 -1.1201  0.0207
  152SAPE   H3R16826   3.969   2.497   6.896 -3.6981  0.2332  2.2049
  152SAPE   H3S16827   4.050   2.401   7.037  1.3954 -1.6293 -1.6618
  152SAPE   C2416828   3.842   2.383   7.021 -0.4005 -0.6667 -0.3770
  152SAPE   H4R16829   3.768   2.360   6.941  0.4302  0.4739 -1.5066
  152SAPE   H4S16830   3.816   2.481   7.065  0.7083 -1.5983  2.5926
  152SAPE   C2516831   3.849   2.272   7.127 -0.1128  0.6178  0.6300
  152SAPE   H5R16832   3.818   2.173   7.089  0.1106  0.7236  0.1689
  152SAPE   C2616833   3.896   2.277   7.252 -0.0089 -0.1007  0.5495
  152SAPE   H6R16834   3.894   2.184   7.311 -1.2575  0.4385  1.3969
  152SAPE   C2716835   3.956   2.389   7.330 -0.7428  0.0146 -0.0662
  152SAPE   H7R16836   3.959   2.476   7.260 -1.9533  0.7979  0.8123
  152SAPE   H7S16837   4.060   2.363   7.358  0.2212  2.3814 -1.1757
  152SAPE   C2816838   3.879   2.435   7.454  0.0241 -0.0565  0.3880
  152SAPE   H8R16839   3.810   2.517   7.426  1.7212  1.1154 -0.5793
  152SAPE   C2916840   3.901   2.396   7.579 -0.3219  0.1991 -0.6264
  152SAPE   H9R16841   3.836   2.435   7.658  0.8254  0.8749  0.0035
  152SAPE  C21016842   4.006   2.299   7.631  0.6281  0.0138 -0.2210
  152SAPE  H10R16843   4.087   2.358   7.679 -0.0904  1.0551 -0.2603
  152SAPE  H10S16844   4.059   2.240   7.553  3.4240  0.8075  0.9301
  152SAPE  C21116845   3.949   2.202   7.741 -0.4146  0.1778  0.3179
  152SAPE  H11R16846   3.909   2.107   7.701 -0.5074  0.1923  0.3740
  152SAPE  C21216847   3.959   2.220   7.875 -0.1018 -0.5870 -0.2704
  152SAPE  H12R16848   3.912   2.143   7.938  1.8816 -2.3608 -0.8700
  152SAPE  C21316849   4.018   2.342   7.937 -0.5476 -0.0815 -0.5208
  152SAPE  H13R16850   4.008   2.433   7.876 -0.5268  1.0591  1.1126
  152SAPE  H13S16851   4.127   2.328   7.953 -0.4109  1.4222 -0.0327
  152SAPE  C21416852   3.941   2.349   8.077 -0.1089  0.5887  0.2923
  152SAPE  H14R16853   3.833   2.372   8.085  0.0657  0.9775  1.8584
  152SAPE  C21516854   3.999   2.338   8.194 -0.1878 -0.6933 -0.5243
  152SAPE  H15R16855   3.932   2.338   8.281 -0.0671 -1.9306 -0.4174
  152SAPE  C21616856   4.148   2.321   8.232 -0.1418  0.6738  0.8870
  152SAPE  H16R16857   4.204   2.417   8.220  0.9047  0.1183  1.2358
  152SAPE  H16S16858   4.196   2.246   8.166 -0.5361 -0.6495  2.0574
  152SAPE  C21716859   4.154   2.278   8.377  0.0826  0.4171  0.6261
  152SAPE  H17R16860   4.257   2.239   8.390 -0.1650 -0.2960  0.5302
  152SAPE  H17S16861   4.079   2.198   8.395 -0.7236  0.8743 -0.5726
  152SAPE  C21816862   4.136   2.400   8.467 -0.1563  0.0813  0.3189
  152SAPE  H18R16863   4.027   2.424   8.472 -0.4192 -1.2909  1.8012
  152SAPE  H18S16864   4.206   2.483   8.445  0.5871 -0.4014  0.8609
  152SAPE  C21916865   4.162   2.351   8.609 -0.1745 -0.2757 -0.4396
  152SAPE  H19R16866   4.268   2.348   8.641 -0.1583 -0.8526 -0.5448
  152SAPE  H19S16867   4.113   2.252   8.615  1.4862 -1.1270 -0.4316
  152SAPE  C22016868   4.097   2.438   8.715 -0.5807 -0.1154  0.1721
  152SAPE  H20R16869   4.101   2.381   8.811  0.6965 -0.2388  0.0621
  152SAPE  H20S16870   3.987   2.439   8.704 -0.6189 -1.4135  0.2641
  152SAPE  H20T16871   4.142   2.539   8.707  1.2227 -0.6681  2.2267
  152SAPE   C3316872   4.324   2.689   6.995 -0.0127 -0.3237 -0.1851
  152SAPE   H3X16873   4.252   2.717   6.915 -0.3914 -1.6982 -0.3608
  152SAPE   H3Y16874   4.328   2.769   7.072 -0.5856  0.5227 -1.0111
  152SAPE   C3416875   4.261   2.565   7.063 -0.5832 -0.0428  0.2568
  152SAPE   H4X16876   4.243   2.493   6.980  1.0534  2.5978 -2.6092
  152SAPE   H4Y16877   4.157   2.600   7.082 -0.9216 -0.8438 -0.0846
  152SAPE   C3516878   4.340   2.489   7.175  0.5415  0.4785  0.6020
  152SAPE   H5X16879   4.425   2.431   7.133  1.5549  2.4595 -0.2157
  152SAPE   H5Y16880   4.263   2.424   7.222 -1.0825  1.6983 -0.2400
  152SAPE   C3616881   4.390   2.587   7.277  0.3215 -1.1032 -0.7178
  152SAPE   H6X16882   4.312   2.660   7.310 -1.0276 -1.5383 -2.7692
  152SAPE   H6Y16883   4.466   2.653   7.231 -1.8063  2.0567 -0.0719
  152SAPE   C3716884   4.449   2.508   7.403 -0.6687  0.9245 -0.3683
  152SAPE   H7X16885   4.528   2.434   7.377 -1.5002 -0.1952  0.2367
  152SAPE   H7Y16886   4.369   2.451   7.455  1.4133 -0.8706  1.0717
  152SAPE   C3816887   4.511   2.602   7.510  0.0124 -0.2629 -0.4264
  152SAPE   H8X16888   4.458   2.699   7.499 -1.6570 -0.8662  1.6176
  152SAPE   H8Y16889   4.620   2.620   7.499 -0.0664 -0.1426 -1.0446
  152SAPE   C3916890   4.488   2.545   7.651  0.3721 -0.2688 -1.3880
  152SAPE   H9X16891   4.533   2.444   7.663 -1.6823 -1.2796 -1.6528
  152SAPE   H9Y16892   4.379   2.526   7.661  0.5584 -0.4340  0.8056
  152SAPE  C31016893   4.517   2.652   7.762  0.3573 -0.0201 -0.9183
  152SAPE  H10X16894   4.451   2.740   7.748 -0.0974 -0.3977 -1.1711
  152SAPE  H10Y16895   4.624   2.681   7.760  0.7318 -1.2382 -0.1847
  152SAPE  C31116896   4.489   2.581   7.903 -0.4337 -0.1732  0.2569
  152SAPE  H11X16897   4.525   2.476   7.901  0.0838 -0.0574 -3.3033
  152SAPE  H11Y16898   4.378   2.569   7.903 -0.5258  0.5183 -0.6196
  152SAPE  C31216899   4.517   2.665   8.034  0.2689  0.6244 -0.1321
  152SAPE  H12X16900   4.463   2.761   8.037 -0.7490  0.0594 -0.0946
  152SAPE  H12Y16901   4.627   2.679   8.042  0.5205 -1.7254  1.6161
  152SAPE  C31316902   4.478   2.603   8.169 -0.6349  0.9480 -0.2512
  152SAPE  H13X16903   4.371   2.622   8.189 -0.1514  2.5119  1.0798
  152SAPE  H13Y16904   4.531   2.659   8.249  2.0603 -1.7176 -0.0071
  152SAPE  C31416905   4.499   2.452   8.177 -0.4390 -0.0215  0.6119
  152SAPE  H14X16906   4.594   2.433   8.123  0.4682 -1.4005  2.5582
  152SAPE  H14Y16907   4.415   2.395   8.134 -0.2850 -0.9869  1.5522
  152SAPE  C31516908   4.537   2.410   8.321  0.5631 -0.5923 -0.5363
  152SAPE  H15X16909   4.451   2.447   8.381  2.1537  0.3913  1.2234
  152SAPE  H15Y16910   4.624   2.473   8.349 -0.4106  0.8788 -0.7121
  152SAPE  C31616911   4.554   2.258   8.341 -0.5718  0.7826 -0.1619
  152SAPE  H16X16912   4.629   2.217   8.271 -2.0977 -0.7486 -0.9873
  152SAPE  H16Y16913   4.451   2.218   8.327 -0.4699 -0.0665  1.2812
  152SAPE  C31716914   4.591   2.193   8.473 -0.4609  0.4828  0.5400
  152SAPE  H17X16915   4.695   2.221   8.502  0.1017 -0.2292 -0.7057
  152SAPE  H17Y16916   4.582   2.083   8.458  0.9398  0.3479  0.5005
  152SAPE  C31816917   4.500   2.234   8.587 -0.7998 -0.4464  0.1711
  152SAPE  H18X16918   4.407   2.181   8.556  0.4425 -2.7371  0.0989
  152SAPE  H18Y16919   4.487   2.344   8.589 -0.0496 -0.3546  1.4718
  152SAPE  H18Z16920   4.534   2.193   8.685  0.5482  0.7835  0.2553
  153SAPE     N16921   0.296   4.232   6.146 -0.4270 -0.7216 -0.5070
  153SAPE   HN116922   0.256   4.297   6.075 -2.5220 -0.8496  0.4979
  153SAPE   HN216923   0.329   4.140   6.108  1.0509 -0.4746  0.0924
  153SAPE   HN316924   0.218   4.200   6.206  0.7705 -0.9345  1.0063
  153SAPE   C1216925   0.412   4.299   6.214  0.3585 -0.2075 -0.1165
  153SAPE  H12A16926   0.376   4.396   6.253  0.0547 -0.7176  0.9321
  153SAPE  H12B16927   0.494   4.312   6.140 -0.1353  0.0634 -0.6242
  153SAPE   C1116928   0.446   4.212   6.343 -0.0181  0.5561  0.4105
  153SAPE  H11A16929   0.367   4.214   6.422 -1.5757 -1.8397 -0.9665
  153SAPE  H11B16930   0.541   4.251   6.385  0.7695 -0.0850 -0.7296
  153SAPE     P16931   0.540   3.976   6.427 -0.4772  0.3856  0.8379
  153SAPE   O1316932   0.504   3.840   6.386  0.1029 -0.4117  0.2116
  153SAPE   O1416933   0.681   4.001   6.456  0.7120 -0.6245 -0.4778
  153SAPE   O1216934   0.480   4.074   6.319  0.9984  0.2891  0.1445
  153SAPE   O1116935   0.462   4.011   6.553  0.2817  0.4945  0.4085
  153SAPE    C116936   0.407   3.899   6.625 -0.1405 -0.2951 -0.2385
  153SAPE    HA16937   0.346   3.829   6.563 -0.1068 -0.1720 -0.4106
  153SAPE    HB16938   0.494   3.847   6.671 -0.5098  1.6128  2.8769
  153SAPE    C216939   0.318   3.952   6.749 -0.8130  0.1408  0.9734
  153SAPE    HS16940   0.243   4.018   6.699 -0.6541 -0.1031  0.3988
  153SAPE   O2116941   0.407   4.023   6.840 -0.4966 -0.5968  0.0805
  153SAPE   C2116942   0.358   4.134   6.892 -0.6489 -0.0333  0.4618
  153SAPE   O2216943   0.242   4.168   6.883 -0.0504 -0.5556 -0.1775
  153SAPE   C2216944   0.471   4.209   6.968  0.0704 -0.7223  0.6238
  153SAPE   H2R16945   0.561   4.213   6.902  0.0603 -1.8711  0.5223
  153SAPE   H2S16946   0.428   4.308   6.995  2.1195  0.5233 -0.3594
  153SAPE    C316947   0.246   3.831   6.810 -0.4590 -0.2482 -1.0122
  153SAPE    HX16948   0.210   3.782   6.718 -2.0364 -1.1362  0.0283
  153SAPE    HY16949   0.170   3.874   6.878  0.4483  0.1609 -0.2219
  153SAPE   O3116950   0.344   3.748   6.879  0.6248  0.1480 -0.3991
  153SAPE   C3116951   0.282   3.650   6.942  0.1007  0.9893 -0.5403
  153SAPE   O3216952   0.161   3.623   6.946 -0.0379  0.6810  0.4118
  153SAPE   C3216953   0.390   3.561   7.004  0.7252  0.4161  0.6765
  153SAPE   H2X16954   0.490   3.610   6.996  0.6892  0.4877  0.6672
  153SAPE   H2Y16955   0.400   3.475   6.934  2.6627  1.9742 -1.1094
  153SAPE   C2316956   0.517   4.125   7.089 -0.0046 -0.5561  0.0064
  153SAPE   H3R16957   0.607   4.167   7.139 -1.7647  2.2124  1.0890
  153SAPE   H3S16958   0.550   4.027   7.047  1.4964  0.7581 -2.1221
  153SAPE   C2416959   0.402   4.109   7.193  0.5133 -0.9389 -1.0477
  153SAPE   H4R16960   0.306   4.081   7.144 -0.6392  0.1101  0.5069
  153SAPE   H4S16961   0.382   4.208   7.239  0.4976 -0.5833 -1.8076
  153SAPE   C2516962   0.428   3.994   7.289 -0.2687 -0.4354 -0.8856
  153SAPE   H5R16963   0.414   3.889   7.261 -1.0123 -0.4601 -0.4465
  153SAPE   C2616964   0.480   4.014   7.413 -0.2024 -0.7069 -0.2612
  153SAPE   H6R16965   0.510   3.930   7.479  0.3518 -0.6186 -0.3993
  153SAPE   C2716966   0.522   4.149   7.468 -0.2395  0.3876 -0.1668
  153SAPE   H7R16967   0.562   4.209   7.384 -1.1186  0.0403 -0.8544
  153SAPE   H7S16968   0.604   4.137   7.541 -1.2920  0.9115  1.1543
  153SAPE   C2816969   0.413   4.226   7.539 -0.1262  0.8645  0.6757
  153SAPE   H8R16970   0.361   4.303   7.479 -1.6620 -1.8424 -1.7668
  153SAPE   C2916971   0.368   4.206   7.660  0.2761 -0.2352 -0.2586
  153SAPE   H9R16972   0.305   4.279   7.713  0.5713  0.3637 -0.7187
  153SAPE  C21016973   0.416   4.102   7.756  0.3292 -0.2287  0.4695
  153SAPE  H10R16974   0.494   4.148   7.821 -0.3672  1.5671  0.0914
  153SAPE  H10S16975   0.480   4.028   7.703  0.3596 -0.7531  1.2216
  153SAPE  C21116976   0.317   4.031   7.841  0.2466 -0.1834 -0.6048
  153SAPE  H11R16977   0.261   3.951   7.790 -0.0566 -0.6499  0.4359
  153SAPE  C21216978   0.285   4.052   7.969  0.2395  0.6477  0.2297
  153SAPE  H12R16979   0.217   3.980   8.017  1.2422  0.5676  1.5785
  153SAPE  C21316980   0.344   4.151   8.065  0.1299  0.3857 -0.2555
  153SAPE  H13R16981   0.271   4.227   8.099 -0.3825  0.3945 -1.3470
  153SAPE  H13S16982   0.413   4.218   8.009 -0.7155  1.5482  0.0544
  153SAPE  C21416983   0.410   4.077   8.177  0.8190 -0.3435  0.0012
  153SAPE  H14R16984   0.516   4.055   8.160  0.2880 -2.6966 -0.5514
  153SAPE  C21516985   0.345   4.045   8.287 -0.6411  0.4279 -0.3500
  153SAPE  H15R16986   0.391   3.995   8.373 -1.7308  0.1484  0.0866
  153SAPE  C21616987   0.199   4.062   8.331 -0.1020 -0.7499 -0.4231
  153SAPE  H16R16988   0.152   4.161   8.312 -0.3167 -0.9507 -0.9780
  153SAPE  H16S16989   0.193   4.051   8.441 -2.8120 -1.8085 -0.6131
  153SAPE  C21716990   0.095   3.971   8.265  0.6942  0.0812 -0.5121
  153SAPE  H17R16991   0.075   4.010   8.162  1.0078  1.6070 -0.0267
  153SAPE  H17S16992  -0.001   3.971   8.320  0.5584  2.0406 -0.6891
  153SAPE  C21816993   0.148   3.830   8.266 -0.1110 -0.8290  0.1123
  153SAPE  H18R16994   0.187   3.804   8.366  2.9145  3.3558  0.2904
  153SAPE  H18S16995   0.238   3.833   8.201  0.5452 -0.1105  1.0287
  153SAPE  C21916996   0.036   3.729   8.215  0.2006  0.0487 -0.2125
  153SAPE  H19R16997   0.026   3.737   8.105  1.3543  3.0233 -0.1905
  153SAPE  H19S16998  -0.066   3.747   8.256 -1.4902 -1.2393 -3.5074
  153SAPE  C22016999   0.062   3.581   8.244 -0.0659 -0.5830  0.0474
  153SAPE  H20R17000   0.070   3.577   8.355 -2.3004  0.0101  0.2788
  153SAPE  H20S17001   0.141   3.537   8.179 -1.3355 -3.2185  0.1633
  153SAPE  H20T17002  -0.030   3.526   8.216 -0.4113 -0.2212  0.4626
  153SAPE   C3317003   0.370   3.511   7.149 -0.2457  0.4967  0.0273
  153SAPE   H3X17004   0.450   3.443   7.183 -0.4835 -0.5165 -1.3287
  153SAPE   H3Y17005   0.273   3.457   7.155 -0.6820  0.8369 -2.4870
  153SAPE   C3417006   0.358   3.618   7.258 -0.0072 -0.8711  0.0727
  153SAPE   H4X17007   0.289   3.695   7.217  0.2963 -0.5776  0.1163
  153SAPE   H4Y17008   0.459   3.662   7.248  0.1571 -1.1062  0.6771
  153SAPE   C3517009   0.323   3.572   7.401  0.4211  0.7999  0.4660
  153SAPE   H5X17010   0.385   3.483   7.423  0.8769  1.1801  0.7198
  153SAPE   H5Y17011   0.219   3.531   7.399  0.3209  1.0379  0.6896
  153SAPE   C3617012   0.347   3.680   7.508 -0.1331  0.4800 -0.4067
  153SAPE   H6X17013   0.288   3.769   7.478 -0.2312 -0.0082 -1.7445
  153SAPE   H6Y17014   0.451   3.718   7.505 -0.5615  1.7336 -0.1269
  153SAPE   C3717015   0.324   3.640   7.653  1.1767  0.6020  0.1977
  153SAPE   H7X17016   0.236   3.572   7.655  1.3819  0.1391 -2.6856
  153SAPE   H7Y17017   0.303   3.738   7.701  1.2428  0.9874 -0.5477
  153SAPE   C3817018   0.434   3.570   7.720  0.8801 -0.0993 -0.3313
  153SAPE   H8X17019   0.517   3.643   7.731  0.1271  1.2026 -2.5180
  153SAPE   H8Y17020   0.478   3.486   7.663 -0.7922 -0.2336 -1.5097
  153SAPE   C3917021   0.387   3.503   7.856  0.6214 -0.3225 -0.5663
  153SAPE   H9X17022   0.323   3.412   7.844  0.5391 -0.3971  0.3818
  153SAPE   H9Y17023   0.331   3.585   7.905  0.0428 -0.8550 -0.3130
  153SAPE  C31017024   0.497   3.462   7.957  0.3364  0.0563  0.6330
  153SAPE  H10X17025   0.528   3.556   8.009  1.4230  0.1264 -0.1217
  153SAPE  H10Y17026   0.579   3.405   7.908  0.4207  1.6639 -1.2111
  153SAPE  C31117027   0.434   3.385   8.073 -0.4829  0.3923 -0.1252
  153SAPE  H11X17028   0.404   3.281   8.052 -1.6877  0.2770  1.9465
  153SAPE  H11Y17029   0.339   3.437   8.098 -0.6844 -0.4367  0.8704
  153SAPE  C31217030   0.519   3.386   8.206  0.5886  0.5905  0.0685
  153SAPE  H12X17031   0.626   3.369   8.182  0.7234  1.1468  0.2540
  153SAPE  H12Y17032   0.473   3.307   8.269  0.9411  0.5541  0.2867
  153SAPE  C31317033   0.505   3.518   8.281 -0.3774 -0.6083 -0.2785
  153SAPE  H13X17034   0.433   3.508   8.366 -0.3655  0.8809 -0.0656
  153SAPE  H13Y17035   0.473   3.594   8.207 -1.5885 -0.1734  0.6392
  153SAPE  C31417036   0.640   3.557   8.348  0.4390 -0.2810  0.6716
  153SAPE  H14X17037   0.716   3.570   8.268  0.7683 -2.2694  0.5988
  153SAPE  H14Y17038   0.675   3.472   8.411  2.2882 -0.4693 -0.5688
  153SAPE  C31517039   0.619   3.676   8.451  1.0894 -0.0579  0.6060
  153SAPE  H15X17040   0.561   3.639   8.539 -3.3957 -0.4629 -2.2339
  153SAPE  H15Y17041   0.554   3.748   8.399 -1.7388 -1.0381  2.5040
  153SAPE  C31617042   0.744   3.754   8.493  0.6295 -0.2797  0.0565
  153SAPE  H16X17043   0.787   3.802   8.402 -1.9897 -1.1603 -1.7551
  153SAPE  H16Y17044   0.812   3.672   8.525  0.5806 -0.5212 -0.4570
  153SAPE  C31717045   0.714   3.856   8.598  0.8758 -0.7274  0.0650
  153SAPE  H17X17046   0.709   3.800   8.694 -0.6938 -0.5654  0.0883
  153SAPE  H17Y17047   0.617   3.905   8.575 -0.1435 -2.1454  1.1792
  153SAPE  C31817048   0.828   3.959   8.604 -0.1346 -0.0136  0.7844
  153SAPE  H18X17049   0.817   4.025   8.693 -2.3426 -0.0331  0.5901
  153SAPE  H18Y17050   0.818   4.017   8.510  0.5183 -0.8199  0.2021
  153SAPE  H18Z17051   0.929   3.912   8.612  0.5333  1.5456  2.2324
  154SAPE     N17052   5.972   1.620   6.129 -0.2441  0.3376 -0.0160
  154SAPE   HN117053   6.022   1.706   6.158 -1.5366  1.3352 -0.6481
  154SAPE   HN217054   5.917   1.586   6.211 -2.6800  1.4243 -1.0908
  154SAPE   HN317055   6.040   1.547   6.100 -0.4802  0.5153 -1.0606
  154SAPE   C1217056   5.879   1.648   6.011  0.2981  0.2495  0.0776
  154SAPE  H12A17057   5.814   1.558   6.007  1.1570 -0.4883  1.7451
  154SAPE  H12B17058   5.948   1.657   5.924  0.8009  1.0159  0.5407
  154SAPE   C1117059   5.808   1.778   6.047 -0.7750  0.2545  0.1047
  154SAPE  H11A17060   5.762   1.830   5.960 -1.7116 -1.6381 -0.5883
  154SAPE  H11B17061   5.890   1.845   6.082 -0.9450  0.9114 -0.7150
  154SAPE     P17062   5.619   1.861   6.202  0.0314  0.3165  0.1382
  154SAPE   O1317063   5.555   1.909   6.082 -0.0114 -0.5642 -0.1028
  154SAPE   O1417064   5.526   1.807   6.301  0.2894  0.0490 -0.3588
  154SAPE   O1217065   5.716   1.748   6.153  0.2003 -0.4929  0.3447
  154SAPE   O1117066   5.718   1.970   6.265  0.0892  0.5458 -0.6726
  154SAPE    C117067   5.806   1.940   6.371 -0.0889 -0.3680 -0.1449
  154SAPE    HA17068   5.760   1.859   6.432  0.3259 -0.8083 -0.4085
  154SAPE    HB17069   5.898   1.902   6.320  0.9854  1.7150  0.1401
  154SAPE    C217070   5.829   2.069   6.456 -0.6255 -0.3693 -0.2873
  154SAPE    HS17071   5.907   2.131   6.406 -2.4553  3.5926  1.3281
  154SAPE   O2117072   5.867   2.032   6.593 -0.0265  0.5937 -0.2633
  154SAPE   C2117073   5.938   2.121   6.669  0.2415 -0.1492  0.6042
  154SAPE   O2217074   5.971   2.232   6.624  0.0740  0.5052 -0.0214
  154SAPE   C2217075   5.960   2.071   6.819  0.1420  0.0776  0.0946
  154SAPE   H2R17076   5.914   1.971   6.831 -0.7073  0.2978 -1.0653
  154SAPE   H2S17077   6.070   2.062   6.829  0.1470 -1.8963 -1.2184
  154SAPE    C317078   5.705   2.167   6.462 -0.2314 -0.2245 -0.9404
  154SAPE    HX17079   5.689   2.204   6.358 -0.0585  3.5548  0.2255
  154SAPE    HY17080   5.719   2.263   6.515  0.9098 -0.3999 -0.8991
  154SAPE   O3117081   5.588   2.107   6.508  0.9274  0.0065  0.4531
  154SAPE   C3117082   5.569   2.119   6.638 -0.2371  0.9373 -0.1675
  154SAPE   O3217083   5.637   2.179   6.719  0.0512 -0.5108  0.7230
  154SAPE   C3217084   5.442   2.041   6.665 -0.2794 -0.8290  0.5532
  154SAPE   H2X17085   5.427   1.962   6.589 -2.0175  0.1993 -0.2536
  154SAPE   H2Y17086   5.355   2.111   6.659 -0.3960 -0.9921  0.3069
  154SAPE   C2317087   5.890   2.172   6.919 -0.4887  0.4072  0.4988
  154SAPE   H3R17088   5.793   2.206   6.878 -0.8425 -0.9719  0.1562
  154SAPE   H3S17089   5.946   2.266   6.941  1.5494 -0.8346  0.8762
  154SAPE   C2417090   5.852   2.099   7.048 -0.5437  0.3904 -0.8436
  154SAPE   H4R17091   5.773   2.025   7.020 -1.1681 -0.3798  2.4912
  154SAPE   H4S17092   5.800   2.154   7.128 -0.7087  0.9628 -1.3421
  154SAPE   C2517093   5.968   2.022   7.111  0.1016  0.3062  0.1342
  154SAPE   H5R17094   5.996   1.951   7.032 -0.0026  2.1412 -1.6250
  154SAPE   C2617095   6.020   2.023   7.242 -0.2403 -0.7859 -0.0299
  154SAPE   H6R17096   6.100   1.956   7.275  0.9604  0.0486 -1.1865
  154SAPE   C2717097   5.971   2.109   7.357  0.0114 -0.4211  0.3714
  154SAPE   H7R17098   5.926   2.204   7.323  1.8479  0.6457  0.7810
  154SAPE   H7S17099   6.063   2.140   7.412 -1.0643  0.3626  1.7944
  154SAPE   C2817100   5.872   2.042   7.450  1.0189  0.2756 -1.0014
  154SAPE   H8R17101   5.802   1.968   7.409  0.0859  1.1393 -1.0043
  154SAPE   C2917102   5.863   2.058   7.583 -0.6917  0.0001  0.4304
  154SAPE   H9R17103   5.792   1.998   7.642 -0.7987 -1.4223 -1.0728
  154SAPE  C21017104   5.939   2.151   7.666 -0.6921 -0.4510 -0.2658
  154SAPE  H10R17105   5.883   2.189   7.754  2.2576 -0.5281  1.8165
  154SAPE  H10S17106   5.966   2.241   7.606  1.3870 -0.5068  0.4948
  154SAPE  C21117107   6.066   2.102   7.721 -0.0836 -0.0167  0.1496
  154SAPE  H11R17108   6.144   2.064   7.653 -0.0965 -1.0319  0.6893
  154SAPE  C21217109   6.087   2.085   7.855 -0.1496  0.1377 -0.6620
  154SAPE  H12R17110   6.191   2.070   7.887 -0.3390  2.2013  1.2570
  154SAPE  C21317111   5.991   2.106   7.967  0.2128  0.3312  0.2657
  154SAPE  H13R17112   5.991   2.216   7.985  1.3290  0.6859 -1.6278
  154SAPE  H13S17113   6.040   2.051   8.050  0.7962  0.2895 -0.1007
  154SAPE  C21417114   5.850   2.046   7.966  0.0853  0.4347 -0.5328
  154SAPE  H14R17115   5.840   1.985   7.875  2.0005  0.1831 -0.6286
  154SAPE  C21517116   5.755   2.052   8.057 -0.1209  0.5621  0.3745
  154SAPE  H15R17117   5.666   1.996   8.027  1.1988 -1.3084 -0.2042
  154SAPE  C21617118   5.745   2.119   8.194 -0.3006  0.8392  0.6072
  154SAPE  H16R17119   5.687   2.060   8.268 -0.6547  2.1022  1.3737
  154SAPE  H16S17120   5.688   2.214   8.184  0.0003  0.8950 -0.8781
  154SAPE  C21717121   5.874   2.150   8.267  0.1113 -0.5494  0.3133
  154SAPE  H17R17122   5.930   2.212   8.194  0.7121 -2.1349 -0.6335
  154SAPE  H17S17123   5.938   2.059   8.280 -1.3515 -2.1097 -2.5372
  154SAPE  C21817124   5.860   2.236   8.388 -0.6476 -0.3768  0.8965
  154SAPE  H18R17125   5.787   2.198   8.461 -0.0121 -0.7263  1.3614
  154SAPE  H18S17126   5.817   2.336   8.368  1.0808  0.2556  0.1132
  154SAPE  C21917127   5.987   2.283   8.461 -0.1001  0.0423 -0.4426
  154SAPE  H19R17128   5.954   2.335   8.553 -1.3968 -1.2232 -0.1406
  154SAPE  H19S17129   6.028   2.353   8.386 -0.2107  0.4146 -0.1571
  154SAPE  C22017130   6.088   2.171   8.497 -0.1188  0.1382  0.0532
  154SAPE  H20R17131   6.169   2.202   8.566  0.3177 -0.8598  0.0015
  154SAPE  H20S17132   6.133   2.124   8.408  1.7479  0.3824  0.8256
  154SAPE  H20T17133   6.030   2.087   8.540 -0.3710  0.5659  0.5679
  154SAPE   C3317134   5.443   1.981   6.810 -0.4167  0.1848  0.3067
  154SAPE   H3X17135   5.540   1.933   6.836 -0.2839 -1.5835 -2.9541
  154SAPE   H3Y17136   5.370   1.897   6.812  0.1683 -0.4021 -1.3061
  154SAPE   C3417137   5.414   2.073   6.931  0.1635  0.2436  0.5022
  154SAPE   H4X17138   5.350   2.152   6.888  0.9376  0.8913  0.5084
  154SAPE   H4Y17139   5.505   2.125   6.970  0.2433  0.3664  0.1550
  154SAPE   C3517140   5.360   1.983   7.046 -0.4033 -0.7305  0.3786
  154SAPE   H5X17141   5.395   1.877   7.050  0.1830 -0.5083  1.6097
  154SAPE   H5Y17142   5.250   1.989   7.033 -0.5209  0.2261  1.6684
  154SAPE   C3617143   5.386   2.046   7.179 -0.0906  0.0362 -0.0286
  154SAPE   H6X17144   5.366   2.154   7.164 -0.1024 -0.1704 -1.6084
  154SAPE   H6Y17145   5.495   2.032   7.193 -0.0050  0.0396 -0.6891
  154SAPE   C3717146   5.308   1.976   7.295 -0.3426 -0.5872 -0.8783
  154SAPE   H7X17147   5.326   1.867   7.304  0.6690 -0.4478 -1.0690
  154SAPE   H7Y17148   5.199   1.979   7.276 -0.8922 -2.7527  1.3917
  154SAPE   C3817149   5.338   2.038   7.431  0.0529  0.4362  0.3132
  154SAPE   H8X17150   5.296   2.140   7.444  1.0886  1.1532 -1.6488
  154SAPE   H8Y17151   5.447   2.053   7.443  0.8559 -2.9305 -1.6645
  154SAPE   C3917152   5.295   1.951   7.544 -0.0532 -0.2138 -0.4768
  154SAPE   H9X17153   5.356   1.859   7.528  2.2695  1.0481  0.5484
  154SAPE   H9Y17154   5.189   1.924   7.522  0.0940  0.6155 -2.4367
  154SAPE  C31017155   5.326   2.008   7.683 -0.5160 -0.0231  0.0455
  154SAPE  H10X17156   5.249   2.078   7.722  0.2687 -0.0761  1.7357
  154SAPE  H10Y17157   5.425   2.058   7.691  1.5960 -3.5194 -1.7131
  154SAPE  C31117158   5.331   1.889   7.788 -0.0220 -0.0954 -0.2228
  154SAPE  H11X17159   5.341   1.784   7.756  0.6264 -0.3683  0.8124
  154SAPE  H11Y17160   5.229   1.896   7.832 -0.6692  0.2970 -1.7486
  154SAPE  C31217161   5.437   1.908   7.907 -1.1097  0.4060  0.4014
  154SAPE  H12X17162   5.436   2.016   7.933  0.6476 -0.0295  2.6219
  154SAPE  H12Y17163   5.536   1.879   7.867 -1.0686  1.4046 -0.2750
  154SAPE  C31317164   5.415   1.820   8.039  0.0581 -0.3604 -0.7266
  154SAPE  H13X17165   5.382   1.719   8.006 -0.8790 -0.3407  0.0985
  154SAPE  H13Y17166   5.323   1.856   8.091 -0.2941  0.1631 -1.6825
  154SAPE  C31417167   5.520   1.822   8.149 -0.1819  0.1430  0.3635
  154SAPE  H14X17168   5.528   1.927   8.185  0.2585  0.1101  0.3668
  154SAPE  H14Y17169   5.619   1.795   8.107 -0.1636 -2.0049  1.6415
  154SAPE  C31517170   5.488   1.723   8.257  0.0976  0.2398 -0.4564
  154SAPE  H15X17171   5.494   1.621   8.214 -2.3160  0.8003 -2.2696
  154SAPE  H15Y17172   5.381   1.742   8.279  0.4725 -0.3908  2.3004
  154SAPE  C31617173   5.560   1.746   8.393  0.3793  0.1436  0.2385
  154SAPE  H16X17174   5.667   1.719   8.377 -0.2466 -2.6931  0.1951
  154SAPE  H16Y17175   5.536   1.660   8.460  1.9072 -0.0487  0.5903
  154SAPE  C31717176   5.541   1.882   8.475  0.5375  0.1024  0.3246
  154SAPE  H17X17177   5.600   1.959   8.421 -1.5413  1.8352  0.3821
  154SAPE  H17Y17178   5.572   1.867   8.580  1.9687  2.7590  0.3675
  154SAPE  C31817179   5.404   1.935   8.476 -0.0038 -0.9325 -0.3822
  154SAPE  H18X17180   5.387   1.977   8.375  0.7519 -1.6453 -0.8140
  154SAPE  H18Y17181   5.391   2.020   8.547  0.3647  0.2717 -1.7309
  154SAPE  H18Z17182   5.335   1.851   8.499 -1.6087  0.6402  0.9010
  155SAPE     N17183   5.220   2.765   6.309 -0.4642  0.2919 -0.5613
  155SAPE   HN117184   5.152   2.688   6.295  0.3010 -0.4744 -0.1677
  155SAPE   HN217185   5.254   2.792   6.215  1.4296 -3.1439 -1.0238
  155SAPE   HN317186   5.302   2.719   6.354  0.0692 -0.4853 -2.2416
  155SAPE   C1217187   5.161   2.877   6.376  0.0111 -0.5066  0.6666
  155SAPE  H12A17188   5.076   2.845   6.440 -0.4993  0.4565  0.4855
  155SAPE  H12B17189   5.111   2.950   6.309  0.3648 -0.6686  0.2232
  155SAPE   C1117190   5.260   2.954   6.456  0.3229 -0.0780  0.0406
  155SAPE  H11A17191   5.302   2.889   6.535  0.7539  0.9812  0.7064
  155SAPE  H11B17192   5.214   3.033   6.519  0.1097  0.4397 -0.7395
  155SAPE     P17193   5.411   3.157   6.390  0.6125  0.1983 -0.5059
  155SAPE   O1317194   5.548   3.185   6.340  0.1998  0.8933  0.5562
  155SAPE   O1417195   5.297   3.227   6.330  0.1429  0.2504 -0.1607
  155SAPE   O1217196   5.368   3.003   6.380 -0.3762  0.1479  0.2554
  155SAPE   O1117197   5.406   3.184   6.552 -0.6364 -0.3795 -0.2855
  155SAPE    C117198   5.308   3.275   6.607  0.5406  0.0192  0.4937
  155SAPE    HA17199   5.314   3.376   6.563 -2.9963 -0.0599 -0.4392
  155SAPE    HB17200   5.208   3.233   6.585  0.6508 -0.4960  0.9457
  155SAPE    C217201   5.315   3.287   6.761  0.7140  0.6634 -0.5875
  155SAPE    HS17202   5.305   3.183   6.800 -1.0026  0.0582 -2.5157
  155SAPE   O2117203   5.211   3.367   6.823  0.3112  0.6305 -0.1161
  155SAPE   C2117204   5.091   3.329   6.807  0.1877  0.5747 -0.2291
  155SAPE   O2217205   5.057   3.223   6.759  0.4421  0.2443  0.1437
  155SAPE   C2217206   4.988   3.438   6.845 -0.7414  0.1694 -0.0969
  155SAPE   H2R17207   4.950   3.471   6.747 -0.4454 -0.7889 -0.5524
  155SAPE   H2S17208   4.903   3.379   6.886  0.2240 -0.1542  1.5807
  155SAPE    C317209   5.453   3.348   6.810 -0.4061  0.6017  0.5623
  155SAPE    HX17210   5.446   3.453   6.776  0.7022  0.7114  0.6394
  155SAPE    HY17211   5.543   3.306   6.760 -1.4586  0.1022 -0.9971
  155SAPE   O3117212   5.458   3.335   6.952 -0.3504  0.3763 -0.5630
  155SAPE   C3117213   5.521   3.231   6.999  0.7754  0.1770  0.6041
  155SAPE   O3217214   5.604   3.166   6.938  0.5041 -0.1708  0.6810
  155SAPE   C3217215   5.486   3.206   7.145  1.1113  0.3398 -0.5712
  155SAPE   H2X17216   5.379   3.229   7.160  1.5007  0.7394  2.2012
  155SAPE   H2Y17217   5.534   3.287   7.205 -2.7429  1.8552  0.7468
  155SAPE   C2317218   5.046   3.545   6.933 -0.0639 -0.5756  0.0131
  155SAPE   H3R17219   4.969   3.625   6.925  0.3297 -0.2798 -0.7965
  155SAPE   H3S17220   5.139   3.584   6.888 -0.9980 -0.6948 -2.1286
  155SAPE   C2417221   5.064   3.495   7.078 -0.5361 -0.5917  0.2794
  155SAPE   H4R17222   5.104   3.581   7.135 -0.2951  1.6337 -2.9665
  155SAPE   H4S17223   5.141   3.414   7.077  0.3144  0.1753 -1.5502
  155SAPE   C2517224   4.940   3.439   7.140 -0.6713 -0.8414 -0.2605
  155SAPE   H5R17225   4.849   3.486   7.097  1.2262  1.5276 -1.9846
  155SAPE   C2617226   4.919   3.355   7.240  0.2591  0.0798 -1.0952
  155SAPE   H6R17227   4.819   3.318   7.266  0.1839  0.3228 -1.0384
  155SAPE   C2717228   5.032   3.296   7.325  0.2569  0.1661  0.3302
  155SAPE   H7R17229   5.104   3.364   7.374  1.5195 -1.4650  0.8502
  155SAPE   H7S17230   5.085   3.237   7.247 -2.5946  0.7986 -2.2862
  155SAPE   C2817231   4.975   3.212   7.438 -0.6039  0.3341 -0.4699
  155SAPE   H8R17232   4.918   3.122   7.407 -2.8857  1.0099  1.4283
  155SAPE   C2917233   5.009   3.215   7.571  0.9561 -0.5278 -0.8063
  155SAPE   H9R17234   4.954   3.147   7.639  1.2190  1.0527  1.0548
  155SAPE  C21017235   5.102   3.307   7.641 -0.8979  0.4272 -0.1761
  155SAPE  H10R17236   5.168   3.364   7.573 -1.4385 -0.5581 -1.5546
  155SAPE  H10S17237   5.168   3.243   7.703 -0.1101  1.4899  0.1114
  155SAPE  C21117238   5.039   3.411   7.726 -0.4752 -0.6477 -0.5786
  155SAPE  H11R17239   4.951   3.451   7.673  0.9121  1.9402 -1.0425
  155SAPE  C21217240   5.083   3.461   7.846  0.0237  0.2954 -0.0077
  155SAPE  H12R17241   5.029   3.550   7.882 -1.2258  0.4769 -2.1571
  155SAPE  C21317242   5.198   3.411   7.923 -0.3463 -0.1831 -0.2471
  155SAPE  H13R17243   5.282   3.481   7.900 -1.6688  1.1494 -1.1995
  155SAPE  H13S17244   5.229   3.319   7.869  1.4169 -0.5783  1.3386
  155SAPE  C21417245   5.166   3.392   8.069 -0.5349 -0.6532  0.1670
  155SAPE  H14R17246   5.058   3.379   8.083 -0.8933  1.0486 -0.7823
  155SAPE  C21517247   5.251   3.387   8.174 -0.1067 -0.2792  0.0307
  155SAPE  H15R17248   5.211   3.359   8.272 -1.7829 -1.5438 -0.9607
  155SAPE  C21617249   5.401   3.406   8.170 -0.6595  0.0515  0.0446
  155SAPE  H16R17250   5.446   3.437   8.074 -0.3562  0.0979  0.2004
  155SAPE  H16S17251   5.442   3.304   8.188  0.6640  0.1398 -2.1721
  155SAPE  C21717252   5.452   3.517   8.265  0.4155 -0.5873 -0.7004
  155SAPE  H17R17253   5.385   3.520   8.353 -1.0902 -0.7302 -1.8009
  155SAPE  H17S17254   5.461   3.620   8.223 -1.6765  0.6893  1.7150
  155SAPE  C21817255   5.589   3.477   8.324  0.0496 -0.1712 -0.2137
  155SAPE  H18R17256   5.583   3.371   8.359 -0.0355  0.2548  1.1207
  155SAPE  H18S17257   5.604   3.540   8.414  0.6036 -1.3563  0.5541
  155SAPE  C21917258   5.707   3.498   8.229 -0.2083 -0.1681  0.4393
  155SAPE  H19R17259   5.669   3.530   8.130  0.2623 -2.2041 -0.4371
  155SAPE  H19S17260   5.742   3.394   8.219 -0.4682 -0.2646  0.5047
  155SAPE  C22017261   5.811   3.596   8.280  0.3211 -0.0363  0.4764
  155SAPE  H20R17262   5.871   3.644   8.199  1.6149 -0.4463  1.1509
  155SAPE  H20S17263   5.869   3.559   8.367  2.6332  2.3585  0.0905
  155SAPE  H20T17264   5.752   3.666   8.343  0.4541  0.8498 -0.3627
  155SAPE   C3317265   5.522   3.062   7.197 -0.0881 -0.1471  0.0614
  155SAPE   H3X17266   5.633   3.066   7.195 -0.0963  0.9089 -2.7432
  155SAPE   H3Y17267   5.488   2.980   7.129 -1.4684 -0.6154  1.2757
  155SAPE   C3417268   5.472   3.031   7.339  0.3665  0.1506  0.1093
  155SAPE   H4X17269   5.499   2.931   7.379 -0.7869  0.3239  1.3709
  155SAPE   H4Y17270   5.363   3.013   7.348  0.6490 -1.8032 -0.1047
  155SAPE   C3517271   5.505   3.144   7.440  0.2227 -0.4184 -0.6602
  155SAPE   H5X17272   5.431   3.227   7.432  0.1245 -0.5364 -0.9885
  155SAPE   H5Y17273   5.602   3.194   7.418 -0.3867  0.6459 -1.0159
  155SAPE   C3617274   5.491   3.095   7.585  0.0390 -0.0464 -0.1275
  155SAPE   H6X17275   5.570   3.018   7.597 -0.0329 -0.4138 -1.7277
  155SAPE   H6Y17276   5.392   3.047   7.605  0.0335  1.1295  3.1729
  155SAPE   C3717277   5.517   3.197   7.700  0.2898  0.3758  0.1111
  155SAPE   H7X17278   5.455   3.287   7.683 -0.3863  0.3129  2.0327
  155SAPE   H7Y17279   5.626   3.220   7.703  0.0380  2.7616 -3.3130
  155SAPE   C3817280   5.469   3.158   7.840 -0.3949  0.8018 -0.4542
  155SAPE   H8X17281   5.364   3.123   7.832 -0.6319  1.3788  0.0743
  155SAPE   H8Y17282   5.477   3.258   7.886 -0.6995 -0.4964  2.6427
  155SAPE   C3917283   5.551   3.045   7.916 -0.1108 -0.4137 -0.5974
  155SAPE   H9X17284   5.660   3.071   7.916  0.2036 -1.3846  2.2296
  155SAPE   H9Y17285   5.552   2.944   7.870  0.3792 -1.0211  0.7062
  155SAPE  C31017286   5.528   3.026   8.067  0.0882 -0.7182  0.0795
  155SAPE  H10X17287   5.532   2.916   8.079 -1.7558 -0.7702  0.5142
  155SAPE  H10Y17288   5.421   3.050   8.088 -1.0041 -3.7566 -1.4453
  155SAPE  C31117289   5.631   3.096   8.163  0.0384  0.3277 -0.2020
  155SAPE  H11X17290   5.642   3.203   8.136  1.0502  0.2150 -0.2657
  155SAPE  H11Y17291   5.734   3.063   8.138 -0.5406 -1.0050 -0.9223
  155SAPE  C31217292   5.609   3.069   8.315 -0.3098  0.3841 -0.2060
  155SAPE  H12X17293   5.597   2.959   8.313 -2.8592  0.5345  1.3038
  155SAPE  H12Y17294   5.509   3.111   8.343 -0.2189  0.5910 -0.1883
  155SAPE  C31317295   5.715   3.120   8.420 -0.8975 -0.3721 -0.9750
  155SAPE  H13X17296   5.734   3.228   8.401 -2.2122  0.0931  0.2312
  155SAPE  H13Y17297   5.816   3.074   8.409 -0.6572 -0.2607  0.5916
  155SAPE  C31417298   5.679   3.118   8.569  0.2580  0.1544  0.1048
  155SAPE  H14X17299   5.575   3.153   8.583 -0.4723 -1.3656 -1.2073
  155SAPE  H14Y17300   5.747   3.187   8.624  0.5750 -1.5823  2.0265
  155SAPE  C31517301   5.684   2.973   8.618 -0.1906 -0.4523  0.3032
  155SAPE  H15X17302   5.784   2.926   8.609  1.3130  2.7308 -1.4738
  155SAPE  H15Y17303   5.622   2.922   8.542 -0.6402 -0.0333  0.3817
  155SAPE  C31617304   5.630   2.953   8.757 -0.1144  0.0243  0.4758
  155SAPE  H16X17305   5.533   3.009   8.756 -0.7010 -0.9592  0.9325
  155SAPE  H16Y17306   5.687   2.996   8.842  0.6583  1.6271 -0.8093
  155SAPE  C31717307   5.585   2.815   8.794 -0.1857  0.1955  0.3675
  155SAPE  H17X17308   5.515   2.788   8.712 -1.1451 -1.3563  1.6425
  155SAPE  H17Y17309   5.518   2.811   8.882 -0.8912  2.2716 -0.0147
  155SAPE  C31817310   5.696   2.714   8.820  0.0612  0.0164  0.5596
  155SAPE  H18X17311   5.764   2.711   8.733  1.3726 -2.6863  1.5572
  155SAPE  H18Y17312   5.654   2.615   8.848  1.7253 -0.5307  1.2132
  155SAPE  H18Z17313   5.741   2.765   8.908  0.6483  1.1471 -0.3674
  156SAPE     N17314   4.451   4.754   6.057 -0.5048  0.1065  0.5310
  156SAPE   HN117315   4.348   4.741   6.066 -0.7455  0.7293 -1.0358
  156SAPE   HN217316   4.465   4.833   6.123 -1.3931 -0.9977  2.0880
  156SAPE   HN317317   4.486   4.778   5.962  2.0201  0.8780  1.5653
  156SAPE   C1217318   4.519   4.632   6.111 -0.1068 -0.2834 -0.1611
  156SAPE  H12A17319   4.630   4.645   6.110 -0.2837  1.4047 -0.6581
  156SAPE  H12B17320   4.506   4.545   6.043  0.5560  0.2138 -0.9425
  156SAPE   C1117321   4.466   4.595   6.254 -0.0160  0.1719  0.9594
  156SAPE  H11A17322   4.470   4.678   6.327 -1.2687  0.9628  0.1711
  156SAPE  H11B17323   4.527   4.516   6.302  0.1163 -0.2984  0.0515
  156SAPE     P17324   4.278   4.417   6.265  0.4118 -1.0952  0.2830
  156SAPE   O1317325   4.140   4.422   6.219  0.0939  0.1511  0.3632
  156SAPE   O1417326   4.370   4.319   6.202 -0.1925 -0.3571  0.2659
  156SAPE   O1217327   4.328   4.562   6.239 -0.3047 -0.1960 -0.0604
  156SAPE   O1117328   4.295   4.412   6.417  0.0683  0.4136 -0.6610
  156SAPE    C117329   4.271   4.283   6.483 -0.1231  0.6491  0.2062
  156SAPE    HA17330   4.192   4.229   6.427  0.4239  0.9705 -0.9230
  156SAPE    HB17331   4.360   4.219   6.465  0.1011  1.1989 -0.7339
  156SAPE    C217332   4.241   4.308   6.631  0.1980 -0.3121 -0.0467
  156SAPE    HS17333   4.166   4.390   6.639  2.5983  1.8782  4.7595
  156SAPE   O2117334   4.356   4.343   6.708  0.3459 -0.3795 -0.0745
  156SAPE   C2117335   4.324   4.424   6.810 -0.2183 -0.6716  0.4360
  156SAPE   O2217336   4.220   4.485   6.829 -0.5053 -0.1646  0.1489
  156SAPE   C2217337   4.449   4.445   6.904  0.0986  0.1851 -0.2462
  156SAPE   H2R17338   4.457   4.344   6.950  1.2125  1.3940  2.3924
  156SAPE   H2S17339   4.532   4.470   6.835 -0.3664  0.3670 -0.7495
  156SAPE    C317340   4.177   4.178   6.685 -0.1067 -0.2560 -0.0432
  156SAPE    HX17341   4.244   4.090   6.670  2.0462  1.5527 -1.8508
  156SAPE    HY17342   4.084   4.167   6.625  0.8243 -2.1355 -1.2767
  156SAPE   O3117343   4.160   4.189   6.828  0.1669 -0.0915  0.4328
  156SAPE   C3117344   4.048   4.242   6.866 -0.3567  0.2251 -0.9937
  156SAPE   O3217345   3.965   4.291   6.793 -0.3672  0.0826 -0.2038
  156SAPE   C3217346   4.025   4.209   7.017 -0.0233 -0.0460 -0.9968
  156SAPE   H2X17347   3.935   4.272   7.027  0.1388  0.5573 -2.9350
  156SAPE   H2Y17348   4.109   4.248   7.079  0.2533 -1.3270 -0.5265
  156SAPE   C2317349   4.420   4.539   7.020 -0.0987  0.4735 -0.2279
  156SAPE   H3R17350   4.334   4.503   7.081  0.0311  1.3931  0.5299
  156SAPE   H3S17351   4.394   4.643   6.992  0.0819  0.2041 -1.4354
  156SAPE   C2417352   4.534   4.559   7.122 -0.2027  0.1594 -0.1436
  156SAPE   H4R17353   4.626   4.595   7.071 -0.3958  0.1441 -0.5050
  156SAPE   H4S17354   4.561   4.467   7.178  0.8583  0.9213  0.6467
  156SAPE   C2517355   4.503   4.645   7.247 -0.0481 -0.9677 -0.3068
  156SAPE   H5R17356   4.544   4.747   7.242 -2.5445  0.0559 -1.8830
  156SAPE   C2617357   4.424   4.603   7.356 -0.1211  0.0551  0.6192
  156SAPE   H6R17358   4.414   4.676   7.438  0.8180 -0.7473  1.4703
  156SAPE   C2717359   4.365   4.468   7.370  0.2532  0.3738  0.6599
  156SAPE   H7R17360   4.385   4.441   7.476  0.3599  0.5160  0.6764
  156SAPE   H7S17361   4.421   4.396   7.307 -1.5085 -0.8103  0.4027
  156SAPE   C2817362   4.214   4.456   7.326 -0.2329  0.3152  0.3541
  156SAPE   H8R17363   4.189   4.510   7.234  0.9959 -2.8909 -2.0344
  156SAPE   C2917364   4.117   4.387   7.390  0.9497  0.0950 -0.2328
  156SAPE   H9R17365   4.021   4.385   7.337  0.0097  1.8334  1.2736
  156SAPE  C21017366   4.125   4.319   7.525 -0.5933 -0.7282 -0.0746
  156SAPE  H10R17367   4.228   4.327   7.566 -0.4771  0.1935 -0.5103
  156SAPE  H10S17368   4.116   4.211   7.502  2.3762 -0.7488 -1.6968
  156SAPE  C21117369   4.025   4.377   7.623  0.3721 -0.9570  0.1025
  156SAPE  H11R17370   4.002   4.484   7.607  1.6446 -0.7483 -0.4131
  156SAPE  C21217371   3.965   4.316   7.721  0.2077  0.0006  0.6461
  156SAPE  H12R17372   3.889   4.371   7.779 -0.7983  1.9547 -2.3043
  156SAPE  C21317373   3.983   4.170   7.761  0.2860 -0.1280 -0.2866
  156SAPE  H13R17374   4.089   4.142   7.779  0.2476 -0.2423 -0.2400
  156SAPE  H13S17375   3.953   4.116   7.668  0.4192 -0.1461 -0.3194
  156SAPE  C21417376   3.896   4.124   7.876 -0.4426 -0.5267 -0.6520
  156SAPE  H14R17377   3.806   4.070   7.841 -1.3803  1.9734 -2.4205
  156SAPE  C21517378   3.907   4.162   8.003  0.1142  0.4229 -0.0330
  156SAPE  H15R17379   3.832   4.119   8.071  0.5285 -0.0748  0.1109
  156SAPE  C21617380   3.999   4.252   8.075  0.3161  0.4539 -0.4379
  156SAPE  H16R17381   4.091   4.287   8.024 -0.5878  1.0054 -1.7301
  156SAPE  H16S17382   4.031   4.201   8.169  1.0050  0.2753 -0.7596
  156SAPE  C21717383   3.915   4.376   8.107 -0.0104  0.3424 -0.4676
  156SAPE  H17R17384   3.909   4.432   8.011 -1.4065  1.3548  0.1687
  156SAPE  H17S17385   3.979   4.437   8.173  1.3532  0.4931 -1.8641
  156SAPE  C21817386   3.789   4.343   8.183  0.6026  0.1546  0.2044
  156SAPE  H18R17387   3.805   4.285   8.276 -0.6452 -1.7332 -0.6997
  156SAPE  H18S17388   3.719   4.287   8.117 -1.2808  0.3007  1.9633
  156SAPE  C21917389   3.721   4.474   8.219 -0.4925 -0.1867 -0.2367
  156SAPE  H19R17390   3.697   4.536   8.130 -1.5470 -0.4856 -0.1754
  156SAPE  H19S17391   3.796   4.528   8.281 -1.2713 -1.7417  2.2142
  156SAPE  C22017392   3.602   4.454   8.313  0.1065 -0.3808 -0.8417
  156SAPE  H20R17393   3.557   4.549   8.347 -1.1339 -1.1501 -0.2722
  156SAPE  H20S17394   3.635   4.404   8.407 -0.3294 -1.8437 -1.4363
  156SAPE  H20T17395   3.528   4.387   8.264  0.6117 -1.8037  0.2597
  156SAPE   C3317396   4.009   4.054   7.048  0.6412 -0.6116 -0.0296
  156SAPE   H3X17397   4.112   4.022   7.021  1.0819  1.1222 -0.5706
  156SAPE   H3Y17398   3.925   4.010   6.991 -1.7185  1.3394  1.7312
  156SAPE   C3417399   3.973   4.029   7.196  0.1325 -0.0001 -0.2630
  156SAPE   H4X17400   3.872   4.075   7.208 -0.8122 -2.1316  0.6424
  156SAPE   H4Y17401   4.042   4.094   7.254  2.4678 -2.0325 -0.6348
  156SAPE   C3517402   3.968   3.885   7.249  0.7449  0.2266  0.4171
  156SAPE   H5X17403   4.071   3.849   7.227  1.0969  2.0074 -1.1933
  156SAPE   H5Y17404   3.889   3.838   7.186  0.8877  1.6435 -0.8856
  156SAPE   C3617405   3.928   3.874   7.397 -0.2444 -0.2153  0.7452
  156SAPE   H6X17406   3.819   3.867   7.420 -0.1987  0.3314  1.1503
  156SAPE   H6Y17407   3.971   3.964   7.446 -1.0835  1.0106 -0.6631
  156SAPE   C3717408   3.985   3.748   7.464 -0.6688  0.3534  0.1987
  156SAPE   H7X17409   4.093   3.740   7.442 -1.0085 -5.6481 -1.1827
  156SAPE   H7Y17410   3.945   3.655   7.417  0.5217  1.2703 -2.8755
  156SAPE   C3817411   3.970   3.755   7.617 -0.2309  0.0352  0.1418
  156SAPE   H8X17412   4.002   3.858   7.646 -1.7748  0.7189 -0.4979
  156SAPE   H8Y17413   4.041   3.684   7.664 -1.3010 -0.3926  1.1619
  156SAPE   C3917414   3.831   3.699   7.670  0.2574 -0.3455 -0.2904
  156SAPE   H9X17415   3.818   3.590   7.683  0.4384 -0.1942  1.3263
  156SAPE   H9Y17416   3.747   3.711   7.599  0.1347 -2.0622 -0.4786
  156SAPE  C31017417   3.786   3.771   7.795 -0.3387  0.4238 -0.2872
  156SAPE  H10X17418   3.675   3.776   7.795 -0.5213 -1.2908 -3.1534
  156SAPE  H10Y17419   3.830   3.872   7.799 -0.9671  0.6835  0.2706
  156SAPE  C31117420   3.837   3.687   7.925  0.4349  0.1147  0.2581
  156SAPE  H11X17421   3.946   3.680   7.902  0.4033  0.9918 -0.1877
  156SAPE  H11Y17422   3.795   3.585   7.912  0.5201  0.2043 -0.7604
  156SAPE  C31217423   3.798   3.755   8.061 -0.5226  0.6659  0.1585
  156SAPE  H12X17424   3.821   3.862   8.038 -0.1172  0.6994  0.7003
  156SAPE  H12Y17425   3.853   3.719   8.151  1.7602 -0.9044 -1.7539
  156SAPE  C31317426   3.648   3.756   8.082 -0.1161  0.0638 -0.8094
  156SAPE  H13X17427   3.608   3.657   8.054  1.7338 -0.0700 -3.3727
  156SAPE  H13Y17428   3.586   3.827   8.022 -2.9149 -1.9277 -0.4480
  156SAPE  C31417429   3.610   3.813   8.223 -0.1062 -0.3797  0.2139
  156SAPE  H14X17430   3.695   3.884   8.235 -0.6618  0.7052 -1.8173
  156SAPE  H14Y17431   3.605   3.736   8.303  0.1247  0.0952  0.6946
  156SAPE  C31517432   3.479   3.895   8.226 -0.1809 -0.6486 -0.2917
  156SAPE  H15X17433   3.454   3.922   8.331 -1.1065 -1.1889 -0.3647
  156SAPE  H15Y17434   3.391   3.832   8.203 -1.3353  0.4061  1.0882
  156SAPE  C31617435   3.463   4.031   8.145 -0.0261  0.1711 -0.0558
  156SAPE  H16X17436   3.478   4.012   8.037  0.6961  2.3184 -0.3867
  156SAPE  H16Y17437   3.558   4.082   8.172  0.0582  0.5094 -0.9625
  156SAPE  C31717438   3.326   4.087   8.181  0.2276 -0.6376  0.1121
  156SAPE  H17X17439   3.241   4.025   8.148 -1.9327  2.6971 -1.1390
  156SAPE  H17Y17440   3.323   4.178   8.117  1.1373  0.1517  1.1347
  156SAPE  C31817441   3.322   4.138   8.329  0.2703 -0.3361 -0.1562
  156SAPE  H18X17442   3.228   4.195   8.346  0.3816  0.1632 -1.1958
  156SAPE  H18Y17443   3.403   4.212   8.342 -1.1934  1.1936  0.7077
  156SAPE  H18Z17444   3.333   4.064   8.412  0.9200  0.0004  0.0625
  157SAPE     N17445   3.276   4.939   6.571  0.0199 -0.0290  0.4495
  157SAPE   HN117446   3.351   4.960   6.640 -1.9920  1.7412  2.2585
  157SAPE   HN217447   3.194   4.907   6.628 -1.5004  2.2952 -0.3299
  157SAPE   HN317448   3.311   4.859   6.514 -1.3159 -1.2669  1.2588
  157SAPE   C1217449   3.244   5.053   6.482  0.5338  0.2993 -0.0062
  157SAPE  H12A17450   3.338   5.111   6.467  0.3398  0.3972 -0.9124
  157SAPE  H12B17451   3.169   5.119   6.531 -0.7002 -0.1117 -1.2458
  157SAPE   C1117452   3.185   5.000   6.349  0.1780 -0.1581 -0.0259
  157SAPE  H11A17453   3.091   4.943   6.360  2.0005 -3.0250  2.4144
  157SAPE  H11B17454   3.262   4.929   6.313  0.9307 -0.1108  1.3949
  157SAPE     P17455   3.045   5.155   6.190  0.2274  0.0946 -0.1206
  157SAPE   O1317456   3.082   5.275   6.109  0.5414 -0.0126  0.1596
  157SAPE   O1417457   2.968   5.042   6.133  1.0662 -0.6988  0.1598
  157SAPE   O1217458   3.179   5.102   6.251  0.1754 -0.1470 -0.5282
  157SAPE   O1117459   2.970   5.195   6.326 -0.2492  0.4099 -0.4161
  157SAPE    C117460   3.002   5.311   6.398 -0.1820 -0.7298 -0.0105
  157SAPE    HA17461   3.099   5.303   6.452  1.1804  2.6159 -1.6640
  157SAPE    HB17462   3.013   5.399   6.330 -1.4273 -0.5865 -0.0491
  157SAPE    C217463   2.880   5.338   6.490 -0.0163 -0.1918  0.5254
  157SAPE    HS17464   2.890   5.431   6.549  0.1623 -0.2544  0.5956
  157SAPE   O2117465   2.869   5.233   6.596  0.3362 -0.7404  0.5496
  157SAPE   C2117466   2.951   5.241   6.695 -0.7046  0.4275 -0.3188
  157SAPE   O2217467   3.046   5.319   6.706  0.2711 -0.2130  0.0839
  157SAPE   C2217468   2.894   5.155   6.812 -0.0196 -0.3159  0.3781
  157SAPE   H2R17469   2.828   5.224   6.868 -0.4381 -1.4612  1.3371
  157SAPE   H2S17470   2.827   5.079   6.767  0.1518  0.6729 -1.6979
  157SAPE    C317471   2.751   5.353   6.411 -0.4631 -0.6553  0.7613
  157SAPE    HX17472   2.747   5.267   6.341  0.3952 -0.1181  0.0229
  157SAPE    HY17473   2.770   5.436   6.340 -3.0748 -0.2851  0.3732
  157SAPE   O3117474   2.636   5.382   6.495 -0.5768  0.1193  0.4493
  157SAPE   C3117475   2.573   5.275   6.534 -0.3717 -0.4140 -0.2845
  157SAPE   O3217476   2.611   5.162   6.515 -0.0337  0.5499 -0.1304
  157SAPE   C3217477   2.448   5.318   6.623  0.7371  0.4083 -0.0845
  157SAPE   H2X17478   2.363   5.298   6.554  0.3631  2.1084 -0.1695
  157SAPE   H2Y17479   2.447   5.426   6.647 -0.9672  0.1681  1.1019
  157SAPE   C2317480   2.997   5.090   6.906  0.4102 -0.2030  0.3838
  157SAPE   H3R17481   3.086   5.049   6.853  0.8566  2.6840 -1.2983
  157SAPE   H3S17482   2.949   5.011   6.968  0.5480 -0.8825 -0.3533
  157SAPE   C2417483   3.062   5.191   7.006  0.5560 -0.2723 -0.3984
  157SAPE   H4R17484   3.117   5.275   6.960  1.6132 -0.4879  0.4389
  157SAPE   H4S17485   3.139   5.133   7.060  2.4116  1.2062 -1.3379
  157SAPE   C2517486   2.977   5.244   7.119  0.3941  0.1727 -0.0316
  157SAPE   H5R17487   2.883   5.280   7.076 -0.6273 -0.2633  1.7504
  157SAPE   C2617488   3.000   5.234   7.251 -0.0635  0.1274  0.9691
  157SAPE   H6R17489   2.926   5.282   7.316 -1.2660 -0.2774 -0.0560
  157SAPE   C2717490   3.127   5.189   7.323 -0.5313  0.0693  0.5258
  157SAPE   H7R17491   3.175   5.101   7.277  0.3398  0.2192  1.1297
  157SAPE   H7S17492   3.078   5.175   7.422  0.3598  3.4835  1.5760
  157SAPE   C2817493   3.227   5.303   7.330 -0.3636  0.5395 -0.1533
  157SAPE   H8R17494   3.280   5.307   7.233 -2.9661 -2.8336 -1.9328
  157SAPE   C2917495   3.231   5.398   7.429  0.0470  0.2204 -0.2165
  157SAPE   H9R17496   3.296   5.486   7.422 -0.8041  0.7166 -2.7209
  157SAPE  C21017497   3.153   5.394   7.555 -0.0689  0.2086 -0.0807
  157SAPE  H10R17498   3.220   5.362   7.639 -2.7026 -1.7544  1.4259
  157SAPE  H10S17499   3.075   5.316   7.563 -0.8301  1.0970  2.0494
  157SAPE  C21117500   3.090   5.530   7.584 -0.1318 -0.0878 -0.1549
  157SAPE  H11R17501   2.996   5.554   7.532  0.7339  0.4587 -1.5350
  157SAPE  C21217502   3.143   5.619   7.669 -0.4162  0.0745  0.0096
  157SAPE  H12R17503   3.086   5.711   7.692  0.2836  0.9700 -1.6424
  157SAPE  C21317504   3.273   5.609   7.739  0.2357 -0.2873  0.3134
  157SAPE  H13R17505   3.315   5.709   7.763  0.4834 -0.9169  2.8850
  157SAPE  H13S17506   3.348   5.553   7.680 -0.9003 -2.4095  0.7711
  157SAPE  C21417507   3.261   5.534   7.874 -0.1774  0.3102  0.4505
  157SAPE  H14R17508   3.159   5.496   7.893  0.2624 -0.0837  2.1828
  157SAPE  C21517509   3.362   5.546   7.965  0.1201 -0.0195  0.6679
  157SAPE  H15R17510   3.350   5.509   8.068  1.0298  0.7491  1.0663
  157SAPE  C21617511   3.488   5.629   7.943  0.5077  0.0918 -0.2901
  157SAPE  H16R17512   3.466   5.735   7.968 -0.5042 -0.0898 -0.3734
  157SAPE  H16S17513   3.526   5.628   7.839  1.2892  0.3031 -0.0116
  157SAPE  C21717514   3.601   5.582   8.036  0.6059  0.5258 -0.4263
  157SAPE  H17R17515   3.573   5.589   8.143 -1.2578 -2.9660 -0.5345
  157SAPE  H17S17516   3.682   5.656   8.019  0.0063  1.2457 -0.2166
  157SAPE  C21817517   3.655   5.446   7.999  0.1614  0.3372  0.3333
  157SAPE  H18R17518   3.689   5.449   7.894  1.2392 -0.1814  0.6509
  157SAPE  H18S17519   3.581   5.364   8.008  1.0735 -0.9069 -2.3704
  157SAPE  C21917520   3.774   5.398   8.084  0.2206  0.5061 -0.0957
  157SAPE  H19R17521   3.738   5.391   8.189  0.3972 -0.8269 -0.1042
  157SAPE  H19S17522   3.853   5.475   8.085 -0.1582  0.9075  1.6714
  157SAPE  C22017523   3.834   5.265   8.034 -0.5858 -0.2188 -0.0428
  157SAPE  H20R17524   3.913   5.222   8.100 -1.4330 -1.3442  0.2692
  157SAPE  H20S17525   3.875   5.288   7.934  0.3232  1.3695  0.6551
  157SAPE  H20T17526   3.755   5.187   8.040 -1.0948 -0.0266 -2.9916
  157SAPE   C3317527   2.458   5.231   6.754 -0.2257 -0.7150 -0.2944
  157SAPE   H3X17528   2.516   5.137   6.747 -0.0871 -0.6131 -0.5124
  157SAPE   H3Y17529   2.355   5.216   6.794 -0.9350  0.9148 -1.3987
  157SAPE   C3417530   2.540   5.315   6.858 -0.4056 -0.7539  0.0455
  157SAPE   H4X17531   2.471   5.399   6.882 -1.1964 -0.7523 -2.0325
  157SAPE   H4Y17532   2.639   5.350   6.821  0.8019 -3.7952  0.0711
  157SAPE   C3517533   2.563   5.247   6.991  0.2197 -0.1685 -0.6114
  157SAPE   H5X17534   2.651   5.179   6.989 -1.7398 -2.9966  1.3907
  157SAPE   H5Y17535   2.467   5.196   7.015 -0.7176  2.2206  1.1360
  157SAPE   C3617536   2.587   5.347   7.107 -0.4544 -0.0870 -0.5508
  157SAPE   H6X17537   2.502   5.417   7.120 -1.6648 -1.6071 -0.0503
  157SAPE   H6Y17538   2.677   5.410   7.086  2.2945 -2.6479  2.4057
  157SAPE   C3717539   2.601   5.272   7.241  0.2331  0.0223 -0.4722
  157SAPE   H7X17540   2.688   5.203   7.234 -0.5313 -0.8778 -1.3876
  157SAPE   H7Y17541   2.511   5.207   7.243  0.7235 -0.6702 -0.5732
  157SAPE   C3817542   2.611   5.356   7.368 -0.0152  0.4074  0.6791
  157SAPE   H8X17543   2.540   5.440   7.376  1.5424  1.7241  1.2749
  157SAPE   H8Y17544   2.708   5.408   7.349 -0.1394  0.5368  0.3884
  157SAPE   C3917545   2.611   5.280   7.499  0.2539  0.0553 -0.1840
  157SAPE   H9X17546   2.668   5.185   7.489 -0.3260 -0.0590 -3.4394
  157SAPE   H9Y17547   2.506   5.256   7.527  1.8723 -3.0680  4.4395
  157SAPE  C31017548   2.671   5.377   7.606  0.1828  0.5681  0.1222
  157SAPE  H10X17549   2.602   5.462   7.627 -2.4153 -1.7425  1.6209
  157SAPE  H10Y17550   2.775   5.400   7.574  0.8255 -1.6892  0.4262
  157SAPE  C31117551   2.677   5.313   7.743 -0.0913  0.3693 -0.7514
  157SAPE  H11X17552   2.756   5.236   7.732 -0.7588 -0.2670 -1.2273
  157SAPE  H11Y17553   2.582   5.256   7.756  1.1534 -1.2572  2.0358
  157SAPE  C31217554   2.705   5.401   7.863  0.0901  0.4234 -0.0131
  157SAPE  H12X17555   2.611   5.457   7.886  0.6884  0.7536  1.8268
  157SAPE  H12Y17556   2.784   5.478   7.847  0.2387  0.6392  1.5371
  157SAPE  C31317557   2.751   5.320   7.992  0.1137  0.0109 -0.8089
  157SAPE  H13X17558   2.781   5.392   8.070 -0.5437  0.7813 -1.2555
  157SAPE  H13Y17559   2.845   5.264   7.969 -1.1431 -3.3510  1.4780
  157SAPE  C31417560   2.653   5.219   8.040  0.5457  0.7663  0.5978
  157SAPE  H14X17561   2.649   5.136   7.966  0.0463  0.2966  1.1461
  157SAPE  H14Y17562   2.551   5.262   8.031  0.2708 -0.0306 -0.2234
  157SAPE  C31517563   2.662   5.180   8.191 -0.4994 -0.0413  0.0760
  157SAPE  H15X17564   2.660   5.271   8.254  0.3477  0.9054 -1.2244
  157SAPE  H15Y17565   2.763   5.141   8.217 -0.2050 -0.1621 -1.1900
  157SAPE  C31617566   2.539   5.100   8.230 -0.2654  0.2157  0.5192
  157SAPE  H16X17567   2.526   5.018   8.157  1.6475  0.0206  0.3478
  157SAPE  H16Y17568   2.451   5.166   8.212  0.7087  1.4619  0.2229
  157SAPE  C31717569   2.543   5.023   8.363  0.1141 -0.2990  0.8140
  157SAPE  H17X17570   2.591   5.089   8.439 -0.2114  0.6231  0.2477
  157SAPE  H17Y17571   2.612   4.940   8.339  0.4979 -0.2370  1.6857
  157SAPE  C31817572   2.414   4.958   8.417 -0.3513  0.3162 -0.4113
  157SAPE  H18X17573   2.369   4.884   8.347  1.3487 -0.7593 -0.4154
  157SAPE  H18Y17574   2.346   5.045   8.434 -0.3647  0.1206  0.6232
  157SAPE  H18Z17575   2.441   4.895   8.505  0.7449 -1.4378 -1.9329
  158SAPE     N17576   2.748   0.417   6.402 -0.1852 -0.4127  0.2334
  158SAPE   HN117577   2.725   0.372   6.493 -0.2716 -0.0648  0.3873
  158SAPE   HN217578   2.831   0.384   6.349 -0.1468  1.9208 -1.3286
  158SAPE   HN317579   2.776   0.513   6.434 -1.4642 -0.1294  0.5642
  158SAPE   C1217580   2.626   0.437   6.331  0.3186  0.8018 -0.3530
  158SAPE  H12A17581   2.573   0.339   6.336  1.3588  0.2399 -0.0756
  158SAPE  H12B17582   2.656   0.463   6.227  1.2024 -0.5617 -0.4610
  158SAPE   C1117583   2.533   0.536   6.403  0.1775 -0.5604 -0.0814
  158SAPE  H11A17584   2.576   0.636   6.425 -1.0592 -0.2203  0.9204
  158SAPE  H11B17585   2.514   0.507   6.509  1.5892  2.4454  1.1046
  158SAPE     P17586   2.386   0.620   6.202  0.1099 -0.1827 -0.0300
  158SAPE   O1317587   2.469   0.578   6.093 -0.4033  0.5804  0.7430
  158SAPE   O1417588   2.243   0.611   6.164 -0.1678  0.1765  0.4626
  158SAPE   O1217589   2.405   0.541   6.340  0.3652  0.2967 -0.0838
  158SAPE   O1117590   2.422   0.770   6.247  0.1271  0.4380 -0.2330
  158SAPE    C117591   2.315   0.857   6.268 -0.5987 -0.4666 -0.5107
  158SAPE    HA17592   2.326   0.943   6.198 -3.5456  0.8041  0.4499
  158SAPE    HB17593   2.214   0.815   6.248 -0.6150  0.2442 -2.1135
  158SAPE    C217594   2.296   0.910   6.416 -0.6535 -0.2448  0.3483
  158SAPE    HS17595   2.195   0.956   6.421 -0.3999  0.1812  2.3721
  158SAPE   O2117596   2.391   1.009   6.447 -0.1145 -0.2515  0.2606
  158SAPE   C2117597   2.364   1.135   6.416 -0.4505 -0.6550  0.7798
  158SAPE   O2217598   2.264   1.171   6.354 -0.0424 -0.0932 -0.2254
  158SAPE   C2217599   2.468   1.228   6.466  0.2863 -0.0879  0.2858
  158SAPE   H2R17600   2.539   1.173   6.531  0.7230 -1.8708 -1.6219
  158SAPE   H2S17601   2.513   1.264   6.371  0.8596 -2.0549 -0.2200
  158SAPE    C317602   2.301   0.794   6.523 -0.1695 -0.1079  0.6977
  158SAPE    HX17603   2.400   0.745   6.525 -1.1743 -2.4887 -1.5229
  158SAPE    HY17604   2.226   0.721   6.485 -0.5713  0.2618  0.7629
  158SAPE   O3117605   2.276   0.850   6.649  0.1134 -0.0447 -0.6824
  158SAPE   C3117606   2.289   0.772   6.750  0.2433  0.2549  0.2793
  158SAPE   O3217607   2.303   0.651   6.746 -0.5776  0.6431 -0.2529
  158SAPE   C3217608   2.255   0.857   6.880 -0.0647  0.3317 -0.4672
  158SAPE   H2X17609   2.147   0.882   6.875  0.0426  0.6114 -1.9298
  158SAPE   H2Y17610   2.316   0.950   6.886 -3.0095  2.2965  3.2910
  158SAPE   C2317611   2.409   1.361   6.536  0.5699 -0.1182  0.3051
  158SAPE   H3R17612   2.392   1.449   6.470  0.5522 -1.0460 -0.9636
  158SAPE   H3S17613   2.492   1.389   6.605  1.3442 -3.7506  1.0323
  158SAPE   C2417614   2.275   1.341   6.614  0.4935 -1.1946  0.0438
  158SAPE   H4R17615   2.197   1.320   6.538  1.1987 -0.5766 -0.8680
  158SAPE   H4S17616   2.248   1.438   6.662 -0.6626 -2.0575  1.2207
  158SAPE   C2517617   2.298   1.245   6.727 -0.1561 -0.1077 -0.3435
  158SAPE   H5R17618   2.285   1.140   6.697 -3.2290 -0.2801  1.2302
  158SAPE   C2617619   2.331   1.276   6.856  0.0032 -0.6917  0.3001
  158SAPE   H6R17620   2.352   1.192   6.923  0.8623 -1.4118 -0.8335
  158SAPE   C2717621   2.352   1.411   6.923  0.1722 -0.0921 -0.0634
  158SAPE   H7R17622   2.373   1.490   6.849  0.6680  1.2349  1.4313
  158SAPE   H7S17623   2.443   1.422   6.985 -1.7896  3.1197  2.5978
  158SAPE   C2817624   2.223   1.459   6.992 -0.8160 -0.2686 -0.8727
  158SAPE   H8R17625   2.144   1.490   6.922  0.2490 -0.8821 -2.4107
  158SAPE   C2917626   2.199   1.455   7.125 -0.2607  0.9311  1.1356
  158SAPE   H9R17627   2.099   1.485   7.159 -0.3921 -0.0661  1.6661
  158SAPE  C21017628   2.302   1.407   7.230  0.4709 -0.0143  0.2813
  158SAPE  H10R17629   2.269   1.444   7.330  1.3554  1.8251 -0.0676
  158SAPE  H10S17630   2.402   1.452   7.216 -0.3369  2.0205  0.6496
  158SAPE  C21117631   2.329   1.264   7.235  0.3892 -0.3627 -0.3906
  158SAPE  H11R17632   2.342   1.218   7.136 -0.1770 -2.0199  0.2744
  158SAPE  C21217633   2.339   1.188   7.345 -0.0243  0.8994  0.0017
  158SAPE  H12R17634   2.352   1.080   7.334  1.3815  1.0476 -0.0120
  158SAPE  C21317635   2.341   1.241   7.493 -0.7102 -0.4382  0.2142
  158SAPE  H13R17636   2.393   1.339   7.496 -1.5302  0.0504 -0.7631
  158SAPE  H13S17637   2.408   1.171   7.547  0.5941 -0.7194 -1.6489
  158SAPE  C21417638   2.213   1.239   7.564 -0.0305 -0.4194  0.4513
  158SAPE  H14R17639   2.127   1.213   7.501  0.1153  1.1338 -0.4274
  158SAPE  C21517640   2.198   1.287   7.685 -0.6543 -0.5825 -0.0453
  158SAPE  H15R17641   2.099   1.270   7.730 -0.0981 -2.0355  0.7350
  158SAPE  C21617642   2.305   1.345   7.775 -0.8519 -0.2014 -0.0597
  158SAPE  H16R17643   2.259   1.421   7.842  0.1875 -0.2886  0.7585
  158SAPE  H16S17644   2.389   1.388   7.716 -0.9987 -0.5297 -0.5090
  158SAPE  C21717645   2.372   1.245   7.880  0.4337  0.1944  0.4562
  158SAPE  H17R17646   2.424   1.301   7.961 -2.6674  0.0902  2.6457
  158SAPE  H17S17647   2.439   1.183   7.816 -1.8607 -1.6668 -0.2558
  158SAPE  C21817648   2.272   1.142   7.944  0.0821  0.0599  0.0840
  158SAPE  H18R17649   2.221   1.090   7.860 -0.6237 -0.5859  0.9056
  158SAPE  H18S17650   2.189   1.183   8.005  1.6296  0.7026  1.8483
  158SAPE  C21917651   2.355   1.041   8.036 -0.7486  0.4548 -0.6317
  158SAPE  H19R17652   2.430   1.104   8.088  0.2033 -1.2504  0.1660
  158SAPE  H19S17653   2.395   0.957   7.975 -3.6634 -2.1276  0.7185
  158SAPE  C22017654   2.264   0.985   8.153 -0.1366  0.0913  0.0621
  158SAPE  H20R17655   2.210   0.891   8.132  0.7288 -1.3321  3.5838
  158SAPE  H20S17656   2.194   1.061   8.192 -2.4666 -1.7864 -0.2752
  158SAPE  H20T17657   2.325   0.963   8.243 -1.2276  3.3303  1.7601
  158SAPE   C3317658   2.279   0.782   7.015  0.0199  0.6051 -0.0104
  158SAPE   H3X17659   2.382   0.744   7.033 -0.3781 -0.1914  0.6376
  158SAPE   H3Y17660   2.222   0.687   7.026  0.0234  0.5266 -0.6318
  158SAPE   C3417661   2.238   0.866   7.138 -0.5885  0.9649  0.6072
  158SAPE   H4X17662   2.138   0.909   7.113 -1.4013 -1.1114  0.1259
  158SAPE   H4Y17663   2.302   0.955   7.154 -0.3637  1.4863 -2.5898
  158SAPE   C3517664   2.224   0.778   7.263  0.1285  0.8020 -0.0656
  158SAPE   H5X17665   2.132   0.716   7.261  0.1390  0.8125 -0.9064
  158SAPE   H5Y17666   2.208   0.849   7.347  4.0380  2.4104 -0.4737
  158SAPE   C3617667   2.359   0.710   7.286  0.5711 -0.1584  0.7788
  158SAPE   H6X17668   2.444   0.779   7.265 -0.7101  0.6741 -2.2213
  158SAPE   H6Y17669   2.375   0.632   7.209 -0.7637 -2.6076  2.8592
  158SAPE   C3717670   2.373   0.645   7.424 -0.5229 -0.1062  0.6441
  158SAPE   H7X17671   2.281   0.587   7.448 -0.9413 -0.2044 -1.0829
  158SAPE   H7Y17672   2.457   0.573   7.423 -0.3500  0.0689  1.4511
  158SAPE   C3817673   2.406   0.732   7.544  0.2135 -0.2626 -0.4458
  158SAPE   H8X17674   2.407   0.658   7.626 -1.8157  0.0469 -0.0868
  158SAPE   H8Y17675   2.323   0.806   7.549  0.5279  0.3164 -2.8559
  158SAPE   C3917676   2.540   0.803   7.553  0.1333  0.2005  0.3301
  158SAPE   H9X17677   2.554   0.887   7.482  1.2497 -0.3190 -0.0882
  158SAPE   H9Y17678   2.618   0.727   7.530  0.2438  0.6869 -0.9810
  158SAPE  C31017679   2.553   0.866   7.695  0.2848 -0.4781  0.3290
  158SAPE  H10X17680   2.544   0.785   7.770  3.1559 -0.9781  0.2654
  158SAPE  H10Y17681   2.481   0.949   7.711  0.9862  0.4436 -1.0686
  158SAPE  C31117682   2.699   0.928   7.716  0.0554  0.6908 -0.0792
  158SAPE  H11X17683   2.723   0.990   7.627  0.2496 -1.4120 -1.5635
  158SAPE  H11Y17684   2.760   0.836   7.705 -2.1598 -0.8085 -0.5591
  158SAPE  C31217685   2.718   1.001   7.846 -0.0961  0.0621 -0.0243
  158SAPE  H12X17686   2.644   1.084   7.852  1.3514  1.6883 -2.7446
  158SAPE  H12Y17687   2.823   1.036   7.844 -0.4908  1.2874 -0.9221
  158SAPE  C31317688   2.700   0.912   7.970  0.4503 -0.1808  0.2429
  158SAPE  H13X17689   2.747   0.813   7.958  2.2409  0.8374 -2.0599
  158SAPE  H13Y17690   2.593   0.892   7.992  0.3844  0.4248  0.5009
  158SAPE  C31417691   2.756   0.973   8.095  0.0171  0.2219  0.5219
  158SAPE  H14X17692   2.710   1.074   8.108 -0.7737 -0.2462  1.4549
  158SAPE  H14Y17693   2.866   0.983   8.080  0.0456  0.0826  0.6367
  158SAPE  C31517694   2.744   0.893   8.231 -0.1267 -0.6085 -0.2404
  158SAPE  H15X17695   2.818   0.941   8.298 -1.8899 -0.3532  1.6316
  158SAPE  H15Y17696   2.756   0.784   8.215 -3.0303 -1.1646  0.7567
  158SAPE  C31617697   2.615   0.918   8.304  0.4359 -0.5402  0.4090
  158SAPE  H16X17698   2.616   0.842   8.384 -0.1744  0.3911  1.3197
  158SAPE  H16Y17699   2.524   0.894   8.245  1.0860 -4.1516  0.6230
  158SAPE  C31717700   2.612   1.060   8.375  0.1303  0.5566  0.5659
  158SAPE  H17X17701   2.601   1.138   8.297  3.1301  1.1408  0.6283
  158SAPE  H17Y17702   2.715   1.084   8.409  0.0545 -0.2791  1.4591
  158SAPE  C31817703   2.510   1.063   8.489  0.5451 -0.9299  0.1886
  158SAPE  H18X17704   2.497   1.164   8.534  3.4397 -1.4478  2.5380
  158SAPE  H18Y17705   2.554   0.994   8.564  1.9116 -1.8181 -1.3631
  158SAPE  H18Z17706   2.407   1.041   8.453  0.1944  4.0808 -2.6987
  159SAPE     N17707   3.174   5.962   6.324  0.1312 -0.2447 -0.2738
  159SAPE   HN117708   3.181   5.895   6.403 -1.1685 -0.5993 -0.4390
  159SAPE   HN217709   3.123   6.048   6.354  1.6011  0.4958  0.2031
  159SAPE   HN317710   3.113   5.901   6.267 -0.4553 -1.8494  1.9236
  159SAPE   C1217711   3.294   5.993   6.240  0.5564 -0.0198  0.2656
  159SAPE  H12A17712   3.382   6.032   6.295  1.4959 -0.4413 -0.9151
  159SAPE  H12B17713   3.272   6.075   6.169  2.7409  0.9690  0.6406
  159SAPE   C1117714   3.326   5.865   6.161  0.6955  0.1348  0.1229
  159SAPE  H11A17715   3.421   5.869   6.103  0.3560 -0.7271 -0.5274
  159SAPE  H11B17716   3.247   5.843   6.086 -0.1284  0.6792  0.8184
  159SAPE     P17717   3.436   5.640   6.235  0.3952  0.1081  0.1046
  159SAPE   O1317718   3.411   5.566   6.115 -0.2255 -0.1616  0.1917
  159SAPE   O1417719   3.566   5.710   6.253 -0.0830  0.2741  0.0621
  159SAPE   O1217720   3.322   5.749   6.247 -0.2942  0.6193  0.0526
  159SAPE   O1117721   3.408   5.542   6.354 -0.0616 -0.1406  0.2655
  159SAPE    C117722   3.289   5.534   6.436  0.7292 -0.1022  0.1819
  159SAPE    HA17723   3.194   5.548   6.381  1.2705 -2.3526 -1.4963
  159SAPE    HB17724   3.276   5.437   6.488  0.5046  0.9836  2.2697
  159SAPE    C217725   3.289   5.633   6.560 -0.0210  0.7726  0.1469
  159SAPE    HS17726   3.270   5.732   6.513 -4.0855 -0.1245 -0.4358
  159SAPE   O2117727   3.412   5.632   6.624 -0.3740 -0.1858 -0.2828
  159SAPE   C2117728   3.508   5.720   6.616  0.1166 -0.5297 -0.4602
  159SAPE   O2217729   3.510   5.830   6.563 -0.4519  0.4962 -0.1967
  159SAPE   C2217730   3.633   5.663   6.682 -0.5751 -0.9630  0.2821
  159SAPE   H2R17731   3.621   5.609   6.778  0.2178 -2.4497 -0.4236
  159SAPE   H2S17732   3.677   5.593   6.607  2.5908  1.3461 -0.2423
  159SAPE    C317733   3.175   5.603   6.664  0.0679 -0.3709 -0.4208
  159SAPE    HX17734   3.198   5.504   6.710  0.7745 -0.0630 -0.0920
  159SAPE    HY17735   3.083   5.594   6.603  1.7496 -2.2318 -2.8788
  159SAPE   O3117736   3.174   5.702   6.773 -0.1604 -0.5025 -0.5353
  159SAPE   C3117737   3.145   5.829   6.742 -0.6698 -0.2709  0.5455
  159SAPE   O3217738   3.112   5.873   6.628  0.0274  0.1774 -1.1101
  159SAPE   C3217739   3.159   5.914   6.871 -0.6919 -0.6305 -0.0257
  159SAPE   H2X17740   3.258   5.887   6.914 -1.4967 -1.7802  1.2064
  159SAPE   H2Y17741   3.081   5.877   6.941  0.4686 -1.5157  0.8571
  159SAPE   C2317742   3.741   5.771   6.712  0.2667 -0.0997 -0.2417
  159SAPE   H3R17743   3.697   5.854   6.772 -1.4750 -1.8082  0.9853
  159SAPE   H3S17744   3.778   5.810   6.614  1.4723 -0.7535 -0.0575
  159SAPE   C2417745   3.857   5.724   6.801  0.9527  0.2601 -0.2869
  159SAPE   H4R17746   3.896   5.627   6.762  0.5423 -0.0372  0.0375
  159SAPE   H4S17747   3.813   5.723   6.903 -0.9858  0.9248 -1.0711
  159SAPE   C2517748   3.976   5.812   6.788  0.8556  0.0770 -0.8096
  159SAPE   H5R17749   4.018   5.838   6.690  4.4632  0.6596  0.7500
  159SAPE   C2617750   4.037   5.872   6.893 -0.0372 -0.1609 -0.2123
  159SAPE   H6R17751   4.134   5.924   6.888 -0.3323  0.4222 -0.0816
  159SAPE   C2717752   4.002   5.850   7.037 -0.2763 -0.0086  0.1281
  159SAPE   H7R17753   3.961   5.750   7.060  0.3714  0.1445  2.1004
  159SAPE   H7S17754   3.929   5.929   7.065  2.0179  1.2070  3.2979
  159SAPE   C2817755   4.115   5.868   7.139  0.3592  0.6149  0.1423
  159SAPE   H8R17756   4.211   5.821   7.115  0.2462  0.7136 -0.5328
  159SAPE   C2917757   4.107   5.928   7.255 -0.2277  0.9356 -0.2094
  159SAPE   H9R17758   4.203   5.949   7.305 -0.3687  0.2387  0.3824
  159SAPE  C21017759   3.983   6.001   7.310 -0.3866 -0.1402  0.3655
  159SAPE  H10R17760   3.956   5.968   7.412 -1.7459 -1.2465 -0.3143
  159SAPE  H10S17761   3.895   5.974   7.248  0.4599 -2.4744  0.0746
  159SAPE  C21117762   4.001   6.147   7.301  0.0194 -0.2485 -0.7116
  159SAPE  H11R17763   4.008   6.201   7.205 -0.6537  0.0321 -0.6100
  159SAPE  C21217764   4.023   6.226   7.410  0.4670 -0.1331 -0.5829
  159SAPE  H12R17765   4.034   6.333   7.385  2.6655  0.3622  2.0119
  159SAPE  C21317766   4.027   6.200   7.557 -0.7019 -0.4279 -0.0023
  159SAPE  H13R17767   4.086   6.109   7.581  2.2314  1.2793 -0.2281
  159SAPE  H13S17768   3.924   6.178   7.593 -1.2927 -0.0562 -1.4066
  159SAPE  C21417769   4.085   6.322   7.623  1.3671 -0.5288 -0.4388
  159SAPE  H14R17770   4.106   6.413   7.565 -0.5682  0.6970  0.6450
  159SAPE  C21517771   4.127   6.319   7.747 -0.3001  0.9033 -0.5202
  159SAPE  H15R17772   4.158   6.409   7.801  0.0951  0.3018  0.2869
  159SAPE  C21617773   4.135   6.200   7.847  0.0979  0.3748  0.2931
  159SAPE  H16R17774   4.241   6.187   7.877  0.7260 -0.4187 -2.0479
  159SAPE  H16S17775   4.106   6.102   7.805  0.5087  0.0881  0.6688
  159SAPE  C21717776   4.046   6.237   7.965 -0.0606 -0.6388  0.0994
  159SAPE  H17R17777   3.942   6.263   7.937  0.3888 -0.7181 -1.7152
  159SAPE  H17S17778   4.087   6.321   8.027  0.4059 -0.4990 -0.3951
  159SAPE  C21817779   4.027   6.122   8.063 -0.3949 -0.2048 -0.1289
  159SAPE  H18R17780   4.125   6.078   8.090  0.6926  1.4360 -1.3110
  159SAPE  H18S17781   3.965   6.046   8.009 -0.8459 -0.9736  1.4018
  159SAPE  C21917782   3.953   6.178   8.187  0.2058  0.2786  0.2144
  159SAPE  H19R17783   3.908   6.090   8.239  0.4906 -0.6262 -1.0173
  159SAPE  H19S17784   3.870   6.242   8.150 -1.3721 -1.9841 -0.3420
  159SAPE  C22017785   4.042   6.247   8.288 -0.8017  0.0965 -0.3443
  159SAPE  H20R17786   3.989   6.261   8.384 -3.2651 -1.1137 -1.4288
  159SAPE  H20S17787   4.065   6.350   8.255 -3.5671  1.3784  1.3741
  159SAPE  H20T17788   4.137   6.190   8.296 -0.7323 -0.6828 -4.4800
  159SAPE   C3317789   3.152   6.065   6.852 -0.0893  0.2551 -0.7022
  159SAPE   H3X17790   3.043   6.073   6.833 -0.5293 -2.4355  0.3255
  159SAPE   H3Y17791   3.212   6.100   6.766  1.3681  0.9991  0.5673
  159SAPE   C3417792   3.195   6.157   6.973  0.1041 -0.0697 -0.0998
  159SAPE   H4X17793   3.205   6.258   6.928 -0.3092 -0.5445 -1.2993
  159SAPE   H4Y17794   3.290   6.107   7.001 -0.3081 -0.3732  0.7987
  159SAPE   C3517795   3.110   6.155   7.098 -0.3760  0.3432  0.3143
  159SAPE   H5X17796   3.079   6.050   7.118 -0.1288  0.6326  2.3490
  159SAPE   H5Y17797   3.022   6.219   7.077  0.1469  0.8839 -0.2785
  159SAPE   C3617798   3.188   6.206   7.227  0.4737 -0.2788  0.8873
  159SAPE   H6X17799   3.204   6.313   7.202 -1.3048 -0.4226 -1.1290
  159SAPE   H6Y17800   3.288   6.161   7.245  1.0697  0.5882 -0.1369
  159SAPE   C3717801   3.101   6.191   7.354 -0.1684  0.2596  0.0336
  159SAPE   H7X17802   3.106   6.081   7.371  2.0870 -0.6831 -4.8810
  159SAPE   H7Y17803   2.998   6.219   7.326  0.3526  0.9209 -1.3231
  159SAPE   C3817804   3.156   6.274   7.476 -0.5200  0.1338 -0.5145
  159SAPE   H8X17805   3.142   6.381   7.448  1.8717 -0.4661 -4.8353
  159SAPE   H8Y17806   3.259   6.246   7.506  0.3294  1.6305 -1.8493
  159SAPE   C3917807   3.074   6.260   7.607 -0.4797 -0.1182 -0.2807
  159SAPE   H9X17808   3.091   6.161   7.653 -2.2017  0.3976  1.6269
  159SAPE   H9Y17809   2.963   6.266   7.598 -0.6317  0.0792  1.3985
  159SAPE  C31017810   3.124   6.359   7.707 -0.5581 -0.5755 -0.1541
  159SAPE  H10X17811   3.067   6.453   7.693  2.0799  0.8975 -1.5851
  159SAPE  H10Y17812   3.233   6.381   7.712 -0.6998  0.1399 -0.1346
  159SAPE  C31117813   3.098   6.312   7.854  0.2521 -0.7032  0.2099
  159SAPE  H11X17814   3.178   6.254   7.906  1.2372  1.2239  0.9504
  159SAPE  H11Y17815   3.013   6.242   7.843 -0.8384  0.6055  0.1347
  159SAPE  C31217816   3.049   6.432   7.939 -0.1840  0.0169  0.1664
  159SAPE  H12X17817   2.964   6.490   7.895  0.9093  0.3303 -1.6372
  159SAPE  H12Y17818   3.132   6.505   7.947 -1.9009  2.0538  0.2187
  159SAPE  C31317819   3.023   6.388   8.083  0.4219  0.2699 -0.5232
  159SAPE  H13X17820   3.105   6.325   8.123 -0.7770 -1.2103 -0.2869
  159SAPE  H13Y17821   2.941   6.314   8.076 -1.5554  2.4509 -2.0847
  159SAPE  C31417822   2.999   6.508   8.174 -0.5665  0.1497 -0.0125
  159SAPE  H14X17823   2.928   6.576   8.122 -0.1725  0.1483 -0.5606
  159SAPE  H14Y17824   3.096   6.559   8.189 -1.5430  1.8420  0.7809
  159SAPE  C31517825   2.947   6.459   8.312 -0.0409  0.5453  0.0957
  159SAPE  H15X17826   2.995   6.369   8.357  0.9115  0.6010 -0.7600
  159SAPE  H15Y17827   2.847   6.425   8.279 -0.5054 -0.6309  2.5198
  159SAPE  C31617828   2.931   6.577   8.407 -0.0590 -0.0967 -0.3528
  159SAPE  H16X17829   2.851   6.548   8.478 -0.2874  0.5820 -0.3320
  159SAPE  H16Y17830   2.915   6.671   8.351  0.3636  0.9116  1.1741
  159SAPE  C31717831   3.069   6.594   8.493  0.0658  0.4725  0.1125
  159SAPE  H17X17832   3.147   6.633   8.424  1.6595  0.9684  2.0925
  159SAPE  H17Y17833   3.100   6.488   8.505 -1.3582  0.0588  0.2661
  159SAPE  C31817834   3.056   6.680   8.616  0.0884 -0.2741 -0.6134
  159SAPE  H18X17835   2.953   6.688   8.658  1.2807  1.9995  2.1692
  159SAPE  H18Y17836   3.076   6.786   8.593 -0.9818  0.1192  0.1607
  159SAPE  H18Z17837   3.125   6.649   8.697  0.6117 -0.7266 -1.2176
  160SAPE     N17838   3.914   4.471   6.075 -0.0315 -0.8825  0.2769
  160SAPE   HN117839   3.975   4.479   6.159 -0.8250  1.4970  0.7055
  160SAPE   HN217840   3.882   4.372   6.084  1.2950 -1.4836 -1.1235
  160SAPE   HN317841   3.979   4.472   5.994 -1.6906  0.2769 -1.1152
  160SAPE   C1217842   3.800   4.572   6.070 -0.6881  0.0165 -0.3201
  160SAPE  H12A17843   3.735   4.538   5.987  1.7012 -1.0200 -1.8426
  160SAPE  H12B17844   3.838   4.675   6.049  1.5194 -0.7604 -0.3907
  160SAPE   C1117845   3.724   4.566   6.203  0.1601 -0.0570 -0.2175
  160SAPE  H11A17846   3.631   4.628   6.198 -0.3405 -0.6741  1.0019
  160SAPE  H11B17847   3.777   4.626   6.279  0.1629  1.8259 -1.6323
  160SAPE     P17848   3.562   4.362   6.229 -0.2306 -0.2705  0.1425
  160SAPE   O1317849   3.494   4.398   6.101 -0.0455 -0.7826  0.1233
  160SAPE   O1417850   3.574   4.218   6.246 -0.0471 -0.1695 -1.1925
  160SAPE   O1217851   3.701   4.429   6.241 -0.1258  0.2480  0.3010
  160SAPE   O1117852   3.478   4.426   6.342 -0.1132  0.3220 -0.0820
  160SAPE    C117853   3.535   4.468   6.470 -0.3561  0.3507 -0.0443
  160SAPE    HA17854   3.639   4.429   6.480 -1.2557 -1.9847  0.6688
  160SAPE    HB17855   3.528   4.579   6.473 -0.9880  0.3761 -1.6910
  160SAPE    C217856   3.449   4.420   6.597  0.6753  1.0077 -0.3414
  160SAPE    HS17857   3.495   4.489   6.671 -1.1648  0.9283  0.9298
  160SAPE   O2117858   3.470   4.284   6.632  0.3204 -0.3741  0.3131
  160SAPE   C2117859   3.474   4.247   6.762  0.0793  0.2249  0.3418
  160SAPE   O2217860   3.475   4.333   6.848  0.4843  0.5819 -0.0363
  160SAPE   C2217861   3.493   4.095   6.787 -0.2637 -0.7971  0.1172
  160SAPE   H2R17862   3.395   4.044   6.801 -0.2947 -0.7760 -0.0157
  160SAPE   H2S17863   3.543   4.050   6.699 -1.5761  0.1757 -1.1800
  160SAPE    C317864   3.302   4.468   6.575 -0.6323 -0.0813 -0.5524
  160SAPE    HX17865   3.247   4.394   6.512 -3.5441  1.4399  0.0057
  160SAPE    HY17866   3.298   4.560   6.513 -0.3764  0.2142 -0.1334
  160SAPE   O3117867   3.221   4.476   6.692 -0.7411  0.4249 -0.8180
  160SAPE   C3117868   3.235   4.593   6.752  0.9259 -0.0408 -0.3850
  160SAPE   O3217869   3.281   4.695   6.704 -0.0837 -0.1418  0.4860
  160SAPE   C3217870   3.167   4.588   6.887  0.2761  0.4084  0.2959
  160SAPE   H2X17871   3.228   4.520   6.952 -0.4495 -0.7149 -0.1588
  160SAPE   H2Y17872   3.063   4.549   6.881 -0.5306  2.2251  1.5946
  160SAPE   C2317873   3.593   4.073   6.908 -0.4650  0.3567 -0.2516
  160SAPE   H3R17874   3.685   4.132   6.889 -0.6735  0.7494 -0.0487
  160SAPE   H3S17875   3.633   3.969   6.914 -0.4347  0.3702 -0.2187
  160SAPE   C2417876   3.539   4.106   7.042 -0.0502 -0.5677 -0.0987
  160SAPE   H4R17877   3.518   4.215   7.048  2.3874  0.0739 -1.9807
  160SAPE   H4S17878   3.625   4.092   7.111 -0.2986 -1.0704  0.1110
  160SAPE   C2517879   3.430   4.017   7.078  0.2044  0.0642 -0.5548
  160SAPE   H5R17880   3.456   3.911   7.095  1.1957  0.5071  0.8206
  160SAPE   C2617881   3.301   4.056   7.109  0.6149  0.1285 -0.3813
  160SAPE   H6R17882   3.225   3.981   7.135  0.3444  0.4621 -0.2071
  160SAPE   C2717883   3.253   4.203   7.105 -0.1921 -0.6836  0.0328
  160SAPE   H7R17884   3.327   4.268   7.053  0.2153 -1.4096 -0.3197
  160SAPE   H7S17885   3.254   4.241   7.210 -1.6605  0.4979 -0.3503
  160SAPE   C2817886   3.115   4.213   7.047 -0.5220 -0.2715 -0.1007
  160SAPE   H8R17887   3.108   4.199   6.938  0.5749 -0.4369 -0.1646
  160SAPE   C2917888   3.000   4.251   7.101  0.1042  0.2356 -0.1379
  160SAPE   H9R17889   2.916   4.258   7.030 -0.2661 -0.2135  0.2529
  160SAPE  C21017890   2.951   4.299   7.237  0.3096 -0.0120 -0.7703
  160SAPE  H10R17891   2.910   4.401   7.229  0.2890 -0.1874 -4.0623
  160SAPE  H10S17892   3.043   4.313   7.298  0.1272  0.0604 -0.5114
  160SAPE  C21117893   2.865   4.196   7.309  0.2701  0.1502 -0.3887
  160SAPE  H11R17894   2.802   4.125   7.254  0.7663 -1.5465  1.1406
  160SAPE  C21217895   2.864   4.181   7.443 -0.4468 -0.0063  0.0113
  160SAPE  H12R17896   2.818   4.094   7.493 -1.7501 -0.6548 -2.1836
  160SAPE  C21317897   2.955   4.251   7.540  0.0331 -0.5070  0.3988
  160SAPE  H13R17898   2.892   4.307   7.614 -0.7852 -0.0315 -0.6318
  160SAPE  H13S17899   3.018   4.329   7.493 -0.7674 -1.5226 -2.5345
  160SAPE  C21417900   3.064   4.174   7.610  0.3364  0.0241 -1.0449
  160SAPE  H14R17901   3.166   4.184   7.570  1.3554  0.4533  1.4743
  160SAPE  C21517902   3.054   4.085   7.716  0.0670 -0.4460 -0.1869
  160SAPE  H15R17903   3.143   4.037   7.758  1.1086  1.5003 -0.0830
  160SAPE  C21617904   2.936   4.048   7.807  0.2326  0.2957  0.6889
  160SAPE  H16R17905   2.922   3.939   7.796 -1.5851  0.6639 -1.2830
  160SAPE  H16S17906   2.842   4.088   7.764  0.6115  1.6281  1.0585
  160SAPE  C21717907   2.935   4.095   7.951 -0.6767  0.5304  0.1134
  160SAPE  H17R17908   3.031   4.080   8.005 -0.5272  1.3458  0.0825
  160SAPE  H17S17909   2.851   4.048   8.007  0.2694 -0.2516  0.9163
  160SAPE  C21817910   2.911   4.246   7.969  0.5996 -0.5051  0.6445
  160SAPE  H18R17911   2.817   4.265   7.913  0.6526 -0.7975  0.4570
  160SAPE  H18S17912   2.992   4.307   7.923 -0.1547  0.5357  0.6619
  160SAPE  C21917913   2.891   4.297   8.119  0.9009  0.2662  0.6287
  160SAPE  H19R17914   2.795   4.255   8.156  1.5033 -2.7376 -0.9022
  160SAPE  H19S17915   2.884   4.408   8.114  1.6143  0.3351  1.0423
  160SAPE  C22017916   3.004   4.260   8.214 -0.0600 -0.0932 -0.0853
  160SAPE  H20R17917   2.995   4.331   8.300 -0.7494  0.3000 -0.4703
  160SAPE  H20S17918   3.098   4.299   8.171  0.1448  1.6055  1.7164
  160SAPE  H20T17919   3.003   4.153   8.242 -1.0462 -0.1326 -0.2349
  160SAPE   C3317920   3.167   4.723   6.954 -0.2604 -0.1077 -0.5762
  160SAPE   H3X17921   3.099   4.800   6.911  0.4417  0.2500 -1.0673
  160SAPE   H3Y17922   3.269   4.766   6.944 -0.1839  0.6081  2.3773
  160SAPE   C3417923   3.160   4.723   7.105  0.4441  0.4378 -0.5643
  160SAPE   H4X17924   3.073   4.665   7.143  0.9740  0.2817  0.4380
  160SAPE   H4Y17925   3.147   4.828   7.139 -2.4713 -0.5626  1.8892
  160SAPE   C3517926   3.288   4.664   7.177 -0.2105 -0.0456 -0.0992
  160SAPE   H5X17927   3.385   4.686   7.127 -0.1323 -0.1024  0.0294
  160SAPE   H5Y17928   3.270   4.555   7.169 -1.2274 -0.0192  1.4797
  160SAPE   C3617929   3.291   4.702   7.328 -0.2925  0.0938 -0.6063
  160SAPE   H6X17930   3.281   4.813   7.327  3.0353  0.5126 -1.2781
  160SAPE   H6Y17931   3.397   4.686   7.359 -0.7389  0.1470  1.0332
  160SAPE   C3717932   3.186   4.636   7.414 -0.0877 -0.2102  0.2509
  160SAPE   H7X17933   3.237   4.547   7.456  2.3644  0.9711 -0.0609
  160SAPE   H7Y17934   3.104   4.589   7.355 -1.9158 -0.7572  3.0430
  160SAPE   C3817935   3.122   4.720   7.526  0.0909 -0.1713  0.2673
  160SAPE   H8X17936   3.032   4.663   7.557  0.1904 -0.3005  0.3215
  160SAPE   H8Y17937   3.083   4.817   7.490 -0.3484 -0.7452 -0.8255
  160SAPE   C3917938   3.215   4.748   7.638  0.0089  0.0063  0.5051
  160SAPE   H9X17939   3.313   4.784   7.599 -0.9595  1.7055 -0.5151
  160SAPE   H9Y17940   3.243   4.653   7.688  2.5342  0.5851  0.3248
  160SAPE  C31017941   3.160   4.856   7.729 -0.3577 -0.5813 -0.1336
  160SAPE  H10X17942   3.224   4.847   7.819  2.3682 -2.1278 -2.0679
  160SAPE  H10Y17943   3.054   4.832   7.749 -0.0879 -2.7838 -1.0476
  160SAPE  C31117944   3.168   5.000   7.674  0.5497 -0.6537  0.1471
  160SAPE  H11X17945   3.110   5.012   7.580  0.6677  3.5531  0.4117
  160SAPE  H11Y17946   3.273   5.017   7.643 -0.2447 -0.3524 -2.6436
  160SAPE  C31217947   3.104   5.104   7.766  0.0619  0.0762  0.3563
  160SAPE  H12X17948   2.993   5.106   7.768  0.0836  0.8293  0.8614
  160SAPE  H12Y17949   3.144   5.200   7.728 -0.2664  0.2130  0.3534
  160SAPE  C31317950   3.150   5.089   7.913 -0.0039 -0.0724  0.4170
  160SAPE  H13X17951   3.118   4.995   7.963 -0.6074 -0.3282 -0.4190
  160SAPE  H13Y17952   3.105   5.171   7.972 -1.5171  0.9734 -1.9933
  160SAPE  C31417953   3.305   5.102   7.925 -0.5296  0.2753  0.2796
  160SAPE  H14X17954   3.342   5.199   7.886  0.7846 -0.0195  0.7447
  160SAPE  H14Y17955   3.361   5.020   7.876  2.6709  2.0669  0.6561
  160SAPE  C31517956   3.352   5.096   8.071 -0.3250 -0.1391 -0.2973
  160SAPE  H15X17957   3.310   5.180   8.130 -0.6326  0.7745 -1.7721
  160SAPE  H15Y17958   3.459   5.124   8.059 -0.8034  1.2464 -1.5966
  160SAPE  C31617959   3.324   4.965   8.136  0.5445 -0.4022  0.1585
  160SAPE  H16X17960   3.368   4.873   8.090  0.5761 -0.8399  1.0445
  160SAPE  H16Y17961   3.220   4.930   8.157 -0.5605  0.1806 -3.4904
  160SAPE  C31717962   3.387   4.970   8.278  0.5108  0.7754  0.2015
  160SAPE  H17X17963   3.337   4.888   8.334  0.4207  0.1111 -0.8221
  160SAPE  H17Y17964   3.378   5.064   8.337  0.8180  0.3798  0.8954
  160SAPE  C31817965   3.533   4.919   8.274  0.8553 -0.1874  0.4333
  160SAPE  H18X17966   3.541   4.809   8.283 -1.0378 -0.2192  3.2781
  160SAPE  H18Y17967   3.581   4.959   8.366 -3.2498  3.7824  1.2160
  160SAPE  H18Z17968   3.585   4.964   8.186 -1.1503  1.0303 -0.2163
  161SOPE     N17969   6.693   0.216  10.489 -0.3330 -0.4081  0.1776
  161SOPE   HN117970   6.725   0.186  10.394  0.4871 -0.5532  0.4949
  161SOPE   HN217971   6.615   0.284  10.474 -1.3775 -1.5808  0.1243
  161SOPE   HN317972   6.768   0.270  10.536 -0.8231 -1.3027  2.0449
  161SOPE   C1217973   6.626   0.119  10.574 -0.1232 -0.2246 -0.2961
  161SOPE  H12A17974   6.523   0.098  10.538 -0.4509 -0.2921  0.6641
  161SOPE  H12B17975   6.611   0.177  10.667  1.9986  1.9432 -1.1776
  161SOPE   C1117976   6.707  -0.004  10.595  0.0469  0.6090 -0.0655
  161SOPE  H11A17977   6.709  -0.070  10.506 -2.2512 -2.2651  1.8089
  161SOPE  H11B17978   6.657  -0.063  10.675 -1.8364  0.4315 -1.3340
  161SOPE     P17979   6.948  -0.077  10.679 -0.1494  0.2846 -0.0700
  161SOPE   O1317980   6.892  -0.188  10.763 -0.1805 -0.6969  0.5987
  161SOPE   O1417981   7.046   0.005  10.749  0.2839  0.6584  0.0026
  161SOPE   O1217982   6.840   0.021  10.635 -0.0695  0.9730 -0.0306
  161SOPE   O1117983   7.015  -0.129  10.546  0.2181 -0.1680 -0.2160
  161SOPE    C117984   7.029  -0.038  10.435  0.0555 -0.2347 -0.3524
  161SOPE    HA17985   7.117   0.027  10.455  0.5533 -1.1858  0.6429
  161SOPE    HB17986   6.942   0.030  10.425  0.1378  0.0134  0.5610
  161SOPE    C217987   7.061  -0.114  10.301 -0.7379 -0.0146  0.4596
  161SOPE    HS17988   7.167  -0.148  10.298 -2.0233 -4.9200  0.4913
  161SOPE   O2117989   7.029  -0.034  10.192 -0.0877 -0.3862  0.4349
  161SOPE   C2117990   7.133  -0.013  10.105  0.5367 -0.1690  0.0255
  161SOPE   O2217991   7.242  -0.051  10.120 -0.5338  0.1143  0.8492
  161SOPE   C2217992   7.088   0.089   9.997  0.1930 -0.1671  0.9928
  161SOPE   H2R17993   7.127   0.189  10.026 -1.0589  0.9101 -0.7691
  161SOPE   H2S17994   6.977   0.085   9.990  0.3144 -2.4178 -3.4043
  161SOPE    C317995   6.981  -0.250  10.298  0.4948 -0.7204 -0.0657
  161SOPE    HX17996   6.880  -0.238  10.343  0.5775  0.7624 -0.2586
  161SOPE    HY17997   7.015  -0.327  10.371 -1.8782 -0.8278  1.0289
  161SOPE   O3117998   6.952  -0.295  10.159 -0.3267  0.2714  0.0213
  161SOPE   C3117999   7.043  -0.385  10.122  0.4568 -0.0529  0.8244
  161SOPE   O3218000   7.128  -0.432  10.191  0.0423 -0.5564  0.0856
  161SOPE   C3218001   7.027  -0.419   9.974 -0.1530  0.5010 -0.0005
  161SOPE   H2X18002   6.938  -0.359   9.947 -0.7124 -1.0899 -1.9638
  161SOPE   H2Y18003   6.999  -0.527   9.976 -3.1685  1.1740  3.0518
  161SOPE   C2318004   7.144   0.046   9.862 -0.3005  0.5232  0.3117
  161SOPE   H3R18005   7.137  -0.062   9.836  0.2260  1.0799 -2.4998
  161SOPE   H3S18006   7.252   0.070   9.858  0.0642 -0.9698  0.5898
  161SOPE   C2418007   7.086   0.123   9.738 -0.6588  0.2244  0.2240
  161SOPE   H4R18008   6.978   0.135   9.759 -0.1048  3.9738  1.7272
  161SOPE   H4S18009   7.129   0.225   9.730 -0.0049  0.0375  1.2223
  161SOPE   C2518010   7.108   0.044   9.610  0.4575  0.1065 -0.6207
  161SOPE   H5R18011   7.218   0.033   9.598  0.5632  1.8010 -1.4761
  161SOPE   H5S18012   7.057  -0.055   9.607 -2.6301  1.5596 -0.2668
  161SOPE   C2618013   7.056   0.125   9.487  0.8846 -0.4718  0.1596
  161SOPE   H6R18014   6.946   0.130   9.496  0.3102 -1.5972 -4.0348
  161SOPE   H6S18015   7.103   0.225   9.479 -0.5147  0.2545  0.7893
  161SOPE   C2718016   7.075   0.040   9.352 -0.0227 -0.4689 -0.1427
  161SOPE   H7R18017   7.184   0.035   9.328  0.1704 -0.6291  0.7247
  161SOPE   H7S18018   7.037  -0.058   9.387  2.1636 -0.5693  2.2350
  161SOPE   C2818019   6.988   0.089   9.235 -0.6785 -0.4889  0.0938
  161SOPE   H8R18020   6.982   0.020   9.148 -0.3229 -1.3332  0.7264
  161SOPE   H8S18021   6.886   0.096   9.280 -0.4219 -2.2208  1.0215
  161SOPE   C2918022   7.045   0.226   9.199  1.0499  0.4340  0.4994
  161SOPE   H9118023   7.056   0.297   9.282  3.0488 -1.6464  2.1536
  161SOPE  C21018024   7.096   0.252   9.077  0.5929  0.6094 -0.4659
  161SOPE  H10118025   7.139   0.352   9.061 -0.9905  1.2654 -0.8103
  161SOPE  C21118026   7.097   0.155   8.957  0.1374 -0.2191 -0.0478
  161SOPE  H11R18027   7.118   0.050   8.986 -1.2933  0.0799  2.3401
  161SOPE  H11S18028   7.177   0.187   8.887 -0.7273  0.9754 -0.5315
  161SOPE  C21218029   6.965   0.158   8.885  0.3243  0.2455  0.3376
  161SOPE  H12R18030   6.938   0.257   8.841 -3.4976  0.6971  3.2112
  161SOPE  H12S18031   6.887   0.120   8.954  0.3940 -2.1059 -0.7714
  161SOPE  C21318032   6.974   0.060   8.757  0.6204  0.4076 -0.2380
  161SOPE  H13R18033   7.017  -0.039   8.786  0.9618  0.1910 -1.4246
  161SOPE  H13S18034   7.045   0.098   8.681  1.3128 -1.1290 -0.4070
  161SOPE  C21418035   6.837   0.027   8.688 -0.4416  0.5046  0.8883
  161SOPE  H14R18036   6.783   0.118   8.654 -1.0984 -0.0523  0.4132
  161SOPE  H14S18037   6.772  -0.003   8.772 -0.8662  0.7447  0.6484
  161SOPE  C21518038   6.845  -0.077   8.582 -0.8217  0.3414  0.1419
  161SOPE  H15R18039   6.747  -0.105   8.538  0.5522 -5.0971 -0.2755
  161SOPE  H15S18040   6.879  -0.174   8.625  0.9045  0.1607 -1.4867
  161SOPE  C21618041   6.953  -0.052   8.472  0.3449  0.5407 -0.6261
  161SOPE  H16R18042   6.937  -0.131   8.395  1.1818 -1.8390  1.4931
  161SOPE  H16S18043   7.054  -0.037   8.515  0.2630  0.3461 -0.3647
  161SOPE  C21718044   6.928   0.077   8.382 -0.5120 -0.2006 -0.0331
  161SOPE  H17R18045   7.010   0.061   8.309 -1.5572 -1.7968 -0.9066
  161SOPE  H17S18046   6.943   0.168   8.445  0.6454 -0.8928  0.7328
  161SOPE  C21818047   6.793   0.078   8.305  0.7416 -0.0201 -0.1477
  161SOPE  H18R18048   6.717   0.067   8.385  2.1703 -1.1922  1.1125
  161SOPE  H18S18049   6.788  -0.000   8.226 -0.4095 -0.0526 -0.0592
  161SOPE  H18T18050   6.784   0.177   8.255 -1.8153  0.4865  1.1372
  161SOPE   C3318051   7.144  -0.366   9.895  0.4527  0.4776  0.3171
  161SOPE   H3X18052   7.238  -0.425   9.907 -0.1970 -0.6454 -0.0074
  161SOPE   H3Y18053   7.181  -0.273   9.944  0.0217 -0.2815  2.1576
  161SOPE   C3418054   7.121  -0.366   9.741 -0.0872  0.7295 -0.4134
  161SOPE   H4X18055   7.040  -0.293   9.721 -0.3712  0.1944 -1.2631
  161SOPE   H4Y18056   7.072  -0.459   9.705  1.5649  0.1222 -1.2049
  161SOPE   C3518057   7.246  -0.324   9.664  0.0105  0.4987 -0.1164
  161SOPE   H5X18058   7.331  -0.392   9.687  2.0976  2.1419 -2.4437
  161SOPE   H5Y18059   7.279  -0.228   9.710  1.7487 -0.5782  0.9967
  161SOPE   C3618060   7.215  -0.295   9.517 -0.5204  0.1880 -0.2315
  161SOPE   H6X18061   7.286  -0.225   9.467  1.0037 -1.7185 -0.8607
  161SOPE   H6Y18062   7.114  -0.249   9.518  0.0877  1.5598  0.9011
  161SOPE   C3718063   7.235  -0.431   9.443 -0.1279  0.2419  0.2839
  161SOPE   H7X18064   7.212  -0.525   9.498  0.1621  1.2452  2.1899
  161SOPE   H7Y18065   7.344  -0.444   9.430 -0.1638  0.1400  0.0807
  161SOPE   C3818066   7.166  -0.437   9.301  0.3461 -0.3332 -0.0627
  161SOPE   H8X18067   7.059  -0.411   9.309  0.8475  1.6465  0.7128
  161SOPE   H8Y18068   7.177  -0.543   9.268 -0.6807 -0.8129  1.0969
  161SOPE   C3918069   7.220  -0.338   9.195 -0.0451 -0.3922  0.4867
  161SOPE   H9X18070   7.331  -0.343   9.186  0.1035 -0.3543  1.9356
  161SOPE   H9Y18071   7.197  -0.237   9.237  0.2467  0.3801 -1.1585
  161SOPE  C31018072   7.145  -0.340   9.065  0.6296  0.2353  0.5220
  161SOPE  H10X18073   7.183  -0.413   8.990  0.7167 -1.6673  2.3286
  161SOPE  H10Y18074   7.138  -0.241   9.016 -1.8236  0.4872  1.2590
  161SOPE  C31118075   6.988  -0.369   9.070  0.5291 -0.1283 -0.4040
  161SOPE  H11X18076   6.938  -0.302   9.144  0.0492 -1.0583  0.1358
  161SOPE  H11Y18077   6.967  -0.474   9.101 -0.1374 -1.1007 -3.7547
  161SOPE  C31218078   6.933  -0.350   8.929  0.3065  0.0236  0.1845
  161SOPE  H12X18079   7.011  -0.383   8.857  1.6552 -0.4327  1.7997
  161SOPE  H12Y18080   6.906  -0.244   8.912 -1.8485 -0.0068  2.7484
  161SOPE  C31318081   6.803  -0.434   8.911  0.1602  0.1771  0.5061
  161SOPE  H13X18082   6.729  -0.385   8.979 -0.9428  1.8461 -1.7696
  161SOPE  H13Y18083   6.829  -0.534   8.951 -0.8432  0.5382  2.2049
  161SOPE  C31418084   6.747  -0.464   8.769 -0.3552  0.0547  0.2956
  161SOPE  H14X18085   6.720  -0.361   8.736  0.0580 -0.1303 -0.6462
  161SOPE  H14Y18086   6.652  -0.522   8.775 -1.4360  1.8182  1.2041
  161SOPE  C31518087   6.855  -0.506   8.674 -0.2587 -0.4917 -0.1965
  161SOPE  H15X18088   6.902  -0.583   8.739 -1.7587 -0.4817  0.9217
  161SOPE  H15Y18089   6.927  -0.427   8.643 -0.6538  1.2420  2.9419
  161SOPE  C31618090   6.802  -0.584   8.554 -0.0106 -0.1055  0.1600
  161SOPE  H16X18091   6.887  -0.604   8.484  0.6338  3.2361 -0.1734
  161SOPE  H16Y18092   6.735  -0.515   8.498  0.7281 -0.1076 -0.7729
  161SOPE  C31718093   6.723  -0.720   8.591 -0.3835 -0.4702  0.2164
  161SOPE  H17X18094   6.635  -0.682   8.646 -0.1963  1.4161 -0.6778
  161SOPE  H17Y18095   6.790  -0.774   8.661 -0.2439 -0.3552  0.1734
  161SOPE  C31818096   6.704  -0.811   8.472  0.1164  0.0209  0.0432
  161SOPE  H18X18097   6.653  -0.906   8.497 -0.6441  0.3955 -0.0544
  161SOPE  H18Y18098   6.805  -0.835   8.431  0.7654  0.7578  1.1442
  161SOPE  H18Z18099   6.649  -0.764   8.388 -0.4357  0.4851  0.6595
  162SOPE     N18100   5.333   6.569  11.104  0.8699 -0.3431 -0.2766
  162SOPE   HN118101   5.295   6.657  11.143  1.9134  0.1613 -0.3585
  162SOPE   HN218102   5.308   6.569  11.003  0.2634 -1.9358 -0.1542
  162SOPE   HN318103   5.287   6.487  11.149 -1.8878  0.3235 -1.6230
  162SOPE   C1218104   5.482   6.573  11.124  0.8542  0.4476  0.4126
  162SOPE  H12A18105   5.510   6.468  11.099  0.0042  0.5424 -1.0745
  162SOPE  H12B18106   5.503   6.587  11.232  3.5061  2.8153 -0.3019
  162SOPE   C1118107   5.546   6.680  11.032 -0.2758 -0.4267  0.0432
  162SOPE  H11A18108   5.503   6.780  11.056 -1.2132 -0.3644 -1.7470
  162SOPE  H11B18109   5.526   6.662  10.925 -1.0373  1.4351 -0.1669
  162SOPE     P18110   5.798   6.591  10.981  0.1471 -0.5843 -0.1807
  162SOPE   O1318111   5.778   6.462  11.051 -0.4898 -0.8179 -0.1595
  162SOPE   O1418112   5.926   6.670  10.989  0.3786 -0.1917  0.2811
  162SOPE   O1218113   5.688   6.680  11.048 -0.3992 -0.4011 -0.6955
  162SOPE   O1118114   5.751   6.585  10.829 -0.2029  0.3736  0.1106
  162SOPE    C118115   5.732   6.703  10.747  0.2070  0.1975 -0.3170
  162SOPE    HA18116   5.732   6.794  10.812  0.8711 -0.6953  0.9651
  162SOPE    HB18117   5.634   6.699  10.694  1.1494 -0.6308 -2.0818
  162SOPE    C218118   5.858   6.719  10.650  0.8057  0.3396 -0.0213
  162SOPE    HS18119   5.812   6.758  10.557 -0.9827  1.9150  1.4704
  162SOPE   O2118120   5.924   6.590  10.631  0.2225 -0.4092 -0.2310
  162SOPE   C2118121   5.867   6.507  10.551  0.8643 -0.4393  0.4789
  162SOPE   O2218122   5.757   6.513  10.505  0.6480 -0.0841  0.2972
  162SOPE   C2218123   5.971   6.408  10.511 -0.0088 -0.0344  0.0669
  162SOPE   H2R18124   5.967   6.314  10.569  3.2949 -0.5413 -0.3392
  162SOPE   H2S18125   6.071   6.453  10.528  0.3712 -0.4927 -0.8989
  162SOPE    C318126   5.958   6.813  10.713  0.4885 -0.3516 -0.5839
  162SOPE    HX18127   6.010   6.753  10.791  1.5151  1.5931  0.3068
  162SOPE    HY18128   5.896   6.892  10.760  0.3944 -0.6355 -0.2276
  162SOPE   O3118129   6.050   6.865  10.620 -0.5814  0.4673 -0.4221
  162SOPE   C3118130   6.018   6.982  10.558 -0.2350  0.0580  0.3941
  162SOPE   O3218131   5.904   7.030  10.564  0.1331  0.5818 -0.2875
  162SOPE   C3218132   6.140   7.038  10.492 -0.1198 -0.1708 -0.1856
  162SOPE   H2X18133   6.227   7.041  10.561  2.2231 -1.3002 -2.9047
  162SOPE   H2Y18134   6.121   7.141  10.455 -2.3148 -1.0273 -1.6162
  162SOPE   C2318135   5.971   6.376  10.361 -0.8846 -0.5440 -0.1618
  162SOPE   H3R18136   5.947   6.468  10.304 -0.0066 -0.3758 -0.2876
  162SOPE   H3S18137   5.901   6.295  10.334  0.0068 -1.6633  0.7907
  162SOPE   C2418138   6.105   6.311  10.316 -0.0334 -1.1535 -0.2240
  162SOPE   H4R18139   6.186   6.383  10.337 -2.9746  1.6255  2.7927
  162SOPE   H4S18140   6.124   6.226  10.385 -0.4476  0.0981  1.4851
  162SOPE   C2518141   6.117   6.282  10.164  0.4366  0.3089 -0.7233
  162SOPE   H5R18142   6.065   6.187  10.138 -0.4053  0.4066  0.4861
  162SOPE   H5S18143   6.083   6.369  10.104 -1.1898 -1.5420 -2.6896
  162SOPE   C2618144   6.264   6.260  10.125 -0.4609  0.6918  1.0156
  162SOPE   H6R18145   6.330   6.349  10.118  1.6047 -0.8757 -3.9358
  162SOPE   H6S18146   6.302   6.188  10.201 -0.6379 -0.6453 -0.1141
  162SOPE   C2718147   6.272   6.192   9.984 -0.3331 -0.3307 -0.2514
  162SOPE   H7R18148   6.372   6.145   9.989 -0.3632 -0.2743  2.2633
  162SOPE   H7S18149   6.203   6.106   9.970  0.2043 -0.5161 -2.0380
  162SOPE   C2818150   6.252   6.282   9.862  0.1936  0.0042 -0.8367
  162SOPE   H8R18151   6.159   6.337   9.887 -0.2693 -0.4437 -1.5435
  162SOPE   H8S18152   6.332   6.358   9.870 -0.6606  0.9259 -0.8611
  162SOPE   C2918153   6.255   6.204   9.735  0.0500 -0.1144  0.4840
  162SOPE   H9118154   6.359   6.197   9.698  0.6083 -0.9448  2.1103
  162SOPE  C21018155   6.157   6.167   9.653  0.2273  1.1063 -0.1587
  162SOPE  H10118156   6.185   6.109   9.563 -2.2140  1.5956 -1.3221
  162SOPE  C21118157   6.016   6.190   9.687  0.1550 -0.7273 -0.1456
  162SOPE  H11R18158   6.007   6.237   9.788  0.5220  0.4006 -0.6239
  162SOPE  H11S18159   5.959   6.094   9.690  0.7983 -1.0929  0.8326
  162SOPE  C21218160   5.935   6.272   9.585 -0.2075 -0.2750 -0.7748
  162SOPE  H12R18161   5.999   6.353   9.542  2.5947 -1.5737  0.6645
  162SOPE  H12S18162   5.844   6.317   9.630 -0.0320 -0.8116  0.1466
  162SOPE  C21318163   5.878   6.190   9.466 -0.2684  0.7275 -0.1387
  162SOPE  H13R18164   5.807   6.112   9.502  1.9182 -0.8400  0.9774
  162SOPE  H13S18165   5.962   6.138   9.417 -0.1182  3.0314 -2.5964
  162SOPE  C21418166   5.799   6.276   9.370 -0.6415  0.0178 -0.3393
  162SOPE  H14R18167   5.862   6.364   9.344 -0.0754 -0.4525 -0.5902
  162SOPE  H14S18168   5.705   6.307   9.420  0.2782  1.1263  0.7882
  162SOPE  C21518169   5.758   6.203   9.238 -0.7035  0.3268 -1.1526
  162SOPE  H15R18170   5.673   6.142   9.274  0.2700 -0.0987  0.5849
  162SOPE  H15S18171   5.838   6.141   9.194  0.5033 -0.1142  1.4425
  162SOPE  C21618172   5.686   6.289   9.134 -0.0318  0.2442 -0.0020
  162SOPE  H16R18173   5.766   6.340   9.076  0.5979 -1.4580 -0.6991
  162SOPE  H16S18174   5.617   6.357   9.188 -1.1396  0.4521 -1.6252
  162SOPE  C21718175   5.603   6.209   9.030  0.2158 -0.7152 -1.0556
  162SOPE  H17R18176   5.558   6.282   8.958 -0.9467 -0.7603 -0.4083
  162SOPE  H17S18177   5.518   6.167   9.088  0.3838  2.3963  1.7382
  162SOPE  C21818178   5.686   6.119   8.940  0.1185  0.6527 -0.2112
  162SOPE  H18R18179   5.734   6.040   9.002  0.5505  1.0413 -0.0444
  162SOPE  H18S18180   5.761   6.166   8.873  0.4062 -1.1398 -1.1948
  162SOPE  H18T18181   5.618   6.074   8.864  0.6900 -0.9580  0.1925
  162SOPE   C3318182   6.186   6.950  10.370  0.3253  0.2438 -0.0874
  162SOPE   H3X18183   6.159   6.844  10.391 -0.6130  0.4679 -0.1199
  162SOPE   H3Y18184   6.294   6.975  10.358 -0.0277  1.3147 -1.2471
  162SOPE   C3418185   6.123   6.987  10.235  0.2220  0.0853 -0.3384
  162SOPE   H4X18186   6.175   7.081  10.208  1.7219 -0.6917 -0.2770
  162SOPE   H4Y18187   6.016   7.013  10.249  0.7325  2.9751 -1.2263
  162SOPE   C3518188   6.142   6.887  10.119  0.5511  0.8475 -0.6513
  162SOPE   H5X18189   6.080   6.797  10.139 -3.1195  3.4538  0.6632
  162SOPE   H5Y18190   6.248   6.854  10.124 -0.0957 -1.2107  1.8368
  162SOPE   C3618191   6.110   6.940   9.980  0.2464 -0.6333 -0.2835
  162SOPE   H6X18192   6.006   6.978   9.989  0.4991  0.1339 -0.5189
  162SOPE   H6Y18193   6.112   6.855   9.909  0.3436 -2.2626  1.5783
  162SOPE   C3718194   6.204   7.047   9.942 -0.2714  0.0509  1.1585
  162SOPE   H7X18195   6.312   7.022   9.944  0.7168  3.5808 -0.3675
  162SOPE   H7Y18196   6.182   7.129  10.013  2.3829  1.0559  0.9194
  162SOPE   C3818197   6.168   7.109   9.806  0.7665  0.9587  0.3817
  162SOPE   H8X18198   6.235   7.198   9.798  0.8823  0.8539  0.1929
  162SOPE   H8Y18199   6.066   7.154   9.808 -0.2912 -1.3110  0.1592
  162SOPE   C3918200   6.179   7.019   9.689  0.1872  0.6282 -0.4474
  162SOPE   H9X18201   6.079   6.971   9.678 -0.2183  1.8023 -2.3520
  162SOPE   H9Y18202   6.261   6.946   9.702 -1.2268 -0.8659  0.5015
  162SOPE  C31018203   6.219   7.095   9.560 -0.1127 -1.0715  0.1059
  162SOPE  H10X18204   6.317   7.143   9.579  1.2997 -1.9573 -3.8797
  162SOPE  H10Y18205   6.135   7.166   9.546  0.4538 -0.4118  0.0576
  162SOPE  C31118206   6.233   6.998   9.437  0.1963 -0.1427 -0.2101
  162SOPE  H11X18207   6.136   6.952   9.409  0.8327 -0.9886 -1.1178
  162SOPE  H11Y18208   6.299   6.910   9.456  1.1807  0.5761 -0.2155
  162SOPE  C31218209   6.286   7.080   9.324  0.7334 -0.7522  0.0386
  162SOPE  H12X18210   6.394   7.092   9.343  0.9041  0.0779 -1.3634
  162SOPE  H12Y18211   6.225   7.172   9.315 -1.7481 -1.9509  2.7165
  162SOPE  C31318212   6.266   6.999   9.193  0.2726  0.3031 -0.1549
  162SOPE  H13X18213   6.163   7.012   9.155 -0.2584 -0.6418  0.9297
  162SOPE  H13Y18214   6.265   6.893   9.226 -1.0801 -0.4335 -2.3157
  162SOPE  C31418215   6.376   7.027   9.092 -0.8197  0.6251  0.1423
  162SOPE  H14X18216   6.472   7.021   9.147 -1.1955  0.4620  0.7877
  162SOPE  H14Y18217   6.361   7.123   9.038 -2.4780  0.6009  0.5040
  162SOPE  C31518218   6.384   6.916   8.978 -0.1309 -0.6340 -0.2406
  162SOPE  H15X18219   6.443   6.960   8.895 -1.7258  1.4160 -0.3732
  162SOPE  H15Y18220   6.282   6.887   8.944 -0.9080  0.5040  1.0255
  162SOPE  C31618221   6.438   6.776   9.031 -0.4536  0.0165  0.1433
  162SOPE  H16X18222   6.453   6.717   8.938  3.0813  0.1501  0.4964
  162SOPE  H16Y18223   6.369   6.731   9.106  0.9675 -1.0255  0.8697
  162SOPE  C31718224   6.584   6.797   9.092  0.3396  0.5897  0.1911
  162SOPE  H17X18225   6.576   6.855   9.186 -0.2547  1.7181 -0.5252
  162SOPE  H17Y18226   6.651   6.847   9.018  2.4966 -0.8019  1.1065
  162SOPE  C31818227   6.649   6.664   9.131  0.9270 -0.2484  0.2655
  162SOPE  H18X18228   6.759   6.673   9.119  0.7305  2.3294 -0.0715
  162SOPE  H18Y18229   6.613   6.593   9.053  3.0942 -0.6391 -0.4448
  162SOPE  H18Z18230   6.612   6.635   9.232 -2.0423  1.3070 -0.2722
  163SOPE     N18231   0.984   2.926  11.147 -0.1849  0.1076 -0.0892
  163SOPE   HN118232   1.041   3.012  11.134  1.8058 -1.0885  0.3614
  163SOPE   HN218233   0.910   2.949  11.217  0.5461  0.9177  0.4442
  163SOPE   HN318234   1.041   2.852  11.191 -0.4893  0.3783  0.7858
  163SOPE   C1218235   0.938   2.875  11.010 -0.0403 -0.1236 -0.5471
  163SOPE  H12A18236   0.882   2.954  10.956  1.1901  0.2705 -1.2901
  163SOPE  H12B18237   0.867   2.795  11.039 -0.3406  0.7513  1.2169
  163SOPE   C1118238   1.053   2.828  10.905  0.4921 -0.3117 -0.3734
  163SOPE  H11A18239   0.998   2.791  10.817  0.1241 -0.1521 -0.2140
  163SOPE  H11B18240   1.116   2.748  10.950 -0.2489  0.7610  2.8968
  163SOPE     P18241   1.118   3.056  10.790  0.1680 -0.3548 -0.3442
  163SOPE   O1318242   1.247   3.129  10.779  0.2320 -0.4577  0.1094
  163SOPE   O1418243   1.002   3.129  10.847  0.0247 -0.5647  0.4918
  163SOPE   O1218244   1.144   2.936  10.888  0.0293 -0.6762  0.0948
  163SOPE   O1118245   1.084   2.989  10.651 -0.3688 -0.1318  0.4346
  163SOPE    C118246   1.176   3.009  10.545 -0.5101  0.4799 -0.1159
  163SOPE    HA18247   1.267   2.952  10.574  0.2319  2.9197  2.8059
  163SOPE    HB18248   1.203   3.116  10.533 -0.3924  0.5797  0.9190
  163SOPE    C218249   1.110   2.965  10.411 -0.2561  0.2261 -0.0755
  163SOPE    HS18250   1.189   2.950  10.335  2.7066 -0.5559  2.8908
  163SOPE   O2118251   1.004   3.062  10.370 -0.7253 -0.0340 -1.0443
  163SOPE   C2118252   1.001   3.081  10.239 -0.0968  0.5192  0.1352
  163SOPE   O2218253   1.073   3.019  10.158  0.3560 -0.3124 -0.1929
  163SOPE   C2218254   0.894   3.180  10.200 -0.7747 -0.2056 -0.0082
  163SOPE   H2R18255   0.938   3.275  10.162 -2.2615  0.1774 -0.8722
  163SOPE   H2S18256   0.813   3.189  10.276  0.8854 -1.0102  1.9490
  163SOPE    C318257   1.044   2.832  10.429  0.4888  0.4726  0.7452
  163SOPE    HX18258   0.953   2.860  10.488  1.0941  1.8045  1.0926
  163SOPE    HY18259   1.107   2.759  10.483 -0.0817 -0.7621 -0.2232
  163SOPE   O3118260   0.997   2.776  10.297  0.3738 -0.6087  0.0926
  163SOPE   C3118261   1.097   2.716  10.231  0.3880  0.4720 -0.5366
  163SOPE   O3218262   1.215   2.721  10.265  0.8323  0.1146  0.4768
  163SOPE   C3218263   1.044   2.651  10.110 -0.2588 -0.2431  0.2686
  163SOPE   H2X18264   0.956   2.711  10.077  0.7789  1.2789  0.2112
  163SOPE   H2Y18265   1.012   2.548  10.138  1.1383 -1.1693 -1.3519
  163SOPE   C2318266   0.818   3.130  10.076 -0.3348  0.5765  0.2088
  163SOPE   H3R18267   0.709   3.151  10.084 -1.1582 -1.3574 -3.5611
  163SOPE   H3S18268   0.819   3.019  10.076  0.0469  0.5786 -0.2417
  163SOPE   C2418269   0.860   3.183   9.937 -0.4490  0.6099 -0.2104
  163SOPE   H4R18270   0.863   3.294   9.936 -2.5431  0.7180 -1.4353
  163SOPE   H4S18271   0.946   3.127   9.895  1.4509  5.2891 -3.4289
  163SOPE   C2518272   0.751   3.133   9.847 -0.3070 -0.2380 -0.2201
  163SOPE   H5R18273   0.769   3.025   9.825 -0.3042 -0.1312 -0.7415
  163SOPE   H5S18274   0.653   3.152   9.897  0.6181  0.9765  1.2057
  163SOPE   C2618275   0.764   3.218   9.721 -0.2835 -0.4209 -0.3826
  163SOPE   H6R18276   0.750   3.320   9.763 -0.0920 -1.3733  2.1752
  163SOPE   H6S18277   0.866   3.217   9.677 -1.1395 -4.7930 -2.7725
  163SOPE   C2718278   0.666   3.194   9.605 -0.0318  0.1862 -0.0133
  163SOPE   H7R18279   0.674   3.084   9.592  0.9043 -0.0542  2.1747
  163SOPE   H7S18280   0.563   3.223   9.636 -0.5482 -3.2456  1.9165
  163SOPE   C2818281   0.706   3.263   9.473  0.0113  0.1151 -0.4646
  163SOPE   H8R18282   0.723   3.371   9.496 -0.1997 -0.1352  0.9483
  163SOPE   H8S18283   0.803   3.215   9.446  0.7600  0.0577  2.0140
  163SOPE   C2918284   0.599   3.234   9.370 -0.1286  0.9058 -0.2277
  163SOPE   H9118285   0.501   3.284   9.379 -0.1580  0.8360 -0.1656
  163SOPE  C21018286   0.617   3.163   9.257  0.0979 -0.3223  0.2530
  163SOPE  H10118287   0.526   3.150   9.197  0.5651  2.0781 -1.1179
  163SOPE  C21118288   0.737   3.091   9.209  0.3676 -0.2078  0.2631
  163SOPE  H11R18289   0.812   3.091   9.291 -0.6988  1.1683  1.2739
  163SOPE  H11S18290   0.778   3.140   9.119  0.5086 -1.5591 -0.4408
  163SOPE  C21218291   0.718   2.941   9.178  0.4781 -0.2643  0.8204
  163SOPE  H12R18292   0.637   2.936   9.102  0.4617 -1.3681  0.8958
  163SOPE  H12S18293   0.684   2.884   9.267  0.0509 -0.9560  0.2249
  163SOPE  C21318294   0.851   2.871   9.123  0.3064  0.8018 -0.3580
  163SOPE  H13R18295   0.835   2.761   9.131 -0.3588  1.0383  3.3860
  163SOPE  H13S18296   0.918   2.891   9.209 -2.1401  0.3446  1.7704
  163SOPE  C21418297   0.888   2.925   8.986  0.2940 -0.6936  0.8744
  163SOPE  H14R18298   0.881   3.035   8.994  0.1465 -0.5504 -0.8739
  163SOPE  H14S18299   0.815   2.876   8.917  2.3530 -1.3815 -0.9298
  163SOPE  C21518300   1.016   2.874   8.936  0.0658 -0.0337 -0.1636
  163SOPE  H15R18301   1.030   2.764   8.926 -2.7505 -0.4775 -0.0683
  163SOPE  H15S18302   1.084   2.896   9.021  0.6634 -0.1358 -0.6090
  163SOPE  C21618303   1.080   2.954   8.818 -0.2863  0.0054 -0.0557
  163SOPE  H16R18304   1.183   2.985   8.848  0.0568 -0.7647 -0.4082
  163SOPE  H16S18305   1.019   3.038   8.779 -1.3624  0.2415  2.0277
  163SOPE  C21718306   1.111   2.858   8.703 -0.4875  0.6127 -0.5890
  163SOPE  H17R18307   1.025   2.798   8.664 -1.1457  0.2482  1.3017
  163SOPE  H17S18308   1.178   2.780   8.746  0.7328  2.1106  0.3233
  163SOPE  C21818309   1.194   2.921   8.591 -0.3827  0.2698  0.6161
  163SOPE  H18R18310   1.166   3.021   8.551 -1.9150 -0.7730 -0.9964
  163SOPE  H18S18311   1.219   2.848   8.511  0.6258  0.2860  0.8919
  163SOPE  H18T18312   1.298   2.942   8.625  0.4039 -0.5659 -1.1706
  163SOPE   C3318313   1.146   2.620   9.996 -0.3891 -0.3337  0.5182
  163SOPE   H3X18314   1.125   2.522   9.949  2.0032 -0.0642 -1.3292
  163SOPE   H3Y18315   1.251   2.607  10.027 -0.4879 -0.1854  0.9132
  163SOPE   C3418316   1.156   2.734   9.890 -0.4579  0.1783 -0.7417
  163SOPE   H4X18317   1.261   2.719   9.856  0.1707 -1.6578  1.6678
  163SOPE   H4Y18318   1.141   2.834   9.936  1.2250  0.2859 -0.3518
  163SOPE   C3518319   1.062   2.724   9.765  0.4334  0.4928 -0.1962
  163SOPE   H5X18320   0.959   2.724   9.807 -0.5553 -2.8256 -2.2127
  163SOPE   H5Y18321   1.089   2.636   9.703  0.6492 -0.5820  1.3550
  163SOPE   C3618322   1.075   2.859   9.684  0.2656  0.0199  0.0433
  163SOPE   H6X18323   1.168   2.857   9.623 -0.1366 -1.4591 -0.5610
  163SOPE   H6Y18324   1.069   2.939   9.761  0.9715 -1.3460  1.5698
  163SOPE   C3718325   0.951   2.871   9.591  0.6258 -0.2859  0.7403
  163SOPE   H7X18326   0.940   2.974   9.552 -1.3258 -0.2489  1.3102
  163SOPE   H7Y18327   0.862   2.858   9.656  1.1783 -2.4747  1.1546
  163SOPE   C3818328   0.936   2.759   9.488 -0.6222 -0.5972  0.0673
  163SOPE   H8X18329   0.872   2.790   9.403  0.7332  0.7152 -0.5228
  163SOPE   H8Y18330   0.878   2.680   9.541 -0.4508 -0.0602  1.0759
  163SOPE   C3918331   1.059   2.711   9.407  0.4105 -0.1102  0.1045
  163SOPE   H9X18332   1.126   2.662   9.481  0.9551  1.1771  0.5129
  163SOPE   H9Y18333   1.114   2.803   9.375  0.5110  0.0405  0.6862
  163SOPE  C31018334   1.039   2.620   9.294  0.0757  0.1909  0.3534
  163SOPE  H10X18335   0.949   2.653   9.239  1.0004  1.1080 -0.6751
  163SOPE  H10Y18336   1.016   2.523   9.343  0.5051 -0.1230 -0.0532
  163SOPE  C31118337   1.155   2.607   9.187  0.5975  0.2069 -0.4191
  163SOPE  H11X18338   1.241   2.556   9.235  0.7951  0.3391 -0.6309
  163SOPE  H11Y18339   1.185   2.711   9.162  2.4064  0.0215  0.7444
  163SOPE  C31218340   1.122   2.526   9.065 -0.2069  0.4734 -0.3617
  163SOPE  H12X18341   1.042   2.570   9.001  1.0240  1.7871 -1.0685
  163SOPE  H12Y18342   1.096   2.420   9.082  2.4374 -0.1034  0.6418
  163SOPE  C31318343   1.250   2.518   8.969  0.7909 -0.0042 -0.2781
  163SOPE  H13X18344   1.336   2.466   9.017  0.7424 -2.6889 -2.8231
  163SOPE  H13Y18345   1.276   2.622   8.942  0.3093  0.5948  1.4174
  163SOPE  C31418346   1.231   2.431   8.840  0.5700 -0.1506  0.0650
  163SOPE  H14X18347   1.162   2.475   8.765 -0.2371 -1.4671 -0.0034
  163SOPE  H14Y18348   1.191   2.334   8.876  0.9863  0.5030  2.4381
  163SOPE  C31518349   1.364   2.400   8.764  0.0275 -0.1949 -0.6523
  163SOPE  H15X18350   1.432   2.340   8.828  0.9876 -1.4419 -2.7421
  163SOPE  H15Y18351   1.410   2.500   8.747 -0.4867 -0.2956 -2.9371
  163SOPE  C31618352   1.345   2.324   8.626 -0.4602  0.8331 -0.0752
  163SOPE  H16X18353   1.290   2.381   8.547  0.0144  0.4861 -0.6637
  163SOPE  H16Y18354   1.276   2.240   8.646  1.5634 -0.6730  0.9621
  163SOPE  C31718355   1.483   2.279   8.577 -0.5814 -0.1191  0.6135
  163SOPE  H17X18356   1.547   2.239   8.659  0.7420 -1.4567 -0.9801
  163SOPE  H17Y18357   1.535   2.366   8.532  0.5043  0.0337  2.0746
  163SOPE  C31818358   1.482   2.168   8.477  0.2695 -0.0625 -0.0508
  163SOPE  H18X18359   1.455   2.068   8.518  0.3168  1.0353  2.8447
  163SOPE  H18Y18360   1.576   2.164   8.418  0.5048  5.4491 -0.5926
  163SOPE  H18Z18361   1.405   2.198   8.402 -1.0772 -2.1992  0.3821
  164SOPE     N18362   3.243   2.635  10.778 -0.1571  0.3146  0.0897
  164SOPE   HN118363   3.321   2.704  10.779  0.0853  0.0420  0.9212
  164SOPE   HN218364   3.187   2.665  10.860 -1.2821 -0.4147 -0.3837
  164SOPE   HN318365   3.287   2.541  10.793 -0.3361 -0.1653 -1.9853
  164SOPE   C1218366   3.176   2.633  10.651 -0.5553 -0.4432 -0.7532
  164SOPE  H12A18367   3.204   2.540  10.597  0.0186 -1.6359  1.5091
  164SOPE  H12B18368   3.218   2.715  10.587  0.6687  0.5259  1.1850
  164SOPE   C1118369   3.021   2.647  10.673  0.1072  0.1312  0.8104
  164SOPE  H11A18370   2.986   2.694  10.579 -0.7852  0.0455  1.0903
  164SOPE  H11B18371   3.006   2.713  10.762  1.3559 -0.6908  1.6735
  164SOPE     P18372   2.817   2.505  10.729 -0.3445  0.0778  0.1209
  164SOPE   O1318373   2.798   2.512  10.879  0.5946  0.4239 -0.1312
  164SOPE   O1418374   2.756   2.388  10.668 -0.1889  0.4728 -0.4662
  164SOPE   O1218375   2.967   2.517  10.693  0.0947 -0.4437 -0.3672
  164SOPE   O1118376   2.744   2.632  10.659 -0.4042  0.6281  0.6653
  164SOPE    C118377   2.624   2.634  10.587 -0.6782 -0.1518  0.6948
  164SOPE    HA18378   2.538   2.660  10.651 -0.8167 -2.0831  1.3482
  164SOPE    HB18379   2.592   2.531  10.562  0.2070  0.2137 -2.5545
  164SOPE    C218380   2.642   2.717  10.455  0.1847 -0.3085 -1.0091
  164SOPE    HS18381   2.567   2.678  10.382 -0.4347 -1.8441  0.3951
  164SOPE   O2118382   2.770   2.693  10.387 -0.3419 -0.7694 -0.3655
  164SOPE   C2118383   2.780   2.577  10.328 -0.3070  0.2553 -0.3697
  164SOPE   O2218384   2.688   2.498  10.310  0.2927 -0.0840  0.3860
  164SOPE   C2218385   2.917   2.552  10.269 -0.6695 -0.3415  0.0839
  164SOPE   H2R18386   2.965   2.469  10.325 -1.0451  0.8325  2.2355
  164SOPE   H2S18387   2.985   2.635  10.298 -1.7125  1.6709 -2.7399
  164SOPE    C318388   2.618   2.874  10.473  0.1503  0.3642  0.4881
  164SOPE    HX18389   2.715   2.915  10.509 -0.2973  1.5218  0.3987
  164SOPE    HY18390   2.538   2.882  10.550  0.9663 -0.8662  1.5184
  164SOPE   O3118391   2.579   2.926  10.343  0.6374 -0.0421 -0.2386
  164SOPE   C3118392   2.660   3.007  10.285  0.0631  0.1574  0.2869
  164SOPE   O3218393   2.777   3.028  10.310  0.4269 -0.3047 -0.9910
  164SOPE   C3218394   2.577   3.085  10.174 -0.5082  0.1892 -0.1172
  164SOPE   H2X18395   2.617   3.189  10.171 -1.8320  0.7150 -0.2584
  164SOPE   H2Y18396   2.470   3.080  10.203 -0.6886  0.8494 -0.6520
  164SOPE   C2318397   2.908   2.535  10.111  0.0528  0.2206  0.3921
  164SOPE   H3R18398   2.826   2.463  10.089  1.3518 -1.0215 -0.5437
  164SOPE   H3S18399   2.997   2.492  10.062  0.0998  1.7121 -0.9083
  164SOPE   C2418400   2.850   2.657  10.039  0.4720  0.4980  0.6767
  164SOPE   H4R18401   2.757   2.696  10.085  0.5374  0.5207  0.7893
  164SOPE   H4S18402   2.925   2.738  10.033  0.4335  0.4333 -1.3609
  164SOPE   C2518403   2.833   2.625   9.890 -0.2627  0.6343 -0.4639
  164SOPE   H5R18404   2.755   2.547   9.878  1.2278 -1.1450  0.7927
  164SOPE   H5S18405   2.771   2.713   9.865  1.4454  2.5200  1.5892
  164SOPE   C2618406   2.952   2.591   9.811  0.0232  0.7349  0.4498
  164SOPE   H6R18407   3.023   2.676   9.820  1.8040 -0.4492 -1.4069
  164SOPE   H6S18408   3.010   2.508   9.857  0.7966  1.5810  1.0438
  164SOPE   C2718409   2.922   2.577   9.660  0.3627  0.6196 -0.5259
  164SOPE   H7R18410   2.831   2.515   9.645  1.6828 -1.4151 -0.4875
  164SOPE   H7S18411   2.895   2.679   9.623 -1.3299  0.0935 -0.8683
  164SOPE   C2818412   3.044   2.537   9.580 -0.1114  0.3107  0.1371
  164SOPE   H8R18413   3.122   2.616   9.580 -1.2721  1.4949  0.0589
  164SOPE   H8S18414   3.104   2.460   9.634 -0.5324  0.1975  0.4537
  164SOPE   C2918415   3.004   2.480   9.444  0.5106 -0.4351 -0.6897
  164SOPE   H9118416   2.959   2.380   9.450  0.2776 -0.2692  0.5785
  164SOPE  C21018417   2.998   2.547   9.324  0.3636  0.7933 -0.0417
  164SOPE  H10118418   2.977   2.484   9.237  1.3217  0.1117  0.1996
  164SOPE  C21118419   3.041   2.689   9.288 -0.0896 -0.4429 -0.3713
  164SOPE  H11R18420   3.080   2.740   9.378 -1.1095 -0.6550  0.2117
  164SOPE  H11S18421   2.945   2.730   9.248 -0.0417 -0.8957 -0.9644
  164SOPE  C21218422   3.146   2.693   9.174 -0.0083  1.1671  0.9124
  164SOPE  H12R18423   3.238   2.634   9.195 -0.0005 -0.0185 -2.0052
  164SOPE  H12S18424   3.169   2.801   9.158 -0.2286  0.9809 -0.8350
  164SOPE  C21318425   3.098   2.647   9.035  0.0914 -0.2379 -0.0082
  164SOPE  H13R18426   3.008   2.702   8.999  1.1820  1.6839  0.0601
  164SOPE  H13S18427   3.087   2.537   9.027  1.4508 -0.2509 -2.9085
  164SOPE  C21418428   3.197   2.681   8.925 -0.0123 -0.1381 -0.2345
  164SOPE  H14R18429   3.287   2.620   8.947 -1.5931 -2.7504 -0.5863
  164SOPE  H14S18430   3.215   2.791   8.921 -1.5134  0.1375 -0.3340
  164SOPE  C21518431   3.138   2.647   8.783  0.6670  0.1436  0.2298
  164SOPE  H15R18432   3.038   2.687   8.754 -0.4985 -2.3462  0.4611
  164SOPE  H15S18433   3.131   2.536   8.775  0.1091  0.0671  1.5122
  164SOPE  C21618434   3.239   2.704   8.681 -0.5883 -0.1079  0.0473
  164SOPE  H16R18435   3.226   2.647   8.587 -0.5494 -0.0031 -0.0211
  164SOPE  H16S18436   3.341   2.686   8.721 -0.8480  0.5389  1.0467
  164SOPE  C21718437   3.214   2.851   8.625 -0.1957 -0.4597 -0.3565
  164SOPE  H17R18438   3.241   2.927   8.702  1.7578 -1.2764 -0.1716
  164SOPE  H17S18439   3.108   2.867   8.597  0.0659 -0.0160 -1.1124
  164SOPE  C21818440   3.288   2.881   8.498  0.1625  0.0211 -0.8891
  164SOPE  H18R18441   3.242   2.841   8.405  0.5777  0.6079 -1.3645
  164SOPE  H18S18442   3.390   2.838   8.505 -0.7190 -1.9905  0.2805
  164SOPE  H18T18443   3.299   2.989   8.471  2.2952 -0.4827 -2.3619
  164SOPE   C3318444   2.607   3.023  10.036 -0.3273 -0.0135 -0.4159
  164SOPE   H3X18445   2.717   3.008  10.029 -0.0514  1.5461  0.0515
  164SOPE   H3Y18446   2.561   3.090   9.960  0.9416  2.3656  0.7785
  164SOPE   C3418447   2.524   2.890  10.017 -0.3183 -0.1092  0.2623
  164SOPE   H4X18448   2.420   2.888  10.054 -0.6979 -1.0256 -0.7933
  164SOPE   H4Y18449   2.585   2.807  10.059 -0.8587 -2.1598 -2.6398
  164SOPE   C3518450   2.513   2.859   9.864  0.1132 -0.9296  0.5081
  164SOPE   H5X18451   2.612   2.862   9.812  0.8492 -0.4491  1.8930
  164SOPE   H5Y18452   2.449   2.940   9.823  0.0614 -1.9888 -1.6378
  164SOPE   C3618453   2.442   2.733   9.825 -0.1211  0.2732 -0.5025
  164SOPE   H6X18454   2.359   2.735   9.899  0.3519  1.6985  0.0123
  164SOPE   H6Y18455   2.505   2.645   9.850  2.3252  2.2146  0.5552
  164SOPE   C3718456   2.408   2.739   9.679  0.4450 -0.1432  0.6068
  164SOPE   H7X18457   2.360   2.837   9.658 -0.9515 -1.0455 -0.6147
  164SOPE   H7Y18458   2.327   2.666   9.657  0.3269  0.4340 -0.9656
  164SOPE   C3818459   2.526   2.698   9.587 -0.1069  0.3984 -0.1276
  164SOPE   H8X18460   2.547   2.592   9.611 -1.4472  0.0099 -0.5541
  164SOPE   H8Y18461   2.618   2.757   9.607  1.9668 -2.9716  0.9356
  164SOPE   C3918462   2.493   2.702   9.437  0.3563 -0.2288  0.6083
  164SOPE   H9X18463   2.475   2.810   9.416 -0.5896  0.1283  2.9997
  164SOPE   H9Y18464   2.400   2.640   9.432  0.1610 -0.0988  2.2991
  164SOPE  C31018465   2.593   2.637   9.344 -0.2409 -0.1528  0.6177
  164SOPE  H10X18466   2.616   2.536   9.383  0.8103 -0.3310 -0.4108
  164SOPE  H10Y18467   2.686   2.697   9.355  0.1860 -0.7528  0.3078
  164SOPE  C31118468   2.546   2.643   9.196 -0.1058 -0.2583  1.0907
  164SOPE  H11X18469   2.517   2.742   9.153  2.4295 -0.0110 -0.2634
  164SOPE  H11Y18470   2.456   2.579   9.201 -1.0789  1.1177  2.2545
  164SOPE  C31218471   2.634   2.585   9.092 -0.6510 -0.0164  0.5114
  164SOPE  H12X18472   2.715   2.654   9.061 -0.3717 -0.9710 -1.0140
  164SOPE  H12Y18473   2.580   2.567   8.997  2.7026 -1.4459 -1.3136
  164SOPE  C31318474   2.707   2.452   9.125  0.2946  0.5646 -0.6091
  164SOPE  H13X18475   2.639   2.366   9.147 -1.7453  1.3531 -3.3340
  164SOPE  H13Y18476   2.766   2.464   9.219  1.0335  2.5745 -1.2787
  164SOPE  C31418477   2.800   2.402   9.018  0.5675  0.4089 -1.5870
  164SOPE  H14X18478   2.859   2.316   9.055  0.4099  1.6468  1.9054
  164SOPE  H14Y18479   2.879   2.480   9.005  2.2123 -1.0035 -0.4902
  164SOPE  C31518480   2.736   2.371   8.884 -0.0202  0.4652  0.3696
  164SOPE  H15X18481   2.691   2.459   8.832 -0.2728 -1.0386 -2.1314
  164SOPE  H15Y18482   2.648   2.305   8.899  1.3477 -0.9204  3.0372
  164SOPE  C31618483   2.835   2.302   8.788  0.0285  0.1692  0.4521
  164SOPE  H16X18484   2.875   2.210   8.836  1.9422  1.3571  1.2412
  164SOPE  H16Y18485   2.927   2.360   8.766 -1.2369  1.9669 -0.4131
  164SOPE  C31718486   2.775   2.261   8.650 -0.3557  1.3077 -0.1664
  164SOPE  H17X18487   2.739   2.349   8.592  2.1824  1.5010 -1.5850
  164SOPE  H17Y18488   2.691   2.189   8.661 -0.1668  0.7775 -1.8743
  164SOPE  C31818489   2.881   2.183   8.567 -0.5036  0.1334 -0.6334
  164SOPE  H18X18490   2.843   2.091   8.517 -1.6525  1.1526 -1.7086
  164SOPE  H18Y18491   2.956   2.143   8.639  1.4036  2.1280 -1.3634
  164SOPE  H18Z18492   2.942   2.252   8.504 -0.8427  1.6312  0.6286
  165SOPE     N18493   1.746   2.923  11.121  0.7466 -0.3251 -0.1521
  165SOPE   HN118494   1.661   2.963  11.167  1.3625  0.8988 -0.0644
  165SOPE   HN218495   1.742   2.819  11.121  1.0456 -0.4092  2.4420
  165SOPE   HN318496   1.829   2.949  11.177  0.0180  0.9296  0.3981
  165SOPE   C1218497   1.758   2.977  10.982  0.4132 -0.1573  0.2197
  165SOPE  H12A18498   1.831   3.060  10.980  1.1148 -0.7609 -0.0972
  165SOPE  H12B18499   1.660   3.005  10.937  1.4893  2.2609 -0.7979
  165SOPE   C1118500   1.827   2.869  10.897 -0.0867 -0.5029  0.0938
  165SOPE  H11A18501   1.833   2.901  10.791 -1.9397 -1.1103 -0.2316
  165SOPE  H11B18502   1.753   2.786  10.896  1.6842 -2.1824  1.2990
  165SOPE     P18503   2.083   2.889  10.921  0.1447 -0.3169 -0.4545
  165SOPE   O1318504   2.198   2.855  11.007  0.4380  0.3484 -0.6298
  165SOPE   O1418505   2.052   3.034  10.922  0.4002  0.2531 -0.2816
  165SOPE   O1218506   1.952   2.813  10.955  0.0084 -0.5147  0.1402
  165SOPE   O1118507   2.106   2.843  10.766 -0.0117  0.3055 -1.0797
  165SOPE    C118508   2.140   2.709  10.740  0.6320  0.6300 -0.4135
  165SOPE    HA18509   2.105   2.641  10.821 -0.9383 -0.2181 -1.7536
  165SOPE    HB18510   2.251   2.700  10.733  0.6339 -1.1977  1.0807
  165SOPE    C218511   2.078   2.659  10.609  0.6257  0.0124  0.4776
  165SOPE    HS18512   2.102   2.553  10.585  0.2055 -0.4923  2.1901
  165SOPE   O2118513   2.112   2.744  10.500  0.2211  0.1976 -0.5228
  165SOPE   C2118514   2.235   2.735  10.458  0.0882 -0.1402  0.2556
  165SOPE   O2218515   2.322   2.659  10.499  0.0339  0.6820 -0.3020
  165SOPE   C2218516   2.251   2.842  10.345  0.1931 -0.0876  0.4401
  165SOPE   H2R18517   2.316   2.803  10.264  0.7234  0.8277  0.4160
  165SOPE   H2S18518   2.306   2.927  10.389  0.9273 -0.9994  1.3183
  165SOPE    C318519   1.921   2.652  10.617  0.2909 -0.3323  0.2278
  165SOPE    HX18520   1.885   2.755  10.597  1.7644  0.4543  1.4157
  165SOPE    HY18521   1.900   2.605  10.716  4.1093 -0.7895  0.9678
  165SOPE   O3118522   1.873   2.571  10.508  0.5007 -0.5143  0.5062
  165SOPE   C3118523   1.807   2.461  10.539 -0.4515 -0.2417 -0.6726
  165SOPE   O3218524   1.786   2.414  10.647  0.2238 -0.0136  0.1039
  165SOPE   C3218525   1.764   2.389  10.412  0.3728 -0.2407 -0.4193
  165SOPE   H2X18526   1.687   2.316  10.443 -1.1067  2.1840  2.0232
  165SOPE   H2Y18527   1.845   2.333  10.361 -0.0587 -3.1496  1.8094
  165SOPE   C2318528   2.123   2.888  10.273  0.6895 -1.0394  0.3799
  165SOPE   H3R18529   2.147   2.980  10.216 -0.2100 -0.0821  1.4743
  165SOPE   H3S18530   2.053   2.928  10.350  0.1193  0.2703 -0.7974
  165SOPE   C2418531   2.040   2.789  10.186 -0.5666  0.4355  0.3615
  165SOPE   H4R18532   2.013   2.704  10.252  1.5021  0.0322  0.7470
  165SOPE   H4S18533   1.945   2.837  10.153 -0.4028 -0.4866 -1.6110
  165SOPE   C2518534   2.118   2.737  10.058  0.6117 -0.1737 -0.9630
  165SOPE   H5R18535   2.161   2.830  10.016 -3.0640  1.8388 -0.7531
  165SOPE   H5S18536   2.202   2.675  10.096  1.8159  2.6099  1.3151
  165SOPE   C2618537   2.032   2.677   9.957  0.5174  0.2706  0.5985
  165SOPE   H6R18538   1.998   2.575   9.983  1.9339 -0.2208  0.5984
  165SOPE   H6S18539   1.937   2.732   9.940 -1.3046 -3.5488 -3.5366
  165SOPE   C2718540   2.101   2.658   9.815  1.2440 -0.4161 -0.7041
  165SOPE   H7R18541   2.138   2.759   9.788  0.6841 -0.0765 -0.2157
  165SOPE   H7S18542   2.191   2.593   9.822 -0.2755 -2.4648  2.1535
  165SOPE   C2818543   2.002   2.585   9.721  0.3221  0.5230  0.6924
  165SOPE   H8R18544   2.053   2.514   9.653 -0.7250 -0.1760  0.6130
  165SOPE   H8S18545   1.938   2.520   9.784  2.1517 -0.6489  1.4393
  165SOPE   C2918546   1.910   2.678   9.640 -0.4281 -0.1099  0.1034
  165SOPE   H9118547   1.821   2.720   9.689 -2.3174 -3.2524 -0.3516
  165SOPE  C21018548   1.917   2.707   9.510 -0.3835 -0.4244 -0.1489
  165SOPE  H10118549   1.842   2.769   9.459 -0.2686  0.0116  0.2109
  165SOPE  C21118550   2.023   2.643   9.428 -0.6148  0.1808 -0.1336
  165SOPE  H11R18551   1.999   2.534   9.424  0.9184 -0.2845  1.8440
  165SOPE  H11S18552   2.123   2.646   9.475 -0.8100 -1.8464  0.5257
  165SOPE  C21218553   2.033   2.670   9.273  0.2201  0.0158 -0.3310
  165SOPE  H12R18554   2.052   2.776   9.245 -1.2125  0.2653 -0.4249
  165SOPE  H12S18555   1.937   2.639   9.227 -0.8651 -0.2636  1.9862
  165SOPE  C21318556   2.148   2.582   9.207  0.7036 -0.0554  0.5960
  165SOPE  H13R18557   2.097   2.484   9.201  2.1547 -0.9449  1.8774
  165SOPE  H13S18558   2.249   2.575   9.254  0.2114 -5.1779  1.4342
  165SOPE  C21418559   2.157   2.644   9.063 -0.6527  0.5329  0.6227
  165SOPE  H14R18560   2.217   2.737   9.077  1.4159 -0.1326 -2.6097
  165SOPE  H14S18561   2.054   2.657   9.024 -0.3380  2.0091  0.2404
  165SOPE  C21518562   2.243   2.558   8.968 -0.1354 -0.3788 -0.2313
  165SOPE  H15R18563   2.197   2.457   8.964 -1.9808  0.4009 -0.0706
  165SOPE  H15S18564   2.345   2.542   9.008 -0.5396 -1.0800  0.5566
  165SOPE  C21618565   2.261   2.617   8.827  0.0789  0.6406  0.2508
  165SOPE  H16R18566   2.307   2.718   8.826 -1.4252  1.3815  1.0568
  165SOPE  H16S18567   2.161   2.630   8.779 -1.1899  0.7964  2.7613
  165SOPE  C21718568   2.336   2.518   8.736 -0.0105  0.0377  0.6139
  165SOPE  H17R18569   2.289   2.417   8.745 -1.4828  0.5359 -0.9153
  165SOPE  H17S18570   2.442   2.503   8.764  0.6129  2.9856  0.0859
  165SOPE  C21818571   2.337   2.559   8.586 -1.0739 -0.6855 -0.1683
  165SOPE  H18R18572   2.395   2.654   8.587 -1.4930 -0.3037  3.7058
  165SOPE  H18S18573   2.236   2.585   8.550 -1.5882 -1.3415  0.7755
  165SOPE  H18T18574   2.383   2.485   8.517 -2.7155 -2.1272  0.2122
  165SOPE   C3318575   1.710   2.483  10.301 -0.7210  0.3792 -0.0294
  165SOPE   H3X18576   1.795   2.552  10.282 -1.2611  1.0062 -0.2071
  165SOPE   H3Y18577   1.620   2.538  10.337 -0.5064 -0.5168  1.9895
  165SOPE   C3418578   1.692   2.422  10.157  0.2292 -0.4048 -0.4975
  165SOPE   H4X18579   1.613   2.345  10.155 -1.4898  1.2624  0.1601
  165SOPE   H4Y18580   1.788   2.381  10.119 -0.5913 -1.3317 -1.6315
  165SOPE   C3518581   1.643   2.541  10.067 -0.2728  0.0990 -0.0891
  165SOPE   H5X18582   1.723   2.618  10.071  0.7574 -0.9500  0.0183
  165SOPE   H5Y18583   1.551   2.584  10.112 -0.2973 -2.2839  2.3838
  165SOPE   C3618584   1.604   2.498   9.924 -0.2538  0.0727  0.1901
  165SOPE   H6X18585   1.526   2.419   9.931 -1.2050  1.1091  1.8953
  165SOPE   H6Y18586   1.690   2.438   9.887  1.0986  0.8357  1.9556
  165SOPE   C3718587   1.558   2.601   9.820 -0.0811  0.3098 -0.1329
  165SOPE   H7X18588   1.616   2.693   9.802 -0.9669  1.3407  1.9457
  165SOPE   H7Y18589   1.454   2.632   9.845 -0.1471  0.2466 -0.3197
  165SOPE   C3818590   1.564   2.513   9.688 -0.3852 -0.0910 -0.2789
  165SOPE   H8X18591   1.502   2.421   9.695  1.9906 -1.7804 -0.3279
  165SOPE   H8Y18592   1.663   2.468   9.667  0.1941  0.9898  0.0965
  165SOPE   C3918593   1.523   2.600   9.573  0.4214  0.5826  0.1945
  165SOPE   H9X18594   1.560   2.705   9.573  1.7795  0.2540 -3.4312
  165SOPE   H9Y18595   1.413   2.609   9.567  0.6438  5.6365 -0.8110
  165SOPE  C31018596   1.571   2.539   9.438 -0.3690 -0.7906  0.4132
  165SOPE  H10X18597   1.535   2.434   9.435  0.0587 -0.9764  1.3471
  165SOPE  H10Y18598   1.681   2.528   9.436 -0.2486  0.3264  0.3364
  165SOPE  C31118599   1.537   2.635   9.322  0.5745 -0.4084 -0.2101
  165SOPE  H11X18600   1.579   2.737   9.338 -0.7221 -0.1667  2.3226
  165SOPE  H11Y18601   1.428   2.640   9.302  0.6683  1.7091 -0.4240
  165SOPE  C31218602   1.589   2.587   9.190  0.1530  0.6597 -0.0258
  165SOPE  H12X18603   1.529   2.496   9.168 -1.6721  1.1579  2.3570
  165SOPE  H12Y18604   1.695   2.558   9.181  0.1771  0.7593 -0.0662
  165SOPE  C31318605   1.563   2.688   9.076  0.0019  0.6330 -0.2791
  165SOPE  H13X18606   1.600   2.789   9.105  0.7481  0.7075 -1.4300
  165SOPE  H13Y18607   1.457   2.709   9.051  0.2349  2.3141  0.0610
  165SOPE  C31418608   1.632   2.644   8.945 -0.2531  0.7140 -0.3280
  165SOPE  H14X18609   1.597   2.543   8.914  0.6573  0.4826 -0.6478
  165SOPE  H14Y18610   1.743   2.640   8.954 -0.2106 -0.9532 -1.1768
  165SOPE  C31518611   1.599   2.740   8.827  0.3893  0.5055 -0.2006
  165SOPE  H15X18612   1.618   2.843   8.863  0.7048  0.5014 -0.3472
  165SOPE  H15Y18613   1.491   2.732   8.805  0.5996  0.8960 -1.4535
  165SOPE  C31618614   1.685   2.696   8.713 -0.3760 -0.0399  0.7811
  165SOPE  H16X18615   1.670   2.586   8.704  1.0502 -0.2834  1.0646
  165SOPE  H16Y18616   1.789   2.720   8.744  0.9519 -2.2436 -1.5855
  165SOPE  C31718617   1.660   2.763   8.573  0.0499 -0.5441  0.2021
  165SOPE  H17X18618   1.751   2.736   8.515 -1.4074 -1.7326 -1.6071
  165SOPE  H17Y18619   1.661   2.872   8.595  1.9647 -0.7755  1.5452
  165SOPE  C31818620   1.528   2.727   8.516  0.5527 -0.1528  0.0193
  165SOPE  H18X18621   1.457   2.744   8.599  0.7149 -1.5436  0.4704
  165SOPE  H18Y18622   1.518   2.620   8.486  0.9534  0.0558 -0.9243
  165SOPE  H18Z18623   1.494   2.797   8.436 -1.3633  0.1625  1.0697
  166SOPE     N18624   6.186   3.557  10.602  0.3243  0.5441  0.3847
  166SOPE   HN118625   6.100   3.518  10.644 -2.4118  4.6131 -0.8829
  166SOPE   HN218626   6.211   3.644  10.653  1.0721  2.5410 -3.0538
  166SOPE   HN318627   6.174   3.579  10.501  1.3141 -0.2224  0.0807
  166SOPE   C1218628   6.303   3.467  10.633 -0.5268 -0.6775 -0.2555
  166SOPE  H12A18629   6.301   3.472  10.744 -0.0318 -0.4714 -0.2542
  166SOPE  H12B18630   6.400   3.509  10.601  0.4617 -2.1131  0.7279
  166SOPE   C1118631   6.283   3.317  10.593 -0.0584 -0.3889  0.0208
  166SOPE  H11A18632   6.365   3.256  10.637  0.4146 -0.1112 -0.4657
  166SOPE  H11B18633   6.289   3.299  10.484  1.6056  0.9483 -0.1526
  166SOPE     P18634   6.103   3.139  10.629  0.1446  0.3489 -0.2867
  166SOPE   O1318635   6.022   3.112  10.750 -0.4982 -0.0220  0.2435
  166SOPE   O1418636   6.224   3.051  10.608  0.0331 -0.0258 -0.4692
  166SOPE   O1218637   6.158   3.283  10.649  0.1066 -0.1767 -0.5749
  166SOPE   O1118638   6.016   3.149  10.496 -0.0092  0.3731 -0.4291
  166SOPE    C118639   5.914   3.238  10.469 -0.3911 -0.5393  0.2621
  166SOPE    HA18640   5.930   3.343  10.504 -0.6687 -0.0630 -0.9955
  166SOPE    HB18641   5.819   3.208  10.517 -1.2889  1.6169 -0.0583
  166SOPE    C218642   5.891   3.258  10.315  0.3669  0.8150 -0.2279
  166SOPE    HS18643   5.861   3.363  10.294  1.8149  0.9059 -2.2364
  166SOPE   O2118644   5.793   3.164  10.271  0.2797  0.6562  0.3689
  166SOPE   C2118645   5.705   3.210  10.184 -0.0506 -0.1034 -0.4941
  166SOPE   O2218646   5.700   3.323  10.145 -0.2602 -0.2060  0.2142
  166SOPE   C2218647   5.619   3.091  10.124 -0.0837 -0.2072  0.4238
  166SOPE   H2R18648   5.565   3.048  10.211  0.0616  0.2282  0.7323
  166SOPE   H2S18649   5.705   3.023  10.107  1.4055  1.5363  0.7153
  166SOPE    C318650   6.023   3.244  10.231 -0.4633 -0.0906 -0.1538
  166SOPE    HX18651   6.045   3.135  10.230 -0.7145 -0.1450 -0.0200
  166SOPE    HY18652   6.107   3.282  10.293 -0.3494  1.0370 -0.9694
  166SOPE   O3118653   6.022   3.292  10.098  0.3024 -0.1468 -0.0025
  166SOPE   C3118654   6.044   3.422  10.084  0.5947  0.4749  0.2013
  166SOPE   O3218655   6.088   3.499  10.171 -0.5841 -0.3006  0.2144
  166SOPE   C3218656   6.007   3.466   9.943 -0.0209  0.2353 -0.2010
  166SOPE   H2X18657   5.905   3.426   9.924  0.3016 -0.3087 -0.8183
  166SOPE   H2Y18658   6.074   3.411   9.873  1.5164  3.0756 -1.1205
  166SOPE   C2318659   5.527   3.124  10.001 -0.0238  0.2547 -0.2716
  166SOPE   H3R18660   5.464   3.211  10.030 -3.0675 -2.0858  0.5969
  166SOPE   H3S18661   5.459   3.037   9.993 -2.3708  2.0363 -1.1243
  166SOPE   C2418662   5.606   3.144   9.869 -0.3702  0.6973  0.3326
  166SOPE   H4R18663   5.537   3.155   9.782 -1.0345 -1.2787  0.5727
  166SOPE   H4S18664   5.674   3.230   9.883  1.4840 -0.6099 -0.2908
  166SOPE   C2518665   5.703   3.031   9.826  0.0284  0.4778 -0.3971
  166SOPE   H5R18666   5.753   3.070   9.734  1.0052 -1.8907 -0.9398
  166SOPE   H5S18667   5.777   3.018   9.908  0.5525  1.9445 -0.5962
  166SOPE   C2618668   5.637   2.897   9.783  0.1561  0.7624 -0.9217
  166SOPE   H6R18669   5.561   2.879   9.861  0.9552  0.6444 -0.1606
  166SOPE   H6S18670   5.599   2.898   9.678  0.0803 -2.8384 -1.0447
  166SOPE   C2718671   5.737   2.784   9.793  0.4771  0.2100 -0.3229
  166SOPE   H7R18672   5.841   2.816   9.768  0.1976  2.8652  1.4924
  166SOPE   H7S18673   5.757   2.740   9.893  0.4017 -1.5456 -1.0420
  166SOPE   C2818674   5.697   2.665   9.707  0.3129 -0.1947  0.5408
  166SOPE   H8R18675   5.601   2.617   9.738  0.8125 -2.6230 -1.3440
  166SOPE   H8S18676   5.680   2.693   9.601  0.7521  0.2292  0.5780
  166SOPE   C2918677   5.812   2.568   9.714  0.0528 -0.7458  0.1086
  166SOPE   H9118678   5.853   2.556   9.816 -0.2087 -2.4306  0.0429
  166SOPE  C21018679   5.846   2.482   9.615 -0.3249 -0.2180  0.2945
  166SOPE  H10118680   5.923   2.407   9.637  0.7826  0.9600  0.5914
  166SOPE  C21118681   5.792   2.470   9.479 -0.3205  0.0164  0.5142
  166SOPE  H11R18682   5.694   2.521   9.467  0.5518  1.4907 -0.6389
  166SOPE  H11S18683   5.755   2.367   9.456 -1.7645  0.1171  2.1682
  166SOPE  C21218684   5.885   2.509   9.368 -0.1889 -0.7769  0.0948
  166SOPE  H12R18685   5.991   2.485   9.390  0.4284 -0.5319 -2.3203
  166SOPE  H12S18686   5.867   2.614   9.334 -0.8191 -1.1401 -0.7443
  166SOPE  C21318687   5.861   2.426   9.234  0.9231  0.1775 -0.2059
  166SOPE  H13R18688   5.766   2.451   9.183  1.5190 -0.3850 -1.6445
  166SOPE  H13S18689   5.865   2.319   9.263 -0.2704  0.4144  0.9689
  166SOPE  C21418690   5.976   2.434   9.132  1.1103 -0.8367  0.0652
  166SOPE  H14R18691   6.055   2.374   9.182  1.9389  0.4941  0.3931
  166SOPE  H14S18692   6.006   2.541   9.126 -0.7886 -0.2752 -0.0710
  166SOPE  C21518693   5.923   2.391   8.998 -0.5509 -0.4330 -0.3742
  166SOPE  H15R18694   6.003   2.401   8.921  0.9652  0.0679  1.2034
  166SOPE  H15S18695   5.853   2.471   8.965 -0.7892 -0.7825 -0.7310
  166SOPE  C21618696   5.840   2.258   8.981 -0.1468 -0.2569 -0.1967
  166SOPE  H16R18697   5.760   2.261   9.058 -1.1781  1.0552 -1.2694
  166SOPE  H16S18698   5.913   2.181   9.014  1.5094  2.0762  1.9398
  166SOPE  C21718699   5.786   2.243   8.834 -0.2398  0.9827  0.1298
  166SOPE  H17R18700   5.880   2.238   8.775 -1.7329 -0.7153 -2.2689
  166SOPE  H17S18701   5.738   2.340   8.808 -0.4140  0.7609 -0.3812
  166SOPE  C21818702   5.694   2.128   8.801  0.7638  0.2770 -0.2962
  166SOPE  H18R18703   5.730   2.028   8.834 -1.9050 -0.7833 -0.2593
  166SOPE  H18S18704   5.672   2.125   8.692 -0.9680  0.4803  0.0073
  166SOPE  H18T18705   5.601   2.136   8.862  1.7774  0.6103  1.2647
  166SOPE   C3318706   6.032   3.615   9.906  0.1205  0.0665 -0.3682
  166SOPE   H3X18707   6.138   3.641   9.890 -0.4975  2.1342 -1.4762
  166SOPE   H3Y18708   6.008   3.687   9.987  0.7091  1.0040 -1.0046
  166SOPE   C3418709   5.963   3.660   9.784  0.5648  0.1145 -0.5594
  166SOPE   H4X18710   5.955   3.770   9.772 -1.3809  0.0453 -0.2346
  166SOPE   H4Y18711   5.858   3.626   9.779  1.0877 -1.6975 -0.0637
  166SOPE   C3518712   6.024   3.598   9.652 -0.5479 -0.3920 -0.3876
  166SOPE   H5X18713   6.054   3.493   9.675 -0.6973 -0.6648 -1.3761
  166SOPE   H5Y18714   6.120   3.652   9.638 -2.3303  3.1920  0.1598
  166SOPE   C3618715   5.923   3.599   9.537  0.1716  0.1714 -0.3200
  166SOPE   H6X18716   5.879   3.699   9.515 -2.3167 -0.5606  0.9523
  166SOPE   H6Y18717   5.836   3.535   9.562  2.3383 -3.3665 -1.2053
  166SOPE   C3718718   5.981   3.551   9.407  0.9794 -0.5866 -0.6024
  166SOPE   H7X18719   6.033   3.454   9.423 -0.3990 -1.2448  0.0580
  166SOPE   H7Y18720   6.048   3.633   9.376  0.3497  0.1623 -0.0278
  166SOPE   C3818721   5.861   3.527   9.306  0.5731  0.1335 -0.2443
  166SOPE   H8X18722   5.781   3.600   9.331  1.2485  1.1551 -0.9619
  166SOPE   H8Y18723   5.810   3.432   9.334 -1.4047  1.0949 -0.4309
  166SOPE   C3918724   5.890   3.545   9.158 -0.3835  0.5731  0.4559
  166SOPE   H9X18725   5.965   3.626   9.145 -0.3342  0.4528 -0.0386
  166SOPE   H9Y18726   5.792   3.567   9.111 -0.7404 -0.5184  0.6484
  166SOPE  C31018727   5.942   3.415   9.087 -0.8446  0.2180 -0.8793
  166SOPE  H10X18728   5.873   3.331   9.112  0.8759 -0.3525  2.4246
  166SOPE  H10Y18729   6.035   3.386   9.140 -1.5237  1.1549  0.8831
  166SOPE  C31118730   5.944   3.422   8.935 -0.0599  0.0812  0.6683
  166SOPE  H11X18731   5.839   3.444   8.905 -0.4031  1.1740  2.5330
  166SOPE  H11Y18732   5.979   3.328   8.886  0.9676  0.2792  1.0110
  166SOPE  C31218733   6.011   3.548   8.878 -0.1163 -0.1305 -0.2919
  166SOPE  H12X18734   5.991   3.642   8.934  0.0281 -1.0302  1.3153
  166SOPE  H12Y18735   6.004   3.568   8.769  0.1759  0.9648 -0.1283
  166SOPE  C31318736   6.162   3.522   8.888 -0.0443 -0.3866  0.3074
  166SOPE  H13X18737   6.180   3.418   8.855 -0.1635  0.2776 -1.9813
  166SOPE  H13Y18738   6.174   3.523   8.999  0.3415 -1.7976  0.2881
  166SOPE  C31418739   6.261   3.611   8.821 -0.7039 -0.5455 -0.7585
  166SOPE  H14X18740   6.243   3.711   8.866 -2.2107 -2.1486  2.5263
  166SOPE  H14Y18741   6.238   3.614   8.712  0.3198  2.1420 -0.9759
  166SOPE  C31518742   6.406   3.564   8.843  0.1748 -0.7047  0.0074
  166SOPE  H15X18743   6.429   3.464   8.800  2.3908  0.7719 -2.5787
  166SOPE  H15Y18744   6.425   3.562   8.952  0.2394  2.8777  0.1987
  166SOPE  C31618745   6.508   3.667   8.782 -0.1137  0.2642 -0.1138
  166SOPE  H16X18746   6.499   3.766   8.832  0.3116 -0.3151  1.1594
  166SOPE  H16Y18747   6.482   3.677   8.675 -0.1671  2.0421  0.0365
  166SOPE  C31718748   6.658   3.613   8.779  0.3937 -0.2195 -0.1734
  166SOPE  H17X18749   6.643   3.516   8.727 -2.2795  0.0186  0.0368
  166SOPE  H17Y18750   6.700   3.597   8.881  0.7500 -1.7376 -0.5302
  166SOPE  C31818751   6.756   3.704   8.702  0.3997  0.0260  0.6740
  166SOPE  H18X18752   6.846   3.641   8.683  1.7752  1.6642  1.5371
  166SOPE  H18Y18753   6.790   3.790   8.763  0.3901 -1.0105  2.1999
  166SOPE  H18Z18754   6.714   3.726   8.601  1.1384 -1.7931 -0.0751
  167SOPE     N18755   1.731   1.317   6.270 -0.1356  0.3459 -0.2128
  167SOPE   HN118756   1.822   1.333   6.318 -0.3418 -1.0474  0.6984
  167SOPE   HN218757   1.756   1.238   6.208  2.3529  0.2636  0.7893
  167SOPE   HN318758   1.706   1.401   6.214  0.9584 -0.1862 -1.5382
  167SOPE   C1218759   1.622   1.255   6.353  0.8115  0.2673  0.0433
  167SOPE  H12A18760   1.575   1.340   6.405 -2.1915 -0.4534 -1.2571
  167SOPE  H12B18761   1.672   1.173   6.409  0.6425 -1.0582 -1.6423
  167SOPE   C1118762   1.512   1.192   6.263 -0.3767  0.1158 -0.0240
  167SOPE  H11A18763   1.432   1.159   6.332 -0.1261 -1.6725 -0.5176
  167SOPE  H11B18764   1.544   1.090   6.230  0.7152 -0.0951  1.5978
  167SOPE     P18765   1.330   1.359   6.151 -0.1213 -0.0571 -0.2417
  167SOPE   O1318766   1.227   1.293   6.067  0.3075 -0.2898 -0.2758
  167SOPE   O1418767   1.359   1.496   6.106 -0.9047 -0.5792  0.3285
  167SOPE   O1218768   1.467   1.280   6.156  0.1195  0.1353 -0.4232
  167SOPE   O1118769   1.293   1.348   6.305 -0.2644  0.2755 -0.2318
  167SOPE    C118770   1.160   1.361   6.356  0.5418 -0.0698  0.0857
  167SOPE    HA18771   1.100   1.274   6.322  0.3184 -0.8012  2.2200
  167SOPE    HB18772   1.107   1.452   6.321 -0.8832 -0.4029  1.3032
  167SOPE    C218773   1.164   1.350   6.511  0.3719 -0.0878  0.1912
  167SOPE    HS18774   1.060   1.370   6.544 -0.0546 -1.3934 -0.3068
  167SOPE   O2118775   1.250   1.451   6.579  0.3211  0.3080 -0.3472
  167SOPE   C2118776   1.229   1.572   6.548  0.1297 -0.3088 -0.4323
  167SOPE   O2218777   1.128   1.623   6.498  0.5073 -0.0372 -0.2207
  167SOPE   C2218778   1.354   1.658   6.582 -0.1644 -0.1533 -0.1270
  167SOPE   H2R18779   1.307   1.755   6.607 -0.7587 -0.2796 -0.7112
  167SOPE   H2S18780   1.410   1.655   6.487 -1.0874 -0.7062 -0.6713
  167SOPE    C318781   1.210   1.207   6.552 -0.4929  0.4011 -0.1959
  167SOPE    HX18782   1.308   1.184   6.503 -1.1222 -1.2575 -0.7399
  167SOPE    HY18783   1.132   1.143   6.506  1.1081 -1.6460 -0.2478
  167SOPE   O3118784   1.216   1.195   6.694 -0.4577  0.1214  0.0490
  167SOPE   C3118785   1.332   1.149   6.738  0.3670  0.4558 -0.7401
  167SOPE   O3218786   1.430   1.121   6.673  0.2582 -0.1532  0.6924
  167SOPE   C3218787   1.322   1.135   6.889  0.1076  0.3171  0.5457
  167SOPE   H2X18788   1.244   1.061   6.915  0.2461 -0.8939 -2.1069
  167SOPE   H2Y18789   1.292   1.230   6.938 -2.1064 -0.5312  0.9422
  167SOPE   C2318790   1.461   1.612   6.681 -0.4428 -0.7669  0.6700
  167SOPE   H3R18791   1.553   1.672   6.665 -0.3844 -0.7810  0.9519
  167SOPE   H3S18792   1.482   1.503   6.683  1.9255 -0.3596  0.8701
  167SOPE   C2418793   1.423   1.641   6.826  0.0475  0.3111  0.8073
  167SOPE   H4R18794   1.509   1.621   6.892 -1.0128 -0.0039  2.1368
  167SOPE   H4S18795   1.394   1.746   6.846 -0.0878  0.8004 -1.6196
  167SOPE   C2518796   1.310   1.559   6.886  0.3400 -0.2684  0.2830
  167SOPE   H5R18797   1.222   1.606   6.837  0.9744  0.3339 -0.2940
  167SOPE   H5S18798   1.326   1.453   6.858 -1.4975 -0.2153 -1.1311
  167SOPE   C2618799   1.294   1.564   7.040 -0.2562  0.0982 -0.0531
  167SOPE   H6R18800   1.274   1.671   7.064  1.6132  1.0083 -2.2158
  167SOPE   H6S18801   1.207   1.506   7.078 -1.9168  2.3152 -0.2509
  167SOPE   C2718802   1.418   1.507   7.120  0.6712  1.1234  0.7767
  167SOPE   H7R18803   1.422   1.397   7.107  0.5742  1.2531 -0.4579
  167SOPE   H7S18804   1.516   1.537   7.078  1.5381 -3.1067 -0.6729
  167SOPE   C2818805   1.414   1.527   7.271 -0.8981  0.8232  0.0051
  167SOPE   H8R18806   1.406   1.637   7.286 -1.1594  0.9774 -1.2085
  167SOPE   H8S18807   1.317   1.482   7.300 -1.2894  0.7932 -1.3198
  167SOPE   C2918808   1.521   1.474   7.362  0.7288 -0.5658 -0.9902
  167SOPE   H9118809   1.518   1.365   7.378  2.0656 -0.3700  1.1099
  167SOPE  C21018810   1.618   1.546   7.420  0.2869  1.0993 -1.1218
  167SOPE  H10118811   1.683   1.496   7.493  0.4339  0.7247 -1.5054
  167SOPE  C21118812   1.665   1.688   7.408  0.7809 -0.3725 -1.0328
  167SOPE  H11R18813   1.685   1.729   7.510  1.9396 -2.2491 -0.4456
  167SOPE  H11S18814   1.583   1.749   7.366  0.2218 -0.7035 -0.4308
  167SOPE  C21218815   1.804   1.702   7.350 -0.2688  0.5884 -0.7567
  167SOPE  H12R18816   1.875   1.636   7.404  0.4291  1.4329 -0.6243
  167SOPE  H12S18817   1.842   1.802   7.378 -1.2165  0.8350 -0.2755
  167SOPE  C21318818   1.823   1.671   7.198  0.5416 -0.6406 -0.4610
  167SOPE  H13R18819   1.780   1.572   7.173 -2.6409  1.0387 -2.1767
  167SOPE  H13S18820   1.931   1.676   7.171  0.0400  1.1942 -2.4379
  167SOPE  C21418821   1.748   1.774   7.108 -0.1175 -0.8717 -0.5184
  167SOPE  H14R18822   1.752   1.874   7.157  1.3190 -1.4895  0.6960
  167SOPE  H14S18823   1.640   1.751   7.118 -0.7869  2.1609  0.4382
  167SOPE  C21518824   1.791   1.772   6.961  0.0934  0.7415 -0.7599
  167SOPE  H15R18825   1.889   1.824   6.959  0.8811 -0.5970  0.2558
  167SOPE  H15S18826   1.717   1.821   6.895 -4.0055 -4.3277 -0.5996
  167SOPE  C21618827   1.813   1.626   6.903 -0.6931 -0.6037  0.3795
  167SOPE  H16R18828   1.713   1.583   6.921 -1.3580  1.8561  3.2030
  167SOPE  H16S18829   1.892   1.578   6.965  0.0397  0.7449  0.5359
  167SOPE  C21718830   1.857   1.624   6.755 -0.3980 -0.4854 -0.8822
  167SOPE  H17R18831   1.944   1.687   6.728 -0.2464 -1.7114 -3.5447
  167SOPE  H17S18832   1.771   1.669   6.701 -0.5018  0.5997  0.1359
  167SOPE  C21818833   1.880   1.482   6.708  0.4117 -0.5236  0.0802
  167SOPE  H18R18834   1.987   1.454   6.716  0.9239  0.8082 -1.4448
  167SOPE  H18S18835   1.876   1.488   6.597  1.3114 -0.3807  0.0440
  167SOPE  H18T18836   1.810   1.405   6.747  1.2889 -1.4170 -0.0757
  167SOPE   C3318837   1.455   1.083   6.942 -0.2566  0.5191  0.6292
  167SOPE   H3X18838   1.534   1.160   6.947  0.2902  0.2625 -2.3882
  167SOPE   H3Y18839   1.492   1.014   6.863 -1.7172  1.3776 -0.8786
  167SOPE   C3418840   1.436   1.005   7.077  0.2882 -0.0045  0.2433
  167SOPE   H4X18841   1.532   0.951   7.088 -0.0571 -1.5792 -3.2389
  167SOPE   H4Y18842   1.347   0.940   7.068  0.9023 -0.6710 -1.2581
  167SOPE   C3518843   1.415   1.106   7.195 -0.0856 -0.4150 -0.1983
  167SOPE   H5X18844   1.311   1.145   7.186 -0.0545 -0.2731  0.0432
  167SOPE   H5Y18845   1.484   1.193   7.196  1.4796 -1.5923  1.6848
  167SOPE   C3618846   1.422   1.038   7.335 -0.5541  1.3162 -0.3968
  167SOPE   H6X18847   1.522   1.017   7.378 -0.6233 -0.2503 -0.9522
  167SOPE   H6Y18848   1.364   0.944   7.341  1.7193 -0.0875  1.1860
  167SOPE   C3718849   1.348   1.117   7.449 -0.4509  0.2426 -0.3243
  167SOPE   H7X18850   1.238   1.116   7.431 -0.7896  1.4022  1.4670
  167SOPE   H7Y18851   1.401   1.214   7.453  0.9626 -0.5316  0.4286
  167SOPE   C3818852   1.367   1.043   7.588 -0.2414  0.2721 -0.4329
  167SOPE   H8X18853   1.471   1.004   7.586 -0.4556 -0.7124  2.4701
  167SOPE   H8Y18854   1.291   0.962   7.586  0.6002 -0.5123 -2.3311
  167SOPE   C3918855   1.339   1.128   7.711  0.3760  0.1474  0.6165
  167SOPE   H9X18856   1.233   1.162   7.700  0.2240 -0.5389 -0.1243
  167SOPE   H9Y18857   1.394   1.223   7.725  0.0488  0.3619  0.4811
  167SOPE  C31018858   1.376   1.048   7.842  0.5200 -0.5925 -0.5898
  167SOPE  H10X18859   1.483   1.022   7.828  0.3066 -1.1839 -1.1880
  167SOPE  H10Y18860   1.324   0.950   7.843  0.6851 -0.6788 -0.4525
  167SOPE  C31118861   1.357   1.119   7.978  0.2502  0.2995 -0.1379
  167SOPE  H11X18862   1.250   1.138   8.000  1.1546  1.8332  3.9380
  167SOPE  H11Y18863   1.416   1.213   7.984  1.0972 -0.1857 -0.6273
  167SOPE  C31218864   1.414   1.028   8.086 -0.5587  0.4801 -0.3309
  167SOPE  H12X18865   1.518   1.001   8.058 -1.1895 -2.3285 -0.2460
  167SOPE  H12Y18866   1.368   0.928   8.071  1.3476 -0.7477  1.4482
  167SOPE  C31318867   1.396   1.063   8.234  0.2921  0.0607  0.4167
  167SOPE  H13X18868   1.289   1.081   8.256  0.6441  2.3746  0.6019
  167SOPE  H13Y18869   1.457   1.156   8.247 -1.4206  1.3560 -0.3890
  167SOPE  C31418870   1.451   0.952   8.333 -0.2414  0.2328 -0.4228
  167SOPE  H14X18871   1.456   0.996   8.436 -0.7492  1.4382 -0.8932
  167SOPE  H14Y18872   1.560   0.943   8.314  0.0662  1.1456  0.7382
  167SOPE  C31518873   1.392   0.813   8.327 -0.0265  0.1868  0.4737
  167SOPE  H15X18874   1.409   0.768   8.227 -0.7299  0.4615  0.2246
  167SOPE  H15Y18875   1.281   0.822   8.333  0.0340 -0.0006  3.7373
  167SOPE  C31618876   1.431   0.724   8.443  0.0034  0.3521 -0.5801
  167SOPE  H16X18877   1.427   0.774   8.542  0.2518 -1.8149  0.5827
  167SOPE  H16Y18878   1.537   0.692   8.450 -0.6828 -1.9491  0.4975
  167SOPE  C31718879   1.352   0.595   8.448  0.7675 -0.2698  1.3834
  167SOPE  H17X18880   1.245   0.620   8.431  0.5505 -1.0063  1.6393
  167SOPE  H17Y18881   1.357   0.546   8.547 -0.9114 -2.0015  0.6650
  167SOPE  C31818882   1.408   0.492   8.344  0.2425 -0.0018  0.3362
  167SOPE  H18X18883   1.338   0.406   8.339  0.2407  0.0208 -0.0223
  167SOPE  H18Y18884   1.509   0.450   8.365  0.6809  0.0591 -1.4915
  167SOPE  H18Z18885   1.428   0.543   8.247  3.7114  0.9773  1.4052
  168SOPE     N18886   1.235   4.865   6.285 -0.5674 -0.2524  0.3190
  168SOPE   HN118887   1.147   4.826   6.244 -0.6757  0.7452 -0.4550
  168SOPE   HN218888   1.289   4.897   6.202 -0.5767 -1.1140 -0.0374
  168SOPE   HN318889   1.308   4.808   6.331 -1.1068 -1.5339 -0.3563
  168SOPE   C1218890   1.207   4.980   6.380  0.1780 -0.3090 -0.2498
  168SOPE  H12A18891   1.293   4.975   6.450  0.4512 -0.6665 -0.6015
  168SOPE  H12B18892   1.108   4.960   6.426  0.9539 -0.1011  1.6081
  168SOPE   C1118893   1.205   5.120   6.316 -0.9546  0.0641  0.1641
  168SOPE  H11A18894   1.137   5.192   6.366 -2.4350 -0.8559 -0.4501
  168SOPE  H11B18895   1.167   5.111   6.212 -1.8645 -1.6142  0.6160
  168SOPE     P18896   1.392   5.308   6.357 -0.2070 -0.0736  0.0782
  168SOPE   O1318897   1.371   5.392   6.238 -0.2823  0.0660  0.1021
  168SOPE   O1418898   1.533   5.293   6.399  0.0351  0.0385 -0.2826
  168SOPE   O1218899   1.340   5.169   6.309 -0.5322  0.7701  0.1779
  168SOPE   O1118900   1.295   5.347   6.470 -0.1054 -0.4759  0.1391
  168SOPE    C118901   1.313   5.286   6.596 -0.4992  0.1894 -0.1159
  168SOPE    HA18902   1.360   5.185   6.595  1.1026  0.9042  0.8266
  168SOPE    HB18903   1.216   5.261   6.643 -0.1693  0.1236  0.5358
  168SOPE    C218904   1.371   5.386   6.698  0.0138 -0.1331  0.1373
  168SOPE    HS18905   1.469   5.419   6.658  0.0296 -1.9256 -1.4200
  168SOPE   O2118906   1.397   5.308   6.809  0.0752 -0.1322 -0.3464
  168SOPE   C2118907   1.503   5.339   6.882 -0.0760  0.0081  0.5642
  168SOPE   O2218908   1.590   5.414   6.852  0.4649  0.4689  0.0866
  168SOPE   C2218909   1.506   5.246   7.005 -0.9644 -1.0850 -0.0244
  168SOPE   H2R18910   1.572   5.162   6.972 -0.4386  0.0285 -1.9468
  168SOPE   H2S18911   1.405   5.203   7.025 -1.5796  0.3988  0.1453
  168SOPE    C318912   1.283   5.512   6.727 -0.6827  0.6454 -0.4480
  168SOPE    HX18913   1.276   5.566   6.630  1.0396  2.2037  0.2395
  168SOPE    HY18914   1.330   5.574   6.806 -0.6544  0.0371  0.0172
  168SOPE   O3118915   1.152   5.479   6.762 -0.1710  0.1804  0.2306
  168SOPE   C3118916   1.064   5.575   6.772 -0.1491 -0.9281 -0.2378
  168SOPE   O3218917   1.084   5.692   6.745  0.4780  0.2806 -0.3210
  168SOPE   C3218918   0.940   5.510   6.826 -0.3118 -0.9749  0.2619
  168SOPE   H2X18919   0.965   5.403   6.839  2.2539 -0.4533  0.2484
  168SOPE   H2Y18920   0.863   5.535   6.750  0.0069  2.0565  0.7693
  168SOPE   C2318921   1.568   5.303   7.138  0.0624  0.1746  0.3033
  168SOPE   H3R18922   1.515   5.396   7.168 -0.3727  0.1367 -0.3336
  168SOPE   H3S18923   1.678   5.313   7.126  0.0195  1.6444  0.9327
  168SOPE   C2418924   1.545   5.217   7.262  0.0875 -0.5191  0.2321
  168SOPE   H4R18925   1.438   5.222   7.292 -0.2444 -1.5600 -0.7010
  168SOPE   H4S18926   1.568   5.112   7.232  0.4017 -0.4237  0.1428
  168SOPE   C2518927   1.632   5.254   7.382  0.2665 -0.1716  0.1194
  168SOPE   H5R18928   1.733   5.232   7.344 -1.0533 -4.2859 -1.5216
  168SOPE   H5S18929   1.628   5.362   7.410  3.2987 -0.1506  0.7742
  168SOPE   C2618930   1.612   5.170   7.512  0.1541  0.0226  0.8608
  168SOPE   H6R18931   1.511   5.153   7.555  0.5812 -2.3440  1.0699
  168SOPE   H6S18932   1.634   5.067   7.477  0.7087  0.4372 -0.0490
  168SOPE   C2718933   1.718   5.203   7.613  0.2466 -0.0526 -0.7473
  168SOPE   H7R18934   1.817   5.220   7.567  1.5445  0.9585  2.1994
  168SOPE   H7S18935   1.690   5.303   7.654 -1.7245 -1.1474  0.7885
  168SOPE   C2818936   1.733   5.098   7.722 -0.1704  0.2787 -1.3438
  168SOPE   H8R18937   1.768   5.007   7.668  0.5901  0.7760 -1.7051
  168SOPE   H8S18938   1.813   5.121   7.795 -0.3717 -0.4749 -0.8731
  168SOPE   C2918939   1.607   5.066   7.798  0.4748 -0.3238 -0.2242
  168SOPE   H9118940   1.531   5.027   7.729 -0.0558  0.2938  0.0081
  168SOPE  C21018941   1.580   5.077   7.929  0.1923 -0.2670 -0.9306
  168SOPE  H10118942   1.474   5.061   7.953  0.7078 -1.4821  0.6516
  168SOPE  C21118943   1.679   5.128   8.032 -0.2034 -0.3056 -0.4323
  168SOPE  H11R18944   1.784   5.099   8.011  1.0514  2.6994  1.0342
  168SOPE  H11S18945   1.647   5.080   8.128  0.3689 -1.3304 -0.7439
  168SOPE  C21218946   1.670   5.278   8.049 -0.2182  0.2910  0.2382
  168SOPE  H12R18947   1.568   5.319   8.057 -0.6254 -0.4960 -0.7425
  168SOPE  H12S18948   1.700   5.328   7.955  2.0344 -2.4185 -0.6534
  168SOPE  C21318949   1.764   5.330   8.164  0.1963  0.2485 -0.8299
  168SOPE  H13R18950   1.776   5.439   8.146 -0.0218  0.2212 -1.1438
  168SOPE  H13S18951   1.868   5.291   8.153  0.5842  0.1683  2.1217
  168SOPE  C21418952   1.707   5.303   8.310 -0.7519  0.3612 -0.4176
  168SOPE  H14R18953   1.677   5.196   8.317  0.3286  0.1375  1.2712
  168SOPE  H14S18954   1.609   5.352   8.325 -1.2991 -1.1486  1.4401
  168SOPE  C21518955   1.803   5.351   8.418 -0.0640  0.4298 -0.4080
  168SOPE  H15R18956   1.756   5.327   8.516 -2.7666  1.1279 -1.4336
  168SOPE  H15S18957   1.810   5.461   8.403  1.0965  0.5414  0.8391
  168SOPE  C21618958   1.946   5.301   8.395 -0.0947 -0.2612 -0.5983
  168SOPE  H16R18959   2.010   5.346   8.474 -2.5285  2.1776  0.1491
  168SOPE  H16S18960   1.979   5.345   8.298 -0.3048 -0.4017 -0.7346
  168SOPE  C21718961   1.963   5.153   8.398 -0.1420  0.3447 -0.2886
  168SOPE  H17R18962   2.051   5.114   8.342 -0.1229 -0.6823  0.4366
  168SOPE  H17S18963   1.875   5.116   8.341 -1.8576  0.4848  2.1014
  168SOPE  C21818964   1.974   5.084   8.531  0.3400 -0.2098 -0.3106
  168SOPE  H18R18965   1.896   5.118   8.603 -0.1143 -3.1494  0.7485
  168SOPE  H18S18966   2.068   5.115   8.580  1.3421 -1.7570 -1.1812
  168SOPE  H18T18967   1.985   4.974   8.528  1.8238 -0.1329  1.0068
  168SOPE   C3318968   0.905   5.564   6.971 -0.4527 -0.2665  0.2200
  168SOPE   H3X18969   0.800   5.531   6.987 -1.1209  0.9378 -1.4163
  168SOPE   H3Y18970   0.917   5.674   6.978  0.9990 -0.1721 -2.2865
  168SOPE   C3418971   0.988   5.495   7.079  0.7726  0.2289 -0.2265
  168SOPE   H4X18972   1.095   5.523   7.067  0.4492  2.7076  1.9091
  168SOPE   H4Y18973   0.976   5.385   7.072 -1.4272  0.4876 -1.2762
  168SOPE   C3518974   0.960   5.529   7.227  0.4470 -0.7027  0.0169
  168SOPE   H5X18975   0.857   5.497   7.252 -1.4173  3.2724 -1.7343
  168SOPE   H5Y18976   0.970   5.639   7.242  1.3427 -0.4995 -1.8435
  168SOPE   C3618977   1.062   5.467   7.317 -0.1490 -0.1293 -0.8902
  168SOPE   H6X18978   1.159   5.481   7.265  0.4870 -2.9144 -0.6475
  168SOPE   H6Y18979   1.048   5.357   7.326 -0.5970 -0.0248 -0.2150
  168SOPE   C3718980   1.054   5.519   7.458 -0.1466  0.4088 -0.3995
  168SOPE   H7X18981   1.091   5.624   7.454  0.3028  0.2048 -2.0926
  168SOPE   H7Y18982   1.126   5.465   7.523 -0.0203  2.9627  1.7786
  168SOPE   C3818983   0.918   5.522   7.518 -0.3569 -0.7426  0.3357
  168SOPE   H8X18984   0.885   5.417   7.531  2.9437 -2.2505 -2.1391
  168SOPE   H8Y18985   0.840   5.572   7.457 -1.9918 -1.9213  1.3508
  168SOPE   C3918986   0.931   5.604   7.655 -0.5999  0.2980 -0.0193
  168SOPE   H9X18987   0.957   5.711   7.644 -0.7378  0.4604  1.1431
  168SOPE   H9Y18988   1.008   5.550   7.715 -2.0720  0.7526  2.4204
  168SOPE  C31018989   0.797   5.591   7.732  0.5441  0.4727 -0.8675
  168SOPE  H10X18990   0.709   5.618   7.670 -0.5154 -2.0239 -0.5718
  168SOPE  H10Y18991   0.787   5.666   7.814 -3.4605 -0.7878  0.0216
  168SOPE  C31118992   0.772   5.451   7.802  0.3289 -0.4533  0.0154
  168SOPE  H11X18993   0.847   5.441   7.883  0.7327  0.3936 -0.2451
  168SOPE  H11Y18994   0.790   5.371   7.728 -1.7927 -0.7047 -0.3036
  168SOPE  C31218995   0.640   5.428   7.872 -0.1888 -0.2203 -0.5055
  168SOPE  H12X18996   0.569   5.398   7.793 -0.0841 -0.7976 -0.3822
  168SOPE  H12Y18997   0.604   5.520   7.923 -1.0407  0.4395 -2.2211
  168SOPE  C31318998   0.654   5.323   7.981  0.7484 -0.0295 -0.0899
  168SOPE  H13X18999   0.727   5.243   7.956 -0.9177 -1.1170 -1.7493
  168SOPE  H13Y19000   0.557   5.275   8.005  0.2032  1.9197  1.8919
  168SOPE  C31419001   0.690   5.387   8.117  0.0490 -0.2285  0.0204
  168SOPE  H14X19002   0.599   5.452   8.123 -1.0069 -1.6120 -0.4679
  168SOPE  H14Y19003   0.780   5.451   8.111 -2.0115  2.8909 -0.6214
  168SOPE  C31519004   0.720   5.287   8.235 -0.2311 -0.9056 -0.5527
  168SOPE  H15X19005   0.807   5.226   8.203  0.2028 -0.9831  0.7242
  168SOPE  H15Y19006   0.633   5.220   8.253 -0.0474 -1.1310 -0.5019
  168SOPE  C31619007   0.758   5.356   8.373  0.2233 -0.1403 -0.0539
  168SOPE  H16X19008   0.672   5.422   8.399  0.7278  0.2955  0.5598
  168SOPE  H16Y19009   0.835   5.436   8.366  0.1434 -0.1435 -1.0796
  168SOPE  C31719010   0.784   5.247   8.480 -0.3989 -0.7442  0.1146
  168SOPE  H17X19011   0.868   5.182   8.448  1.0348  1.1220 -0.0924
  168SOPE  H17Y19012   0.695   5.181   8.489 -1.6356  0.8922  0.3566
  168SOPE  C31819013   0.811   5.301   8.624  0.6144 -0.0437  0.4380
  168SOPE  H18X19014   0.825   5.224   8.702  0.8401 -0.2869  0.1622
  168SOPE  H18Y19015   0.728   5.365   8.662  2.0600  0.5359  2.8671
  168SOPE  H18Z19016   0.900   5.367   8.631  1.3566 -1.1311  1.5187
  169SOPE     N19017   2.524   6.042   6.283 -0.1725 -0.2438 -0.2518
  169SOPE   HN119018   2.490   6.059   6.380 -0.6267 -0.6201 -0.3459
  169SOPE   HN219019   2.543   6.140   6.252 -0.2761 -0.5251 -1.2226
  169SOPE   HN319020   2.449   6.005   6.221 -1.2464 -0.4860  1.1351
  169SOPE   C1219021   2.655   5.958   6.275  0.0904  0.5614  0.0431
  169SOPE  H12A19022   2.678   5.954   6.166  0.2789  1.4248  0.0433
  169SOPE  H12B19023   2.625   5.861   6.320 -0.9968  1.1207  0.5427
  169SOPE   C1119024   2.764   6.036   6.330 -0.8081  0.4519 -0.0295
  169SOPE  H11A19025   2.851   5.967   6.326 -1.5619 -0.4867 -0.9788
  169SOPE  H11B19026   2.737   6.062   6.434 -0.7456 -0.3698  0.1975
  169SOPE     P19027   2.920   6.166   6.180 -0.0066 -0.2324  0.0118
  169SOPE   O1319028   2.914   6.290   6.104  0.2553 -1.1919  0.1574
  169SOPE   O1419029   2.946   6.048   6.100 -0.4396 -0.3614  0.4337
  169SOPE   O1219030   2.795   6.158   6.264  0.5674 -0.6110  0.3464
  169SOPE   O1119031   3.033   6.187   6.294 -0.1903  0.5442 -0.1584
  169SOPE    C119032   2.993   6.258   6.415 -0.3981 -0.3989 -0.7153
  169SOPE    HA19033   2.954   6.184   6.488  1.1714  0.6824  1.3158
  169SOPE    HB19034   2.916   6.336   6.396 -0.8908  0.1662  2.9998
  169SOPE    C219035   3.117   6.322   6.486 -0.3995  0.6118  0.1746
  169SOPE    HS19036   3.149   6.407   6.422  0.8224 -0.6753 -0.9689
  169SOPE   O2119037   3.225   6.225   6.508 -0.3067  0.0535  0.7242
  169SOPE   C2119038   3.337   6.286   6.533 -1.1475 -0.2037 -0.0307
  169SOPE   O2219039   3.359   6.406   6.518  0.5968 -0.1590 -0.0124
  169SOPE   C2219040   3.445   6.189   6.595 -0.1789  0.0037  0.1587
  169SOPE   H2R19041   3.506   6.125   6.528 -0.5566 -0.9426  0.6878
  169SOPE   H2S19042   3.375   6.117   6.643 -0.8501  0.3853 -0.2314
  169SOPE    C319043   3.063   6.388   6.620  0.2707 -0.5067  0.2031
  169SOPE    HX19044   3.026   6.304   6.683 -0.6041 -0.2864 -0.0110
  169SOPE    HY19045   2.979   6.455   6.594  1.6997  3.2765  4.1824
  169SOPE   O3119046   3.160   6.474   6.687  0.2182 -0.5868 -0.0853
  169SOPE   C3119047   3.120   6.526   6.801  0.4028  0.3971  0.6904
  169SOPE   O3219048   3.004   6.513   6.840 -0.2301  0.6369 -0.0097
  169SOPE   C3219049   3.233   6.608   6.862  0.0344 -0.6775 -0.5275
  169SOPE   H2X19050   3.220   6.702   6.804  1.5791 -2.0962 -3.3903
  169SOPE   H2Y19051   3.325   6.556   6.831  1.5872  0.4913  1.8545
  169SOPE   C2319052   3.531   6.259   6.703 -0.5337 -0.5208 -0.0919
  169SOPE   H3R19053   3.465   6.328   6.761 -1.6244 -1.2376 -0.4447
  169SOPE   H3S19054   3.607   6.316   6.645 -0.8434  0.7096  0.6573
  169SOPE   C2419055   3.606   6.152   6.789  0.6464  0.5314  0.3923
  169SOPE   H4R19056   3.545   6.091   6.859 -1.1918  1.2274 -0.5428
  169SOPE   H4S19057   3.663   6.075   6.732 -0.5636 -1.6242  1.9313
  169SOPE   C2519058   3.716   6.216   6.872  0.1272  0.2321 -0.3766
  169SOPE   H5R19059   3.769   6.132   6.921 -1.6278 -2.3165 -2.5386
  169SOPE   H5S19060   3.791   6.262   6.804  1.2337  0.6340  1.0602
  169SOPE   C2619061   3.671   6.315   6.978 -1.0630  0.3118 -0.5825
  169SOPE   H6R19062   3.766   6.360   7.013 -1.9856  1.3229  0.6783
  169SOPE   H6S19063   3.608   6.390   6.927 -1.1489 -1.1348 -2.7539
  169SOPE   C2719064   3.608   6.251   7.096  0.1126 -1.0150 -0.2391
  169SOPE   H7R19065   3.516   6.201   7.056  0.5279 -2.7958  0.9302
  169SOPE   H7S19066   3.673   6.170   7.135 -0.9831 -1.2707  1.1259
  169SOPE   C2819067   3.584   6.360   7.213  0.2183  0.2213  0.2717
  169SOPE   H8R19068   3.552   6.447   7.150  0.9362 -0.7294 -1.4644
  169SOPE   H8S19069   3.507   6.318   7.280  1.2263 -0.4767  1.0076
  169SOPE   C2919070   3.708   6.386   7.295  0.1667 -0.3570 -0.0883
  169SOPE   H9119071   3.798   6.352   7.242 -1.3329  0.5331 -3.4730
  169SOPE  C21019072   3.719   6.440   7.415 -0.0544 -0.5255 -0.5106
  169SOPE  H10119073   3.821   6.456   7.454 -0.3024 -0.0455 -0.0350
  169SOPE  C21119074   3.610   6.496   7.499  0.0257  0.3334 -0.1382
  169SOPE  H11R19075   3.524   6.426   7.506 -0.3816  0.8319 -0.0846
  169SOPE  H11S19076   3.570   6.573   7.430  1.5292 -1.0883 -2.7531
  169SOPE  C21219077   3.659   6.558   7.634 -0.4520 -0.5532  1.0418
  169SOPE  H12R19078   3.588   6.626   7.686 -0.2834 -0.3248  0.9773
  169SOPE  H12S19079   3.753   6.611   7.605 -0.1777 -1.6297 -0.1108
  169SOPE  C21319080   3.681   6.445   7.737  0.8225 -0.1653 -0.5823
  169SOPE  H13R19081   3.751   6.367   7.702  0.2335 -0.9929  0.0384
  169SOPE  H13S19082   3.582   6.396   7.749  2.6748 -4.0171  0.7120
  169SOPE  C21419083   3.729   6.492   7.879  0.2074 -0.2736  0.2805
  169SOPE  H14R19084   3.824   6.549   7.875  0.0687 -0.0307  0.3700
  169SOPE  H14S19085   3.739   6.404   7.946 -1.0680 -0.5540  0.1274
  169SOPE  C21519086   3.618   6.578   7.956  0.2650 -0.3216 -0.0983
  169SOPE  H15R19087   3.602   6.672   7.899  0.3036  0.1071  0.5783
  169SOPE  H15S19088   3.658   6.600   8.058  1.3984  2.2434 -1.0162
  169SOPE  C21619089   3.474   6.525   7.969 -0.2772 -0.1430  0.3390
  169SOPE  H16R19090   3.473   6.420   8.004  1.4194  0.1863  1.4919
  169SOPE  H16S19091   3.438   6.531   7.864  1.2066  0.9869 -0.1404
  169SOPE  C21719092   3.386   6.620   8.061 -0.4701 -0.2862  0.2006
  169SOPE  H17R19093   3.283   6.597   8.026  0.0613 -0.9485 -0.9994
  169SOPE  H17S19094   3.407   6.727   8.038  1.9925 -0.9035 -0.7975
  169SOPE  C21819095   3.416   6.595   8.206  0.9390 -0.2040  0.2426
  169SOPE  H18R19096   3.361   6.670   8.267  1.7794  0.8980 -0.3241
  169SOPE  H18S19097   3.524   6.605   8.230  0.9677  1.4794 -0.4269
  169SOPE  H18T19098   3.397   6.494   8.249  2.1208 -0.4265  0.2667
  169SOPE   C3319099   3.223   6.614   7.015 -0.2494 -0.3967  0.5104
  169SOPE   H3X19100   3.231   6.515   7.065 -2.3317 -1.3155 -0.8440
  169SOPE   H3Y19101   3.121   6.653   7.034  0.1879  0.8333  0.4287
  169SOPE   C3419102   3.319   6.705   7.086 -0.5125 -0.1184 -0.3786
  169SOPE   H4X19103   3.357   6.789   7.023  0.1104 -0.9481 -1.1298
  169SOPE   H4Y19104   3.413   6.648   7.097  0.7769  1.4253 -2.4743
  169SOPE   C3519105   3.277   6.743   7.226  0.4425 -0.3080 -0.2761
  169SOPE   H5X19106   3.178   6.794   7.229  0.0736 -1.0139  2.1064
  169SOPE   H5Y19107   3.356   6.812   7.263 -0.0283 -0.4314  1.0403
  169SOPE   C3619108   3.270   6.627   7.326 -0.4206  0.1853  1.0542
  169SOPE   H6X19109   3.360   6.570   7.293  0.0925  1.5945 -0.0654
  169SOPE   H6Y19110   3.193   6.553   7.295  1.7831 -0.7712 -2.8566
  169SOPE   C3719111   3.279   6.650   7.471 -0.5406 -0.3857 -0.4989
  169SOPE   H7X19112   3.373   6.705   7.493 -1.4990  0.7816  0.8899
  169SOPE   H7Y19113   3.285   6.550   7.517  1.4027 -0.1314 -0.1280
  169SOPE   C3819114   3.173   6.744   7.520  0.1139  0.2674 -1.0819
  169SOPE   H8X19115   3.201   6.840   7.473  2.0883 -0.3437 -1.2256
  169SOPE   H8Y19116   3.074   6.712   7.479 -1.5748  2.4046  1.0439
  169SOPE   C3919117   3.158   6.742   7.676 -0.1156 -0.1806  0.7148
  169SOPE   H9X19118   3.255   6.775   7.720  0.2693  1.7787 -1.3535
  169SOPE   H9Y19119   3.154   6.632   7.690  1.1355 -0.2997  0.2741
  169SOPE  C31019120   3.037   6.821   7.732  0.1620  0.9045 -0.1995
  169SOPE  H10X19121   2.940   6.777   7.699  1.4835 -2.1157 -0.3321
  169SOPE  H10Y19122   3.040   6.927   7.698 -1.5223  1.1479  0.3130
  169SOPE  C31119123   3.039   6.831   7.883 -0.2277 -0.5844 -0.1782
  169SOPE  H11X19124   3.061   6.731   7.926 -1.1041 -0.8524 -0.3354
  169SOPE  H11Y19125   2.938   6.853   7.924  0.6247 -3.1878  3.9118
  169SOPE  C31219126   3.134   6.938   7.926 -0.8444  0.0577 -1.0727
  169SOPE  H12X19127   3.114   7.039   7.885 -0.5596  0.9163  0.8050
  169SOPE  H12Y19128   3.232   6.904   7.887 -0.5997  1.2012 -1.4970
  169SOPE  C31319129   3.116   6.932   8.072 -0.1422 -0.5161  0.1649
  169SOPE  H13X19130   3.129   6.825   8.098 -2.7798 -0.7860  0.6776
  169SOPE  H13Y19131   3.026   6.980   8.117 -0.3996 -1.2192  0.4111
  169SOPE  C31419132   3.228   7.018   8.139 -0.2237  0.2992  0.5363
  169SOPE  H14X19133   3.244   7.118   8.092  3.0275  0.8251  2.4733
  169SOPE  H14Y19134   3.323   6.964   8.119 -0.5383 -0.6802  1.6025
  169SOPE  C31519135   3.208   7.037   8.289 -0.3461  0.5794  0.8716
  169SOPE  H15X19136   3.197   6.938   8.340 -0.0832  0.8816  1.5279
  169SOPE  H15Y19137   3.124   7.109   8.293  0.1117  1.2901 -1.1408
  169SOPE  C31619138   3.321   7.124   8.353  0.2801  0.2590  0.1302
  169SOPE  H16X19139   3.316   7.226   8.307 -1.6494 -0.8099 -2.3040
  169SOPE  H16Y19140   3.420   7.075   8.346  1.6826  2.5749  2.1996
  169SOPE  C31719141   3.298   7.126   8.504  0.3890  0.3104  0.0595
  169SOPE  H17X19142   3.308   7.022   8.542  0.4874 -0.4505 -1.9596
  169SOPE  H17Y19143   3.208   7.177   8.544 -0.7085 -0.8367 -0.8758
  169SOPE  C31819144   3.416   7.209   8.547 -0.7077  0.8913 -0.0533
  169SOPE  H18X19145   3.507   7.149   8.526 -1.6543 -1.3097  1.7223
  169SOPE  H18Y19146   3.415   7.225   8.657  0.5591  0.9164 -0.0332
  169SOPE  H18Z19147   3.415   7.313   8.508  0.2204  1.2739  0.9063
  170SOPE     N19148   3.583   5.275   6.241  0.0423  0.9829 -0.0731
  170SOPE   HN119149   3.530   5.190   6.214 -1.5403  1.6662  0.7725
  170SOPE   HN219150   3.540   5.354   6.189 -1.7799 -1.4874 -2.6365
  170SOPE   HN319151   3.682   5.259   6.213  0.3786  1.8257  0.6045
  170SOPE   C1219152   3.567   5.285   6.390 -0.2016  0.0234 -0.3158
  170SOPE  H12A19153   3.459   5.306   6.403 -0.5900 -1.4135 -1.0238
  170SOPE  H12B19154   3.627   5.371   6.429  2.1024 -0.5060 -2.4120
  170SOPE   C1119155   3.606   5.152   6.455 -0.6866 -0.6949  0.0267
  170SOPE  H11A19156   3.573   5.146   6.561  2.1945 -1.1922  0.9943
  170SOPE  H11B19157   3.717   5.153   6.450 -0.7358 -0.3274 -1.8039
  170SOPE     P19158   3.588   4.896   6.410 -0.1731  0.3790  0.3681
  170SOPE   O1319159   3.690   4.860   6.313  0.2127  0.0423  0.2274
  170SOPE   O1419160   3.472   4.805   6.426  0.1715 -0.1952  0.7868
  170SOPE   O1219161   3.539   5.046   6.380  0.2071  0.0633 -0.4605
  170SOPE   O1119162   3.656   4.909   6.554 -0.4023  0.0657 -0.0272
  170SOPE    C119163   3.716   4.806   6.624 -0.4565 -0.2798 -0.3200
  170SOPE    HA19164   3.819   4.828   6.660 -0.2627 -1.3816 -0.1455
  170SOPE    HB19165   3.726   4.714   6.562 -1.8026 -0.7775  0.1762
  170SOPE    C219166   3.642   4.769   6.757 -0.2179 -0.0043  0.1688
  170SOPE    HS19167   3.541   4.738   6.722 -1.2827 -0.8766  3.6143
  170SOPE   O2119168   3.644   4.874   6.858 -0.0066 -0.5023 -0.2377
  170SOPE   C2119169   3.541   4.959   6.838 -0.7008 -0.3959 -0.6284
  170SOPE   O2219170   3.470   4.962   6.741 -0.1880  0.4401 -0.7550
  170SOPE   C2219171   3.536   5.067   6.945 -0.5331 -0.0629  1.3835
  170SOPE   H2R19172   3.460   5.136   6.903 -0.9262 -2.4571 -2.3626
  170SOPE   H2S19173   3.635   5.117   6.948 -1.0806  1.3145 -1.2596
  170SOPE    C319174   3.713   4.649   6.818  0.0977 -0.4806 -0.5559
  170SOPE    HX19175   3.811   4.689   6.851  0.1000 -0.6240 -0.3854
  170SOPE    HY19176   3.716   4.562   6.750  2.8255  0.2388 -1.4491
  170SOPE   O3119177   3.643   4.611   6.934 -0.1533  0.8357 -0.1464
  170SOPE   C3119178   3.707   4.522   7.012  0.4842  0.7561 -0.4861
  170SOPE   O3219179   3.819   4.484   6.993 -0.9760 -0.3441 -0.7026
  170SOPE   C3219180   3.614   4.473   7.128 -0.4830  0.2440 -0.2368
  170SOPE   H2X19181   3.524   4.425   7.086 -2.3700  1.8258  1.7717
  170SOPE   H2Y19182   3.589   4.571   7.175 -1.0739  0.5040 -1.0869
  170SOPE   C2319183   3.482   5.016   7.074  0.6664  0.1424  0.1613
  170SOPE   H3R19184   3.385   4.966   7.057  0.8314  0.0966 -0.7083
  170SOPE   H3S19185   3.475   5.103   7.143  0.6512 -0.9973  1.6500
  170SOPE   C2419186   3.575   4.912   7.146  0.2857 -0.0388 -0.2153
  170SOPE   H4R19187   3.515   4.895   7.237 -2.3264  1.3669 -1.5613
  170SOPE   H4S19188   3.579   4.826   7.076  2.1022  0.0300 -0.2411
  170SOPE   C2519189   3.714   4.965   7.163 -0.1481 -0.2066 -0.2702
  170SOPE   H5R19190   3.772   4.980   7.070  0.9962 -2.4679  0.0141
  170SOPE   H5S19191   3.711   5.065   7.212 -1.0613  0.0482 -0.8277
  170SOPE   C2619192   3.799   4.873   7.243 -0.3455  0.6904 -0.4196
  170SOPE   H6R19193   3.766   4.848   7.346  1.6028  1.0695  0.3318
  170SOPE   H6S19194   3.793   4.775   7.192 -1.3095 -0.0793  1.0877
  170SOPE   C2719195   3.944   4.926   7.258  0.1576  0.4047 -0.1929
  170SOPE   H7R19196   3.984   4.959   7.160 -0.9443 -0.5107 -0.9813
  170SOPE   H7S19197   3.951   5.018   7.320  1.3443  1.1926 -1.4385
  170SOPE   C2819198   4.029   4.822   7.334 -0.4651  0.1838 -0.5246
  170SOPE   H8R19199   3.972   4.805   7.428  0.5409 -1.2731 -0.1361
  170SOPE   H8S19200   4.028   4.723   7.283 -0.0168 -0.0387 -0.1015
  170SOPE   C2919201   4.167   4.867   7.356 -0.8799  0.1503 -0.2419
  170SOPE   H9119202   4.253   4.826   7.301 -0.8805 -0.1188 -0.0478
  170SOPE  C21019203   4.199   4.950   7.457  0.1553  0.7743 -0.2722
  170SOPE  H10119204   4.306   4.968   7.474  0.3946  1.5897 -2.3692
  170SOPE  C21119205   4.104   5.003   7.558  0.3884 -0.4003 -0.9903
  170SOPE  H11R19206   4.046   4.924   7.610  1.8236 -0.9994 -0.2534
  170SOPE  H11S19207   4.034   5.080   7.517 -2.6774 -1.6724  1.4603
  170SOPE  C21219208   4.188   5.065   7.671  0.3000 -0.5455  0.3235
  170SOPE  H12R19209   4.252   5.143   7.625 -1.9885  1.2091 -0.1190
  170SOPE  H12S19210   4.250   4.991   7.725 -0.0603 -0.4682  0.8635
  170SOPE  C21319211   4.095   5.140   7.761  0.7846 -0.5338 -0.3893
  170SOPE  H13R19212   4.013   5.074   7.797  0.2077 -0.0421 -0.7575
  170SOPE  H13S19213   4.048   5.228   7.711  2.5642  0.8535  0.2935
  170SOPE  C21419214   4.158   5.173   7.895  0.0853 -0.0877 -0.6082
  170SOPE  H14R19215   4.074   5.231   7.936 -1.4320 -2.8669  0.4914
  170SOPE  H14S19216   4.251   5.227   7.865  1.5826 -2.0214  0.3026
  170SOPE  C21519217   4.197   5.054   7.995 -0.1469  0.4830  0.4027
  170SOPE  H15R19218   4.265   5.088   8.076  1.2147 -0.3653 -0.3573
  170SOPE  H15S19219   4.253   4.984   7.930 -1.9434  1.6331 -2.5907
  170SOPE  C21619220   4.078   4.988   8.062 -0.2577 -0.2455 -0.3744
  170SOPE  H16R19221   4.000   4.967   7.986 -0.7004  0.9493 -0.2749
  170SOPE  H16S19222   4.035   5.055   8.139  0.4983 -0.5181  0.2986
  170SOPE  C21719223   4.119   4.851   8.132  0.3392  0.1454 -0.1314
  170SOPE  H17R19224   4.207   4.866   8.199  0.5566 -1.4151 -0.0273
  170SOPE  H17S19225   4.144   4.779   8.052 -2.6157  1.9346 -2.9394
  170SOPE  C21819226   4.006   4.785   8.209  0.2487 -0.7140 -0.4982
  170SOPE  H18R19227   3.977   4.849   8.295  0.5593  0.6787 -1.3829
  170SOPE  H18S19228   4.043   4.684   8.234 -1.4862 -1.2636 -0.0185
  170SOPE  H18T19229   3.918   4.766   8.144 -0.3116 -1.2423  0.4009
  170SOPE   C3319230   3.683   4.381   7.219 -1.1744  0.2433  0.5629
  170SOPE   H3X19231   3.772   4.416   7.275 -0.5143 -0.3650 -0.0863
  170SOPE   H3Y19232   3.727   4.299   7.158  0.8295  0.9790  0.9462
  170SOPE   C3419233   3.598   4.308   7.325  0.1636  0.3352 -0.1356
  170SOPE   H4X19234   3.518   4.255   7.270  0.5972  1.9466 -2.5209
  170SOPE   H4Y19235   3.561   4.391   7.389  1.8120  0.4697  0.7155
  170SOPE   C3519236   3.678   4.215   7.418  0.0680 -0.5644  0.0068
  170SOPE   H5X19237   3.769   4.266   7.456 -0.1217 -0.4871  0.3651
  170SOPE   H5Y19238   3.714   4.126   7.363  0.9637 -0.2954  0.1365
  170SOPE   C3619239   3.589   4.172   7.542  0.1806 -0.0229 -0.7917
  170SOPE   H6X19240   3.662   4.126   7.612  0.9119  0.3586 -1.2780
  170SOPE   H6Y19241   3.501   4.108   7.520 -2.2453  2.6984  0.4305
  170SOPE   C3719242   3.539   4.297   7.619  0.2717 -0.2781  0.0537
  170SOPE   H7X19243   3.436   4.328   7.592  0.0140 -1.2170 -0.0530
  170SOPE   H7Y19244   3.608   4.383   7.602  0.5354 -0.0282  2.1530
  170SOPE   C3819245   3.538   4.282   7.773 -0.4813 -0.5988  0.0560
  170SOPE   H8X19246   3.638   4.264   7.818  1.0511  2.6783 -1.7062
  170SOPE   H8Y19247   3.477   4.198   7.812  0.7699 -2.4751 -1.8023
  170SOPE   C3919248   3.490   4.413   7.842 -0.0662 -0.6950 -0.1501
  170SOPE   H9X19249   3.497   4.394   7.951  0.2083  0.6214  0.0857
  170SOPE   H9Y19250   3.384   4.426   7.813 -0.2576  0.2502  0.8909
  170SOPE  C31019251   3.571   4.537   7.814 -1.2202 -0.6151  0.7248
  170SOPE  H10X19252   3.575   4.563   7.706  0.8604  1.3149  1.1961
  170SOPE  H10Y19253   3.675   4.523   7.851 -0.6589  0.6987 -0.2564
  170SOPE  C31119254   3.509   4.661   7.874 -0.4968  0.0376  0.1892
  170SOPE  H11X19255   3.499   4.636   7.982 -0.0204 -4.1688 -0.5841
  170SOPE  H11Y19256   3.404   4.665   7.840 -1.3525 -1.0795  2.4572
  170SOPE  C31219257   3.596   4.786   7.850  0.6312 -0.3659 -0.2414
  170SOPE  H12X19258   3.704   4.761   7.857  1.1110  2.1108  3.2350
  170SOPE  H12Y19259   3.576   4.852   7.937  0.1131 -0.6940 -0.1050
  170SOPE  C31319260   3.549   4.857   7.722 -0.3962 -0.9703 -0.1337
  170SOPE  H13X19261   3.446   4.893   7.741  0.0873  1.8808 -2.2937
  170SOPE  H13Y19262   3.532   4.792   7.633 -0.2226 -0.2377 -0.7181
  170SOPE  C31419263   3.635   4.983   7.695  0.4518  0.0306 -0.1639
  170SOPE  H14X19264   3.742   4.969   7.721  0.0475  0.4187  1.8964
  170SOPE  H14Y19265   3.600   5.060   7.768 -1.3940 -1.5232  0.6512
  170SOPE  C31519266   3.613   5.056   7.561  0.4490  0.4609 -0.4158
  170SOPE  H15X19267   3.519   5.115   7.557  1.5429  2.4322  1.0782
  170SOPE  H15Y19268   3.608   4.984   7.477  0.6349  0.5752 -0.5270
  170SOPE  C31619269   3.739   5.150   7.534  0.0108  0.5250  0.1043
  170SOPE  H16X19270   3.738   5.199   7.434  4.5477 -0.1639 -0.4944
  170SOPE  H16Y19271   3.833   5.091   7.545  1.1282  1.9579 -1.1352
  170SOPE  C31719272   3.739   5.267   7.639 -0.5025  0.2214 -0.5038
  170SOPE  H17X19273   3.831   5.325   7.617 -0.2898  0.0413 -0.0922
  170SOPE  H17Y19274   3.742   5.226   7.742  1.3868 -2.7190 -1.5937
  170SOPE  C31819275   3.626   5.363   7.613 -0.4591 -0.2811  0.3007
  170SOPE  H18X19276   3.527   5.313   7.623 -0.8589  0.3273 -0.4797
  170SOPE  H18Y19277   3.632   5.394   7.506  1.8233 -0.2333  0.3917
  170SOPE  H18Z19278   3.623   5.452   7.679 -1.9596  0.5090 -0.7743
  171SOPE     N19279   4.273   3.282   6.292  0.5521 -0.3439 -0.0019
  171SOPE   HN119280   4.254   3.379   6.326 -1.2088 -0.8834  0.6763
  171SOPE   HN219281   4.351   3.285   6.224  0.2142  1.9037 -0.3863
  171SOPE   HN319282   4.181   3.268   6.245 -0.6309  0.6766  1.8525
  171SOPE   C1219283   4.318   3.180   6.387 -0.3469  0.4146  0.0520
  171SOPE  H12A19284   4.243   3.175   6.469 -2.9720 -3.2367 -2.2418
  171SOPE  H12B19285   4.420   3.207   6.421 -0.1692 -1.1625  0.8522
  171SOPE   C1119286   4.318   3.038   6.322 -0.2705 -0.7035 -0.2911
  171SOPE  H11A19287   4.395   2.976   6.372  0.3079  2.1852  2.8177
  171SOPE  H11B19288   4.353   3.040   6.217  0.2493  0.0382 -0.1130
  171SOPE     P19289   4.163   2.828   6.318 -0.4177  0.3713 -0.2863
  171SOPE   O1319290   4.245   2.767   6.211 -0.1791 -0.2210 -0.6319
  171SOPE   O1419291   4.018   2.802   6.311  0.1632 -0.0410  0.0259
  171SOPE   O1219292   4.188   2.985   6.335  0.3455 -0.1146 -0.0812
  171SOPE   O1119293   4.213   2.776   6.458 -0.0159  0.6421 -1.0216
  171SOPE    C119294   4.147   2.815   6.575  0.7293  0.2138  0.7624
  171SOPE    HA19295   4.128   2.924   6.572 -1.7009 -0.2010 -1.2941
  171SOPE    HB19296   4.216   2.798   6.661  3.2793  0.9191 -1.0259
  171SOPE    C219297   4.015   2.743   6.611 -0.4725 -0.0752  0.1321
  171SOPE    HS19298   3.939   2.778   6.539  0.1703  1.3534  0.1242
  171SOPE   O2119299   3.980   2.771   6.744 -0.3741  1.0415 -0.5364
  171SOPE   C2119300   3.926   2.890   6.762 -0.4432  0.5490  0.4252
  171SOPE   O2219301   3.915   2.978   6.679 -0.1413  0.2620  0.1698
  171SOPE   C2219302   3.877   2.903   6.909  0.5747  0.3113  0.4612
  171SOPE   H2R19303   3.773   2.863   6.919  0.9273 -0.8546 -0.2615
  171SOPE   H2S19304   3.859   3.012   6.909 -0.5475  0.1561 -0.5736
  171SOPE    C319305   4.008   2.589   6.577 -1.1739  1.0862 -0.2768
  171SOPE    HX19306   4.100   2.545   6.620 -0.2245  3.8594  0.8008
  171SOPE    HY19307   4.014   2.575   6.467 -0.3780 -0.4742 -0.0660
  171SOPE   O3119308   3.900   2.524   6.646  0.7148  0.2452  0.2619
  171SOPE   C3119309   3.781   2.539   6.587 -0.5860 -0.4537 -0.1783
  171SOPE   O3219310   3.771   2.582   6.471 -0.0154 -0.0975  0.1045
  171SOPE   C3219311   3.677   2.490   6.684  0.1605  0.4011  0.6435
  171SOPE   H2X19312   3.721   2.424   6.762 -1.3624 -3.1899 -1.2865
  171SOPE   H2Y19313   3.603   2.427   6.631 -1.4637  0.9181  2.1946
  171SOPE   C2319314   3.960   2.839   7.020  0.6424 -0.4914 -0.0357
  171SOPE   H3R19315   4.066   2.872   7.017  0.7835 -0.8059  0.9098
  171SOPE   H3S19316   3.960   2.728   7.007 -0.8076 -0.3637 -1.3751
  171SOPE   C2419317   3.909   2.868   7.168 -0.1358  0.5597 -0.2045
  171SOPE   H4R19318   3.890   2.973   7.199 -0.9532  0.1774  0.6115
  171SOPE   H4S19319   3.810   2.819   7.176  0.0618  0.2638  0.5038
  171SOPE   C2519320   4.011   2.811   7.270 -0.7952 -0.0121  0.4053
  171SOPE   H5R19321   4.035   2.704   7.255 -2.1908 -0.1453 -1.2738
  171SOPE   H5S19322   4.110   2.859   7.257 -0.3397 -1.1166 -0.3050
  171SOPE   C2619323   3.979   2.823   7.424  0.1453 -0.0545  0.3714
  171SOPE   H6R19324   3.955   2.930   7.442 -0.8729 -0.1322 -0.4615
  171SOPE   H6S19325   3.885   2.769   7.444  0.2966 -0.0148  1.2222
  171SOPE   C2719326   4.088   2.790   7.528 -0.7559  0.0559  0.6099
  171SOPE   H7R19327   4.127   2.693   7.490  0.4180 -0.0283  1.9462
  171SOPE   H7S19328   4.163   2.871   7.527 -0.1622 -0.4276 -1.8910
  171SOPE   C2819329   4.024   2.767   7.659 -0.2457  0.2479  0.4564
  171SOPE   H8R19330   3.999   2.867   7.702  1.2145  0.6236  0.4822
  171SOPE   H8S19331   3.928   2.713   7.647  0.5139 -0.6044 -2.5223
  171SOPE   C2919332   4.110   2.704   7.755 -0.3616  0.3180  0.3258
  171SOPE   H9119333   4.173   2.624   7.712  1.6245  2.7877 -1.6735
  171SOPE  C21019334   4.125   2.729   7.887  0.8932 -0.0877  0.2121
  171SOPE  H10119335   4.198   2.672   7.946  1.4914 -2.0089 -2.2056
  171SOPE  C21119336   4.029   2.820   7.958 -0.2473  0.2175 -0.0507
  171SOPE  H11R19337   3.931   2.812   7.907  0.2427 -0.0551 -0.9568
  171SOPE  H11S19338   4.068   2.922   7.936  3.4625 -0.9931  0.2072
  171SOPE  C21219339   3.993   2.786   8.106 -0.4637  0.2131 -0.4599
  171SOPE  H12R19340   3.969   2.678   8.112 -0.6763  0.2662 -0.3650
  171SOPE  H12S19341   3.903   2.831   8.154 -0.8869 -1.7404  0.6874
  171SOPE  C21319342   4.116   2.816   8.193  0.1693  0.3218 -0.8148
  171SOPE  H13R19343   4.167   2.914   8.183 -0.3449  0.7521  0.4981
  171SOPE  H13S19344   4.201   2.752   8.161  1.8290  2.0181 -0.0132
  171SOPE  C21419345   4.095   2.782   8.347  0.2348  0.3488  0.2527
  171SOPE  H14R19346   4.181   2.820   8.406 -0.3125  1.4428  0.3837
  171SOPE  H14S19347   4.098   2.672   8.361  0.2450  0.1275 -1.2380
  171SOPE  C21519348   3.965   2.840   8.402  0.3175 -0.2470 -0.0216
  171SOPE  H15R19349   3.969   2.816   8.511  0.8231  0.3403  0.0983
  171SOPE  H15S19350   3.878   2.780   8.367  1.8361 -1.9226 -1.1120
  171SOPE  C21619351   3.951   2.984   8.378  0.9435 -1.0629 -0.0878
  171SOPE  H16R19352   3.961   2.997   8.268 -0.3321 -0.8952 -0.2065
  171SOPE  H16S19353   4.038   3.035   8.425  0.0198 -0.7638  1.3558
  171SOPE  C21719354   3.819   3.065   8.419 -0.3086  0.2620  0.0570
  171SOPE  H17R19355   3.736   3.008   8.371 -1.3157  0.6343  1.3274
  171SOPE  H17S19356   3.823   3.168   8.378 -1.7312 -0.1035 -1.0963
  171SOPE  C21819357   3.795   3.071   8.571  0.5056  0.7104  0.9552
  171SOPE  H18R19358   3.704   3.132   8.589  0.8311  1.4155  0.2551
  171SOPE  H18S19359   3.878   3.118   8.628 -0.6182  4.4646 -0.2156
  171SOPE  H18T19360   3.764   2.969   8.601  0.9267  0.2512 -0.1228
  171SOPE   C3319361   3.612   2.608   6.759  0.2828 -0.5071 -0.2390
  171SOPE   H3X19362   3.601   2.700   6.699 -2.3393 -0.1691  0.6212
  171SOPE   H3Y19363   3.680   2.653   6.834  1.1058  2.0121 -2.3328
  171SOPE   C3419364   3.489   2.565   6.839 -0.1497 -0.4418  0.5116
  171SOPE   H4X19365   3.505   2.480   6.909  1.4147  0.1773  0.9426
  171SOPE   H4Y19366   3.416   2.524   6.765  0.1382 -0.0131 -0.0223
  171SOPE   C3519367   3.423   2.687   6.917 -0.4485  0.3250  0.0833
  171SOPE   H5X19368   3.324   2.659   6.957 -0.5884  1.5432  0.6298
  171SOPE   H5Y19369   3.404   2.771   6.846 -0.6503  0.3400  0.1574
  171SOPE   C3619370   3.490   2.745   7.036  0.0584 -0.3118 -0.0940
  171SOPE   H6X19371   3.423   2.817   7.090 -2.6261 -4.1298  2.1952
  171SOPE   H6Y19372   3.581   2.800   7.004 -1.2671  1.8665 -0.3483
  171SOPE   C3719373   3.516   2.640   7.153  0.3172  0.0006 -1.1325
  171SOPE   H7X19374   3.581   2.566   7.103 -1.3675 -0.9439 -2.0211
  171SOPE   H7Y19375   3.418   2.591   7.171 -0.8459  2.8956  1.3236
  171SOPE   C3819376   3.559   2.706   7.283 -0.5685 -0.1303  0.1375
  171SOPE   H8X19377   3.502   2.799   7.301  0.4475  0.8911 -1.6708
  171SOPE   H8Y19378   3.668   2.727   7.273 -0.4668 -0.9619 -0.5778
  171SOPE   C3919379   3.536   2.616   7.408 -0.5042  0.2244  0.6333
  171SOPE   H9X19380   3.606   2.530   7.404 -1.9001 -1.0110  1.4613
  171SOPE   H9Y19381   3.430   2.583   7.406 -0.3450 -0.3004 -0.6383
  171SOPE  C31019382   3.559   2.685   7.536  0.3567 -0.6511  0.1112
  171SOPE  H10X19383   3.492   2.772   7.554  0.3357 -0.7577  0.5394
  171SOPE  H10Y19384   3.660   2.729   7.521 -0.1546  0.7158  0.5172
  171SOPE  C31119385   3.542   2.584   7.652  0.2092  0.6365  0.3174
  171SOPE  H11X19386   3.574   2.480   7.632 -0.1036  0.4264  0.9076
  171SOPE  H11Y19387   3.434   2.576   7.677 -0.7927  0.2430 -3.5049
  171SOPE  C31219388   3.610   2.640   7.776  0.5785 -0.3620 -0.0923
  171SOPE  H12X19389   3.567   2.742   7.791 -2.4145 -1.3033 -1.3420
  171SOPE  H12Y19390   3.720   2.649   7.779  0.4135  1.9100  1.6821
  171SOPE  C31319391   3.574   2.562   7.899 -0.1483  0.4889 -0.3610
  171SOPE  H13X19392   3.615   2.459   7.889  0.2255  0.7763 -2.1753
  171SOPE  H13Y19393   3.463   2.553   7.905 -0.0938  0.0781  0.1191
  171SOPE  C31419394   3.642   2.625   8.029  0.3927 -0.4992  0.6887
  171SOPE  H14X19395   3.595   2.723   8.048 -1.9504 -1.4306  0.0899
  171SOPE  H14Y19396   3.752   2.634   8.016  0.0641  2.7997 -0.6862
  171SOPE  C31519397   3.613   2.541   8.157 -0.8291 -0.7766 -0.6130
  171SOPE  H15X19398   3.651   2.438   8.140 -0.5379 -0.8002  0.1552
  171SOPE  H15Y19399   3.505   2.524   8.178 -0.7984 -0.7858 -0.4637
  171SOPE  C31619400   3.681   2.605   8.281 -0.3735  0.2146  1.1746
  171SOPE  H16X19401   3.641   2.709   8.278  0.7362  0.6485  1.0479
  171SOPE  H16Y19402   3.789   2.615   8.258 -0.3410 -0.5045  0.9788
  171SOPE  C31719403   3.648   2.535   8.409 -1.0613 -0.4400 -0.4049
  171SOPE  H17X19404   3.681   2.429   8.407  1.1066  0.1360  1.0697
  171SOPE  H17Y19405   3.540   2.539   8.434 -0.8723  2.7868  0.3353
  171SOPE  C31819406   3.717   2.588   8.536  0.3384 -0.7233  0.1191
  171SOPE  H18X19407   3.684   2.693   8.551 -1.3697 -0.9911 -1.3664
  171SOPE  H18Y19408   3.828   2.586   8.531  0.3595  1.1361 -1.9656
  171SOPE  H18Z19409   3.698   2.531   8.629  0.7121 -1.2423 -0.1194
  172SOPE     N19410   3.680   4.019   6.380  0.6791  0.8766 -0.2110
  172SOPE   HN119411   3.728   4.058   6.464  1.8691  0.8868 -0.8820
  172SOPE   HN219412   3.749   3.966   6.323  1.1064 -1.3227  2.1183
  172SOPE   HN319413   3.643   4.104   6.335  0.0030  1.1546  0.8234
  172SOPE   C1219414   3.565   3.921   6.423 -0.6474  1.3040 -0.2292
  172SOPE  H12A19415   3.506   3.886   6.335 -0.6505  0.8671 -0.0546
  172SOPE  H12B19416   3.500   3.978   6.493 -2.2046 -1.1880  0.4935
  172SOPE   C1119417   3.628   3.795   6.490  0.0029  0.0627 -0.1183
  172SOPE  H11A19418   3.549   3.717   6.498 -1.0728  1.3028  2.6985
  172SOPE  H11B19419   3.654   3.818   6.595 -0.8217 -0.4717  0.2136
  172SOPE     P19420   3.878   3.726   6.476 -0.1467 -0.1490  0.2575
  172SOPE   O1319421   3.936   3.854   6.516  0.0349 -0.1924  0.1139
  172SOPE   O1419422   3.964   3.645   6.384 -0.4291 -0.6987  0.2503
  172SOPE   O1219423   3.738   3.749   6.419  0.4030  0.2194 -0.3044
  172SOPE   O1119424   3.844   3.639   6.605 -0.7543  0.5338 -0.0141
  172SOPE    C119425   3.787   3.505   6.584 -0.3346  0.0649 -0.3977
  172SOPE    HA19426   3.866   3.430   6.564 -1.0065 -0.1090 -2.7277
  172SOPE    HB19427   3.719   3.500   6.497 -0.4989 -0.7520 -0.2257
  172SOPE    C219428   3.697   3.458   6.699 -0.2030  0.1871  0.9601
  172SOPE    HS19429   3.603   3.517   6.689 -0.4246 -0.5362 -2.5709
  172SOPE   O2119430   3.769   3.472   6.827 -0.0074  0.4056  0.0105
  172SOPE   C2119431   3.757   3.591   6.868 -0.7701 -0.0032 -0.5763
  172SOPE   O2219432   3.685   3.683   6.831  0.2068 -0.2194  0.3970
  172SOPE   C2219433   3.850   3.614   6.992 -0.1263 -0.0876 -0.5323
  172SOPE   H2R19434   3.865   3.724   6.986 -1.4709  0.1169 -0.5901
  172SOPE   H2S19435   3.951   3.576   6.970  0.2160  1.3015 -1.5528
  172SOPE    C319436   3.640   3.320   6.696 -1.1126  0.2661 -0.0850
  172SOPE    HX19437   3.728   3.253   6.704 -0.7269  0.7048 -0.5762
  172SOPE    HY19438   3.591   3.288   6.602 -1.0281  1.7564 -0.6775
  172SOPE   O3119439   3.547   3.306   6.805 -0.7630 -0.0566 -0.5772
  172SOPE   C3119440   3.575   3.203   6.882  1.0152 -0.1014 -0.4367
  172SOPE   O3219441   3.647   3.111   6.848 -0.3894  0.2844 -0.9521
  172SOPE   C3219442   3.509   3.222   7.017  0.5269 -0.2120 -0.2689
  172SOPE   H2X19443   3.413   3.167   7.008  0.8362 -0.8110  0.0846
  172SOPE   H2Y19444   3.480   3.329   7.027 -1.4336 -0.3466 -3.0451
  172SOPE   C2319445   3.792   3.564   7.126  0.0280  0.1146  0.2408
  172SOPE   H3R19446   3.867   3.580   7.206  0.9323 -0.7672 -0.4041
  172SOPE   H3S19447   3.769   3.456   7.111 -0.5801  0.3249 -0.3988
  172SOPE   C2419448   3.674   3.636   7.177  0.2637 -0.6342  0.5097
  172SOPE   H4R19449   3.711   3.738   7.202  0.2122 -0.3995 -0.3453
  172SOPE   H4S19450   3.587   3.649   7.109 -0.2760  1.7298  1.5352
  172SOPE   C2519451   3.604   3.570   7.304  0.0527 -0.0865  0.6946
  172SOPE   H5R19452   3.584   3.463   7.282 -2.2834  0.9645 -3.3338
  172SOPE   H5S19453   3.667   3.574   7.395 -1.0607 -1.0064  1.5393
  172SOPE   C2619454   3.465   3.632   7.329  0.0431 -0.4807 -0.0451
  172SOPE   H6R19455   3.408   3.658   7.238 -0.5523 -0.0670  0.4326
  172SOPE   H6S19456   3.398   3.560   7.381 -1.0950  1.0741  0.7054
  172SOPE   C2719457   3.474   3.755   7.422 -0.6192 -0.1732  0.0450
  172SOPE   H7R19458   3.552   3.735   7.499 -2.2954  1.6259  2.3803
  172SOPE   H7S19459   3.510   3.850   7.376 -2.3799  0.6852  0.3738
  172SOPE   C2819460   3.342   3.772   7.501 -0.6681  0.1122 -0.3500
  172SOPE   H8R19461   3.257   3.812   7.441 -0.9702  1.1093  0.7083
  172SOPE   H8S19462   3.306   3.671   7.530  2.3433 -0.9803 -0.1182
  172SOPE   C2919463   3.353   3.858   7.623 -0.9897  0.4669  0.7888
  172SOPE   H9119464   3.371   3.966   7.613 -1.1916  0.6366  2.0165
  172SOPE  C21019465   3.339   3.820   7.752  0.2085  0.2878 -0.0084
  172SOPE  H10119466   3.360   3.884   7.839  0.5791 -0.4049  0.4247
  172SOPE  C21119467   3.306   3.679   7.794  0.7894  0.3126 -0.1488
  172SOPE  H11R19468   3.391   3.608   7.781  0.2046 -0.4451  0.1271
  172SOPE  H11S19469   3.214   3.641   7.745  0.9310  1.2026 -1.1514
  172SOPE  C21219470   3.273   3.685   7.950  0.1337 -0.2253  0.2703
  172SOPE  H12R19471   3.362   3.725   8.002 -0.5074  2.7229 -0.7325
  172SOPE  H12S19472   3.245   3.584   7.987 -2.0681 -0.2907 -1.3516
  172SOPE  C21319473   3.147   3.769   7.982  0.0659  0.6793 -0.1309
  172SOPE  H13R19474   3.104   3.794   7.883  1.2635  1.6592 -0.4287
  172SOPE  H13S19475   3.163   3.867   8.033  0.2394 -0.6478  2.5636
  172SOPE  C21419476   3.036   3.700   8.064  0.0012 -0.6067  0.5863
  172SOPE  H14R19477   3.030   3.596   8.025  1.0794 -0.1357 -0.9337
  172SOPE  H14S19478   2.941   3.755   8.047  0.4633  0.0978  0.2540
  172SOPE  C21519479   3.066   3.706   8.215  0.1337 -0.3151 -0.2800
  172SOPE  H15R19480   3.110   3.805   8.237  1.7786 -0.9842 -0.3930
  172SOPE  H15S19481   3.149   3.633   8.230  1.7498  1.4887  0.0502
  172SOPE  C21619482   2.943   3.666   8.304  0.8642  0.3340 -0.2338
  172SOPE  H16R19483   2.982   3.654   8.407  2.1412 -0.3715 -0.7671
  172SOPE  H16S19484   2.903   3.566   8.277  2.7656 -0.6767  0.4659
  172SOPE  C21719485   2.819   3.756   8.290  0.4946 -0.4081  0.1639
  172SOPE  H17R19486   2.738   3.718   8.357  1.9450 -3.1095  0.5062
  172SOPE  H17S19487   2.781   3.748   8.186 -0.2502 -0.3299  0.4203
  172SOPE  C21819488   2.844   3.907   8.316  0.1257 -0.0404 -0.6348
  172SOPE  H18R19489   2.935   3.944   8.263 -0.0934  0.7751 -0.4601
  172SOPE  H18S19490   2.845   3.940   8.422  0.8481 -0.3095 -0.5565
  172SOPE  H18T19491   2.751   3.957   8.279  0.4000  0.8766 -0.1118
  172SOPE   C3319492   3.591   3.166   7.131 -0.2939 -0.4330 -0.2302
  172SOPE   H3X19493   3.669   3.238   7.164  0.3903 -1.7264  1.1094
  172SOPE   H3Y19494   3.643   3.073   7.103 -1.1988 -1.0487  0.1047
  172SOPE   C3419495   3.507   3.138   7.253  0.0408 -0.2876 -0.0942
  172SOPE   H4X19496   3.416   3.084   7.220  0.3563 -2.9336  2.8999
  172SOPE   H4Y19497   3.468   3.234   7.295 -0.4069 -0.5561  0.1068
  172SOPE   C3519498   3.571   3.065   7.367 -0.5658  0.6211  0.2464
  172SOPE   H5X19499   3.618   2.967   7.343  0.7824  1.3207 -0.0651
  172SOPE   H5Y19500   3.489   3.064   7.442 -1.5037  0.7694 -0.7541
  172SOPE   C3619501   3.691   3.139   7.424 -0.2942 -0.2225 -0.4716
  172SOPE   H6X19502   3.653   3.238   7.457  0.0347 -0.2543  0.0108
  172SOPE   H6Y19503   3.776   3.129   7.353  2.4384  0.4403  2.5018
  172SOPE   C3719504   3.742   3.067   7.553 -0.2951 -0.3670 -0.2640
  172SOPE   H7X19505   3.838   3.108   7.590 -1.3193  3.3549 -1.2972
  172SOPE   H7Y19506   3.750   2.957   7.536 -1.2914 -1.0746  3.0333
  172SOPE   C3819507   3.639   3.076   7.672  0.7857 -0.2854  0.3137
  172SOPE   H8X19508   3.550   3.022   7.633  1.3778  0.5818 -2.4273
  172SOPE   H8Y19509   3.606   3.179   7.696 -0.7187 -0.3432 -1.3140
  172SOPE   C3919510   3.691   3.015   7.809  0.2808  0.2462  0.1601
  172SOPE   H9X19511   3.786   3.060   7.845  0.0004 -0.1781  1.5053
  172SOPE   H9Y19512   3.716   2.909   7.786  1.4060  0.7910 -1.2350
  172SOPE  C31019513   3.597   3.023   7.932 -0.1451 -0.1637 -0.2857
  172SOPE  H10X19514   3.656   2.986   8.018 -1.5909  1.9917  1.7776
  172SOPE  H10Y19515   3.511   2.955   7.913 -0.8738  0.2681  1.3080
  172SOPE  C31119516   3.552   3.164   7.972  0.8732  0.0274 -0.3597
  172SOPE  H11X19517   3.450   3.177   7.928  0.9587 -2.3272 -1.4099
  172SOPE  H11Y19518   3.614   3.243   7.924  1.3462 -0.9369 -1.3857
  172SOPE  C31219519   3.552   3.181   8.123  0.8737 -0.5266  0.0931
  172SOPE  H12X19520   3.649   3.158   8.172  1.3445  3.1243  1.2496
  172SOPE  H12Y19521   3.480   3.107   8.165 -0.1738  0.1583 -0.4420
  172SOPE  C31319522   3.513   3.324   8.146  0.1218 -0.0623 -0.6654
  172SOPE  H13X19523   3.420   3.350   8.092 -0.2401 -0.4080 -0.2140
  172SOPE  H13Y19524   3.590   3.390   8.099  0.9001 -1.8015 -1.9698
  172SOPE  C31419525   3.504   3.369   8.294  0.1585  0.3454  0.4639
  172SOPE  H14X19526   3.605   3.389   8.337  0.0946 -1.9259  1.8214
  172SOPE  H14Y19527   3.460   3.283   8.349  1.7903 -0.4636  0.5684
  172SOPE  C31519528   3.412   3.497   8.321  0.1701 -0.3905 -0.6023
  172SOPE  H15X19529   3.305   3.471   8.311  0.0557 -0.5677  0.8609
  172SOPE  H15Y19530   3.446   3.571   8.245  1.4928  0.1104  0.4252
  172SOPE  C31619531   3.425   3.542   8.467 -0.0448 -0.2332  0.7434
  172SOPE  H16X19532   3.373   3.639   8.455  1.4797  0.5415  0.1271
  172SOPE  H16Y19533   3.532   3.562   8.487 -0.1048  1.1190 -0.1267
  172SOPE  C31719534   3.352   3.460   8.578 -0.3565 -0.1927  0.3835
  172SOPE  H17X19535   3.367   3.521   8.669  1.4087 -1.1462  0.7738
  172SOPE  H17Y19536   3.401   3.362   8.595 -1.6240 -1.3014 -1.8273
  172SOPE  C31819537   3.199   3.435   8.551 -0.2005 -0.5788 -0.2780
  172SOPE  H18X19538   3.148   3.375   8.630  2.4821 -0.7014  1.4970
  172SOPE  H18Y19539   3.183   3.370   8.462  2.9819  0.9856 -2.1777
  172SOPE  H18Z19540   3.135   3.525   8.547 -0.1962 -0.2985  3.2140
  173SAPI   C1219541   4.700   2.236  10.582  0.3980 -0.0713  0.0842
  173SAPI    H219542   4.802   2.209  10.547  0.3546 -1.8061  1.1778
  173SAPI    O219543   4.669   2.369  10.534  0.3442  0.2314 -0.1959
  173SAPI   HO219544   4.723   2.391  10.458  0.2011  3.6932  0.5499
  173SAPI   C1319545   4.588   2.137  10.533  0.0804  0.1624  0.4339
  173SAPI    H319546   4.605   2.033  10.568 -0.4431  0.1418  0.6444
  173SAPI    O319547   4.570   2.133  10.391  0.1020  0.0761 -0.3165
  173SAPI   HO319548   4.512   2.059  10.373 -0.6496 -0.1649  2.6224
  173SAPI   C1419549   4.467   2.183  10.604 -0.1786  0.0586 -0.4928
  173SAPI    H419550   4.430   2.283  10.575 -1.5480  0.2477  1.6577
  173SAPI    O419551   4.358   2.093  10.570 -0.5442  0.3319 -0.4423
  173SAPI   HO419552   4.382   2.037  10.496  1.6003 -1.4842  1.4654
  173SAPI   C1519553   4.482   2.177  10.752  0.9295  0.4853 -0.2279
  173SAPI    H519554   4.507   2.070  10.773  0.2767  0.5713  1.0841
  173SAPI    O519555   4.358   2.210  10.813 -0.5429 -0.2874 -0.0909
  173SAPI   HO519556   4.340   2.299  10.781  0.5631  0.5866  1.5820
  173SAPI   C1619557   4.591   2.269  10.803 -0.0136  0.0716  0.4606
  173SAPI    H619558   4.565   2.374  10.778  0.9176  0.3361  0.5854
  173SAPI    O619559   4.604   2.271  10.948 -0.1008 -0.4755  0.4762
  173SAPI   HO619560   4.667   2.201  10.968 -0.6705 -1.2644 -0.4150
  173SAPI   C1119561   4.724   2.238  10.736 -0.4181 -0.1730  0.3726
  173SAPI    H119562   4.739   2.133  10.770 -2.0000 -1.4024 -2.4498
  173SAPI     P19563   4.973   2.266  10.834  0.1092 -0.0566 -0.0197
  173SAPI   O1319564   4.956   2.158  10.931  0.3501 -0.5415  0.0006
  173SAPI   O1419565   5.051   2.383  10.879  0.1845  0.7153  0.0730
  173SAPI   O1219566   4.832   2.320  10.770  0.2509 -0.2502 -0.3777
  173SAPI   O1119567   5.042   2.207  10.702  0.4582 -0.3024  0.4549
  173SAPI    C119568   5.152   2.271  10.640 -0.2407 -0.1257  0.8193
  173SAPI    HA19569   5.214   2.341  10.699  1.0303  1.5479 -2.2323
  173SAPI    HB19570   5.221   2.200  10.589 -2.2344 -1.0052 -0.7980
  173SAPI    C219571   5.091   2.346  10.515 -0.1420  0.1529  0.1802
  173SAPI    HS19572   5.003   2.400  10.557  0.3830  1.3147 -0.1693
  173SAPI   O2119573   5.048   2.241  10.424  0.3278  0.2386 -0.3722
  173SAPI   C2119574   4.960   2.276  10.335  0.2196 -0.6536 -0.8077
  173SAPI   O2219575   4.906   2.385  10.329 -0.7036  0.0315 -0.3451
  173SAPI   C2219576   4.926   2.156  10.255  0.4375  0.5920 -0.2829
  173SAPI   H2R19577   5.020   2.127  10.202  1.5583  3.3498  0.0362
  173SAPI   H2S19578   4.897   2.074  10.324  0.4622 -0.0551 -1.0300
  173SAPI    C319579   5.183   2.451  10.460  0.5699  0.5161 -0.0832
  173SAPI    HX19580   5.249   2.496  10.537 -0.8376  0.1733  1.3792
  173SAPI    HY19581   5.121   2.537  10.426  1.9124  0.9963 -1.4207
  173SAPI   O3119582   5.259   2.406  10.343 -0.5576 -0.5185  0.3955
  173SAPI   C3119583   5.394   2.393  10.370  0.1814  0.1140 -0.5066
  173SAPI   O3219584   5.446   2.416  10.477 -0.9035 -0.4238 -0.5993
  173SAPI   C3219585   5.471   2.351  10.244 -0.0895 -0.6767 -0.8035
  173SAPI   H2X19586   5.390   2.335  10.169 -1.5226 -0.9810  0.7580
  173SAPI   H2Y19587   5.505   2.251  10.278  0.7925  0.5436  2.2502
  173SAPI   C2319588   4.805   2.165  10.152 -0.4595 -0.4194  0.6040
  173SAPI   H3R19589   4.826   2.220  10.058  0.8892 -4.0214 -1.3878
  173SAPI   H3S19590   4.723   2.225  10.196 -1.0540 -0.0281 -0.9725
  173SAPI   C2419591   4.753   2.026  10.101 -1.0390 -0.8355  0.5266
  173SAPI   H4R19592   4.647   2.019  10.067 -0.7711  1.2547 -0.9642
  173SAPI   H4S19593   4.762   1.953  10.185  0.0295  0.0391  1.2029
  173SAPI   C2519594   4.855   1.965  10.002  0.1613  0.2715  0.0441
  173SAPI   H5R19595   4.939   1.911  10.048  0.1063 -1.0672 -1.3505
  173SAPI   C2619596   4.833   1.951   9.869 -0.4945 -0.3392 -0.5619
  173SAPI   H6R19597   4.908   1.896   9.811  0.7227  1.2464 -0.5782
  173SAPI   C2719598   4.715   2.016   9.800 -0.1377 -1.1438  0.3961
  173SAPI   H7R19599   4.620   2.029   9.856 -2.2510 -0.1512 -3.0812
  173SAPI   H7S19600   4.683   1.944   9.721 -1.5344  1.3948 -1.4865
  173SAPI   C2819601   4.741   2.153   9.737  0.3869  0.2117  0.1223
  173SAPI   H8R19602   4.712   2.244   9.791 -0.1739  1.0589 -1.5302
  173SAPI   C2919603   4.790   2.168   9.616 -0.3709  0.3899  0.3924
  173SAPI   H9R19604   4.804   2.268   9.571 -1.2328  0.7886  0.9803
  173SAPI  C21019605   4.840   2.053   9.523  0.6602 -0.6559  0.0481
  173SAPI  H10R19606   4.870   1.964   9.582 -0.7580 -3.2379 -2.7718
  173SAPI  H10S19607   4.929   2.087   9.466  0.9151 -0.5069  0.5336
  173SAPI  C21119608   4.722   2.016   9.437  0.2978  0.3601  0.2057
  173SAPI  H11R19609   4.627   2.015   9.493  0.0955 -0.9768 -0.1228
  173SAPI  C21219610   4.711   1.993   9.301 -1.0594  0.1774 -0.1404
  173SAPI  H12R19611   4.617   1.963   9.253 -0.9800 -0.1346 -0.0982
  173SAPI  C21319612   4.828   2.006   9.208  0.3969  0.3015 -0.8488
  173SAPI  H13R19613   4.797   1.967   9.108  0.0502 -0.6728 -0.3740
  173SAPI  H13S19614   4.902   1.931   9.243  0.3077  1.8161  3.0506
  173SAPI  C21419615   4.874   2.153   9.197 -0.7605  0.5586 -0.1034
  173SAPI  H14R19616   4.912   2.195   9.292 -0.0714 -0.3756  0.0489
  173SAPI  C21519617   4.874   2.235   9.094  0.3965 -0.1738 -0.2893
  173SAPI  H15R19618   4.919   2.333   9.117 -0.3579  0.3612 -1.0581
  173SAPI  C21619619   4.835   2.216   8.953  0.2622  0.6334 -0.5781
  173SAPI  H16R19620   4.739   2.159   8.954  0.9436 -0.8612  3.7676
  173SAPI  H16S19621   4.904   2.148   8.899  0.2319 -0.1959  0.3857
  173SAPI  C21719622   4.813   2.357   8.888 -0.1886  0.0295 -0.0287
  173SAPI  H17R19623   4.846   2.346   8.782  0.9665 -0.9663  0.3997
  173SAPI  H17S19624   4.889   2.425   8.931 -0.4650 -0.0775  0.6413
  173SAPI  C21819625   4.677   2.425   8.905 -0.1972  0.5458  0.2932
  173SAPI  H18R19626   4.644   2.417   9.010  0.9044 -0.8252  0.5665
  173SAPI  H18S19627   4.607   2.364   8.844 -1.3711 -0.0929  2.2010
  173SAPI  C21919628   4.680   2.574   8.860  0.5409  0.5387 -0.2477
  173SAPI  H19R19629   4.681   2.577   8.749 -3.0237  0.6149 -0.3864
  173SAPI  H19S19630   4.774   2.628   8.885  0.2892  1.1397 -0.5778
  173SAPI  C22019631   4.565   2.662   8.903 -0.1723  0.1749  0.3218
  173SAPI  H20R19632   4.473   2.625   8.853 -0.1609 -0.3358  0.6689
  173SAPI  H20S19633   4.590   2.768   8.883  0.6295  0.0483  0.6324
  173SAPI  H20T19634   4.555   2.653   9.013 -2.5019  0.7706  0.2228
  173SAPI   C3319635   5.582   2.446  10.200 -0.4443 -0.2034  0.0759
  173SAPI   H3X19636   5.662   2.418  10.271  0.7429  1.4593 -0.5449
  173SAPI   H3Y19637   5.554   2.553  10.207  0.6170  0.2354 -1.6873
  173SAPI   C3419638   5.622   2.412  10.052  0.2745  0.4384  1.0687
  173SAPI   H4X19639   5.707   2.476  10.019 -1.0017  1.7463  0.2034
  173SAPI   H4Y19640   5.533   2.435   9.991  1.3150 -1.1652 -1.1924
  173SAPI   C3519641   5.667   2.268  10.042  0.4648 -0.0189  0.1397
  173SAPI   H5X19642   5.586   2.198  10.072 -0.4074 -0.6391 -3.3160
  173SAPI   H5Y19643   5.755   2.245  10.106  0.2681  0.1407  0.4715
  173SAPI   C3619644   5.699   2.237   9.891  0.1555 -0.4989  0.5281
  173SAPI   H6X19645   5.767   2.321   9.862 -1.7303  0.6336 -0.8229
  173SAPI   H6Y19646   5.609   2.266   9.833 -0.3671 -1.2642  0.9369
  173SAPI   C3719647   5.745   2.099   9.862 -0.0059  0.2448  0.3759
  173SAPI   H7X19648   5.679   2.020   9.905  0.3480 -0.1885  0.1383
  173SAPI   H7Y19649   5.831   2.090   9.932  0.6500  0.3091 -0.4058
  173SAPI   C3819650   5.797   2.061   9.720 -0.9172  0.3648 -0.1373
  173SAPI   H8X19651   5.856   1.967   9.723  1.4964  1.8015 -0.0175
  173SAPI   H8Y19652   5.870   2.141   9.694  0.3206 -0.8593 -0.5219
  173SAPI   C3919653   5.677   2.067   9.619 -0.0416  0.6721 -0.2199
  173SAPI   H9X19654   5.634   2.169   9.611  1.1929  1.1640 -0.9560
  173SAPI   H9Y19655   5.602   1.991   9.650  2.6947 -2.0313  0.2102
  173SAPI  C31019656   5.716   2.026   9.473 -0.4601 -0.0864 -0.9962
  173SAPI  H10X19657   5.759   1.925   9.489  0.7558  0.7616  1.6261
  173SAPI  H10Y19658   5.791   2.096   9.431  1.5729 -0.4195  1.7864
  173SAPI  C31119659   5.598   2.003   9.375  0.1503  1.3626 -0.0146
  173SAPI  H11X19660   5.511   1.957   9.427  0.9004 -1.1672 -0.8119
  173SAPI  H11Y19661   5.620   1.933   9.291 -2.5336  0.1634  0.1675
  173SAPI  C31219662   5.545   2.134   9.302 -0.2149  0.1800 -0.2847
  173SAPI  H12X19663   5.632   2.179   9.251  0.3154 -0.0792  0.3748
  173SAPI  H12Y19664   5.516   2.209   9.378  1.3151  1.5775 -1.0359
  173SAPI  C31319665   5.438   2.107   9.202  0.3717  0.3235  0.7113
  173SAPI  H13X19666   5.349   2.063   9.254  0.6761 -2.6606 -1.0504
  173SAPI  H13Y19667   5.469   2.023   9.136  1.0232  1.5600 -0.6006
  173SAPI  C31419668   5.396   2.222   9.108  0.7412 -0.3070 -0.3086
  173SAPI  H14X19669   5.484   2.266   9.057 -0.4741  2.1863 -0.3640
  173SAPI  H14Y19670   5.347   2.301   9.168  0.5567  0.4480 -1.4363
  173SAPI  C31519671   5.290   2.173   8.999 -0.1196 -0.3713 -0.7130
  173SAPI  H15X19672   5.233   2.089   9.045 -1.1329  1.5684  1.8175
  173SAPI  H15Y19673   5.349   2.132   8.915  0.2707  0.2886 -0.7650
  173SAPI  C31619674   5.207   2.289   8.948  0.2175  0.2337  0.4775
  173SAPI  H16X19675   5.168   2.351   9.032 -2.2790  0.2808 -0.6409
  173SAPI  H16Y19676   5.117   2.235   8.911  1.0546  0.3803 -1.9370
  173SAPI  C31719677   5.264   2.370   8.827 -0.3858  0.0534 -1.0876
  173SAPI  H17X19678   5.275   2.301   8.740  0.3263 -0.2750 -0.7466
  173SAPI  H17Y19679   5.365   2.408   8.854 -0.6954 -1.0890  2.0602
  173SAPI  C31819680   5.178   2.492   8.802  0.7153 -0.3357  0.4693
  173SAPI  H18X19681   5.138   2.537   8.895 -1.1734 -0.3206 -0.3074
  173SAPI  H18Y19682   5.086   2.457   8.750  0.4908  1.1994 -0.2287
  173SAPI  H18Z19683   5.228   2.568   8.738 -1.9389  2.5329  1.5856
  174SAPI   C1219684   2.938   2.025  11.049  0.1754  0.4219 -0.4501
  174SAPI    H219685   2.901   1.928  11.088 -1.8149  0.4002 -2.2415
  174SAPI    O219686   2.834   2.123  11.073  0.1165 -1.0829 -0.1470
  174SAPI   HO219687   2.748   2.081  11.077 -0.0939 -0.6183  0.2010
  174SAPI   C1319688   3.060   2.063  11.115 -0.2160 -0.3483 -1.7176
  174SAPI    H319689   3.141   1.991  11.092  1.3737  0.6781  0.3156
  174SAPI    O319690   3.047   2.066  11.259  0.1179 -0.0953  0.2132
  174SAPI   HO319691   2.962   2.026  11.281  0.4690 -1.2888 -0.4831
  174SAPI   C1419692   3.120   2.190  11.061 -0.5328 -0.2062 -0.0479
  174SAPI    H419693   3.044   2.270  11.076  0.0053  0.5437 -1.1994
  174SAPI    O419694   3.238   2.226  11.124 -0.8586 -0.4256  0.3924
  174SAPI   HO419695   3.294   2.152  11.099 -2.2329 -1.1037 -0.8874
  174SAPI   C1519696   3.138   2.180  10.918  0.0319 -0.2018 -0.0387
  174SAPI    H519697   3.222   2.109  10.904  0.0797 -0.4367  1.2736
  174SAPI    O519698   3.183   2.302  10.867  0.2700 -0.0767 -0.1404
  174SAPI   HO519699   3.276   2.309  10.846 -0.1244  1.8075 -1.5455
  174SAPI   C1619700   3.018   2.127  10.837  0.6517  0.4717  0.6454
  174SAPI    H619701   2.934   2.199  10.842 -0.0307 -0.3617  1.3814
  174SAPI    O619702   3.051   2.097  10.704  0.1509 -0.6294 -0.2515
  174SAPI   HO619703   3.037   2.174  10.648 -0.0730 -0.8481 -0.4952
  174SAPI   C1119704   2.965   2.001  10.901  0.0342 -0.5066  0.8427
  174SAPI    H119705   3.051   1.932  10.898  2.9457  2.8316  0.7592
  174SAPI     P19706   2.793   1.802  10.819  0.0823 -0.2102  0.2269
  174SAPI   O1319707   2.645   1.802  10.801  0.1922 -0.9425  0.1615
  174SAPI   O1419708   2.841   1.716  10.926  0.1942 -0.0363 -0.5475
  174SAPI   O1219709   2.848   1.956  10.822 -0.5812  0.7371 -0.2500
  174SAPI   O1119710   2.848   1.743  10.685 -0.2756  0.1923  0.1014
  174SAPI    C119711   2.861   1.828  10.574 -0.2440 -0.5835  0.0513
  174SAPI    HA19712   2.785   1.909  10.576 -1.3158 -1.2966 -3.8391
  174SAPI    HB19713   2.964   1.867  10.565 -0.3907  0.2213  1.5458
  174SAPI    C219714   2.835   1.756  10.438  0.0396  0.0565  0.6818
  174SAPI    HS19715   2.725   1.737  10.438 -0.0845  0.7745  0.9566
  174SAPI   O2119716   2.914   1.637  10.430 -0.0847 -1.3797  0.3853
  174SAPI   C2119717   2.876   1.536  10.354 -0.0984  0.2772 -0.2127
  174SAPI   O2219718   2.763   1.529  10.303  0.0341  0.5249 -0.7919
  174SAPI   C2219719   2.974   1.425  10.345  0.6311 -0.4573  0.0279
  174SAPI   H2R19720   3.069   1.455  10.394 -1.1933  0.9247  3.0151
  174SAPI   H2S19721   2.933   1.333  10.392 -0.6473  0.3967  0.6339
  174SAPI    C319722   2.867   1.856  10.316  0.2867 -0.2127  0.1133
  174SAPI    HX19723   2.973   1.879  10.337  0.1605  1.1475 -0.6529
  174SAPI    HY19724   2.811   1.951  10.332 -0.1772 -0.7024  1.6186
  174SAPI   O3119725   2.845   1.811  10.180  0.0654  0.1145 -0.3738
  174SAPI   C3119726   2.716   1.799  10.146  0.4496 -0.2478  0.3666
  174SAPI   O3219727   2.621   1.848  10.211 -0.0881 -0.0186  0.4000
  174SAPI   C3219728   2.699   1.710  10.028 -0.3780 -0.9543 -0.1031
  174SAPI   H2X19729   2.593   1.691   9.999 -0.6570 -2.0022  1.5061
  174SAPI   H2Y19730   2.751   1.614  10.045  1.9193 -0.1413 -2.0241
  174SAPI   C2319731   3.004   1.403  10.195 -0.3057 -0.3130  0.4199
  174SAPI   H3R19732   2.911   1.403  10.135  0.0831 -0.3427 -0.1888
  174SAPI   H3S19733   3.051   1.303  10.192 -0.3532 -0.3376  0.4931
  174SAPI   C2419734   3.103   1.510  10.136  0.3524  0.2324 -0.3199
  174SAPI   H4R19735   3.198   1.510  10.194 -0.9045  0.9129  1.8490
  174SAPI   H4S19736   3.063   1.612  10.155 -0.2566 -0.0514 -0.0679
  174SAPI   C2519737   3.119   1.503   9.988  0.1167 -0.0893 -0.1018
  174SAPI   H5R19738   3.046   1.565   9.935  0.7316  1.9326  1.3097
  174SAPI   C2619739   3.215   1.436   9.914 -0.4378 -0.2436  0.4302
  174SAPI   H6R19740   3.213   1.432   9.804  2.2086  0.6801  0.2637
  174SAPI   C2719741   3.322   1.347   9.969 -0.0856  0.2699  0.0228
  174SAPI   H7R19742   3.305   1.239   9.952 -0.6107  0.3981 -0.2876
  174SAPI   H7S19743   3.334   1.365  10.078 -1.8080 -0.9637  0.4655
  174SAPI   C2819744   3.457   1.387   9.907 -0.7153 -0.2561  0.0067
  174SAPI   H8R19745   3.494   1.470   9.968 -0.4130 -2.2810  2.7667
  174SAPI   C2919746   3.524   1.339   9.796  0.8340  0.6911 -0.4531
  174SAPI   H9R19747   3.620   1.387   9.773  0.7797  0.4039 -1.2897
  174SAPI  C21019748   3.482   1.227   9.705  0.1479 -0.3798 -0.2227
  174SAPI  H10R19749   3.564   1.217   9.631 -0.1905  0.7604 -0.7843
  174SAPI  H10S19750   3.393   1.253   9.643  0.7648 -1.6333 -1.6928
  174SAPI  C21119751   3.462   1.097   9.780 -0.8106  0.3705 -0.4301
  174SAPI  H11R19752   3.464   1.095   9.890 -1.6224  2.1794 -0.3505
  174SAPI  C21219753   3.451   0.977   9.715  0.0706  0.5016 -0.6623
  174SAPI  H12R19754   3.428   0.888   9.775 -2.3241  0.7080 -1.1677
  174SAPI  C21319755   3.443   0.970   9.562 -0.7178 -0.6131 -0.6267
  174SAPI  H13R19756   3.417   1.067   9.513  0.1568  0.0316  0.1513
  174SAPI  H13S19757   3.367   0.895   9.531  1.3286 -2.8986 -0.4201
  174SAPI  C21419758   3.581   0.927   9.505  0.2954 -0.5976  0.5979
  174SAPI  H14R19759   3.665   0.949   9.572  0.7728 -0.5279 -0.0170
  174SAPI  C21519760   3.605   0.854   9.392  0.5679  0.1287 -0.0316
  174SAPI  H15R19761   3.710   0.857   9.357  0.1320  0.7892 -1.3352
  174SAPI  C21619762   3.505   0.797   9.294  0.3429 -0.2680  0.8135
  174SAPI  H16R19763   3.418   0.865   9.289  0.3592  0.0607  3.3239
  174SAPI  H16S19764   3.477   0.695   9.328  3.2802 -1.2810  0.4741
  174SAPI  C21719765   3.571   0.785   9.154  0.3817 -0.5994  0.4297
  174SAPI  H17R19766   3.655   0.712   9.157 -0.6935 -1.8748  0.5241
  174SAPI  H17S19767   3.620   0.879   9.119  0.6073 -1.3852 -1.5150
  174SAPI  C21819768   3.474   0.745   9.048  0.2746  0.3285  0.1296
  174SAPI  H18R19769   3.376   0.796   9.045  0.2434  0.3487  1.1941
  174SAPI  H18S19770   3.446   0.637   9.046  2.9864 -0.4403 -1.1103
  174SAPI  C21919771   3.536   0.750   8.906  0.0537  0.0490  0.2037
  174SAPI  H19R19772   3.635   0.698   8.905  0.0433  0.0273  0.2670
  174SAPI  H19S19773   3.560   0.856   8.880 -0.7789 -0.1164 -1.2961
  174SAPI  C22019774   3.453   0.692   8.791  0.6033  0.0545 -0.1345
  174SAPI  H20R19775   3.362   0.757   8.782  0.7816  0.4820  0.9748
  174SAPI  H20S19776   3.419   0.589   8.814 -1.9814  0.6780 -0.8048
  174SAPI  H20T19777   3.503   0.700   8.692  1.2268 -1.0567  0.0801
  174SAPI   C3319778   2.754   1.785   9.899 -0.6528  0.3234  0.0862
  174SAPI   H3X19779   2.860   1.801   9.928 -0.8762 -1.2613  1.9753
  174SAPI   H3Y19780   2.701   1.882   9.886 -1.0529 -0.1573 -2.3267
  174SAPI   C3419781   2.734   1.704   9.776 -0.1471 -0.5094 -0.6795
  174SAPI   H4X19782   2.626   1.684   9.765 -0.7844  1.7118  0.8353
  174SAPI   H4Y19783   2.776   1.603   9.795 -1.1238 -0.3480  3.3929
  174SAPI   C3519784   2.786   1.766   9.650 -0.2730 -0.0752 -0.0969
  174SAPI   H5X19785   2.897   1.773   9.653 -0.1392 -1.6657 -0.2741
  174SAPI   H5Y19786   2.738   1.865   9.635  1.0051  0.5896  0.1187
  174SAPI   C3619787   2.747   1.689   9.525 -0.0408 -0.6057  0.1182
  174SAPI   H6X19788   2.640   1.660   9.527 -0.5601  0.9256 -1.7503
  174SAPI   H6Y19789   2.805   1.595   9.527  2.1694  0.6855  2.1233
  174SAPI   C3719790   2.786   1.770   9.401  0.2552 -0.7114  0.1160
  174SAPI   H7X19791   2.888   1.816   9.402  0.6554 -1.5939  0.5260
  174SAPI   H7Y19792   2.719   1.858   9.392  0.9000 -0.1276  0.8307
  174SAPI   C3819793   2.775   1.703   9.266 -0.1997  0.2566 -0.9745
  174SAPI   H8X19794   2.680   1.645   9.269 -1.4858  2.2814  1.3203
  174SAPI   H8Y19795   2.847   1.620   9.252 -1.1742 -0.4376 -2.0678
  174SAPI   C3919796   2.781   1.804   9.146 -0.6011 -1.1887 -0.0504
  174SAPI   H9X19797   2.873   1.863   9.166 -1.1857  0.7458 -2.5231
  174SAPI   H9Y19798   2.693   1.871   9.163  1.2822  1.3303  0.4329
  174SAPI  C31019799   2.785   1.746   9.006 -0.0312  0.1051  0.1435
  174SAPI  H10X19800   2.784   1.825   8.928 -0.2065  1.3884  1.4050
  174SAPI  H10Y19801   2.698   1.683   8.978  0.3651  0.6898 -2.7092
  174SAPI  C31119802   2.920   1.670   8.976 -0.2676 -0.1737  0.0937
  174SAPI  H11X19803   2.909   1.635   8.871 -0.9081  2.9208 -0.9927
  174SAPI  H11Y19804   2.927   1.587   9.049 -1.0137  0.1057  0.4892
  174SAPI  C31219805   3.047   1.752   8.974 -0.4383 -0.4949 -0.3039
  174SAPI  H12X19806   3.055   1.800   9.074 -1.4432  0.8858 -0.8587
  174SAPI  H12Y19807   3.042   1.829   8.895  0.3345  0.8523  0.9145
  174SAPI  C31319808   3.179   1.678   8.951  0.1697  0.0630 -0.1779
  174SAPI  H13X19809   3.171   1.596   8.876 -2.9412  0.5607 -0.5254
  174SAPI  H13Y19810   3.197   1.630   9.049  0.1183  0.0693 -0.1652
  174SAPI  C31419811   3.298   1.777   8.931  0.2522  0.1089  0.1398
  174SAPI  H14X19812   3.257   1.872   8.971  0.1962 -0.2081  0.8397
  174SAPI  H14Y19813   3.318   1.816   8.829  3.3693  0.0355  0.6204
  174SAPI  C31519814   3.425   1.737   9.006  0.6413  0.2500  0.0900
  174SAPI  H15X19815   3.485   1.665   8.946  1.4527  0.7813  0.2484
  174SAPI  H15Y19816   3.404   1.699   9.108  3.3528  1.3972  1.1731
  174SAPI  C31619817   3.519   1.856   9.021 -0.4570  0.4483  0.7667
  174SAPI  H16X19818   3.482   1.929   9.096 -0.4807  2.3984 -1.0727
  174SAPI  H16Y19819   3.540   1.896   8.920 -1.5242 -1.5021 -0.2851
  174SAPI  C31719820   3.649   1.806   9.073  0.1909  0.4900 -0.1590
  174SAPI  H17X19821   3.723   1.888   9.059  2.0528 -1.2220 -0.7978
  174SAPI  H17Y19822   3.676   1.722   9.006  0.9920  0.9248 -0.3889
  174SAPI  C31819823   3.645   1.757   9.220 -1.1987  0.0924 -0.0899
  174SAPI  H18X19824   3.578   1.670   9.230 -0.7037 -0.2109  0.6559
  174SAPI  H18Y19825   3.606   1.837   9.287  2.1868  1.0003  0.9985
  174SAPI  H18Z19826   3.747   1.734   9.257 -1.3828 -2.2712 -0.8741
  175SAPI   C1219827   5.561   1.199   6.259  0.6031 -0.5262  0.5719
  175SAPI    H219828   5.506   1.105   6.234 -2.5328  1.6341 -1.3691
  175SAPI    O219829   5.654   1.227   6.155 -0.2044 -0.3256  0.0035
  175SAPI   HO219830   5.721   1.158   6.163 -0.5471 -0.9473 -2.0364
  175SAPI   C1319831   5.443   1.303   6.260  0.0989 -0.4541 -0.0156
  175SAPI    H319832   5.363   1.285   6.334  1.9516  0.4286  2.3122
  175SAPI    O319833   5.393   1.308   6.126 -0.4895 -0.5400 -0.2413
  175SAPI   HO319834   5.469   1.298   6.068  0.1698  1.4076  0.2280
  175SAPI   C1419835   5.512   1.440   6.295 -0.2744 -0.5184 -0.0357
  175SAPI    H419836   5.594   1.450   6.221  1.3978  1.3013  1.9354
  175SAPI    O419837   5.421   1.551   6.274 -0.2537 -0.1104  0.0962
  175SAPI   HO419838   5.466   1.636   6.283 -0.3236  0.4068 -3.0943
  175SAPI   C1519839   5.573   1.431   6.430  1.1689 -0.4437  0.2610
  175SAPI    H519840   5.490   1.405   6.498  1.5239  1.0554  1.3260
  175SAPI    O519841   5.619   1.561   6.477  0.2094  0.2226  0.2999
  175SAPI   HO519842   5.703   1.585   6.437  1.1421 -3.2800 -0.1432
  175SAPI   C1619843   5.678   1.332   6.439 -0.1133  1.3773  0.2024
  175SAPI    H619844   5.754   1.360   6.363  2.0442 -2.4099  0.7094
  175SAPI    O619845   5.726   1.328   6.579  0.0940  0.0835 -0.0422
  175SAPI   HO619846   5.756   1.418   6.595  0.3156  0.0838 -0.4306
  175SAPI   C1119847   5.618   1.194   6.397  0.2510 -0.2281 -0.4898
  175SAPI    H119848   5.538   1.165   6.467  1.7265 -0.5745  1.1123
  175SAPI     P19849   5.694   0.937   6.419 -0.2985 -0.1319 -0.1815
  175SAPI   O1319850   5.828   0.873   6.424  0.4069 -0.1381 -0.3802
  175SAPI   O1419851   5.596   0.894   6.321  0.4784  0.1273  0.1752
  175SAPI   O1219852   5.720   1.099   6.403 -0.1220  0.1326  0.6258
  175SAPI   O1119853   5.626   0.914   6.562 -0.1998  0.1091  0.3045
  175SAPI    C119854   5.572   0.786   6.611 -1.0766 -0.6208  0.5172
  175SAPI    HA19855   5.467   0.800   6.645 -0.6695  1.1292  1.1368
  175SAPI    HB19856   5.576   0.702   6.539  0.9291 -0.2148  0.0859
  175SAPI    C219857   5.662   0.757   6.736  0.1562 -1.2349  0.8765
  175SAPI    HS19858   5.762   0.727   6.699 -0.0249 -1.2224  0.3727
  175SAPI   O2119859   5.613   0.642   6.807  0.6960  0.5756  0.0509
  175SAPI   C2119860   5.618   0.525   6.745  0.4389 -0.0591 -0.5412
  175SAPI   O2219861   5.668   0.510   6.637  0.5105 -0.4849  0.0185
  175SAPI   C2219862   5.550   0.414   6.834 -0.0689  0.0644 -0.3098
  175SAPI   H2R19863   5.535   0.451   6.938 -0.5322  1.7069 -0.9356
  175SAPI   H2S19864   5.451   0.409   6.783 -0.1720  0.8407 -0.1950
  175SAPI    C319865   5.679   0.878   6.830  0.2562 -0.3623  0.2987
  175SAPI    HX19866   5.593   0.887   6.899  0.0840 -0.2922  0.0748
  175SAPI    HY19867   5.701   0.965   6.765  1.2919  0.3420  1.5452
  175SAPI   O3119868   5.803   0.856   6.902  0.2664 -0.3048 -0.4164
  175SAPI   C3119869   5.910   0.914   6.853 -0.6971 -0.2199  0.1391
  175SAPI   O3219870   5.927   0.951   6.737 -0.2544  0.9090  0.3841
  175SAPI   C3219871   6.005   0.940   6.968 -0.4108 -0.4025  0.7486
  175SAPI   H2X19872   5.975   0.897   7.066  0.5522  1.7740  2.0793
  175SAPI   H2Y19873   6.007   1.049   6.986 -1.2943 -0.1548 -0.5809
  175SAPI   C2319874   5.616   0.271   6.839  0.4362 -0.4683 -0.3668
  175SAPI   H3R19875   5.666   0.259   6.740  0.6433  0.5582 -0.3969
  175SAPI   H3S19876   5.532   0.199   6.846 -0.4485  0.4134 -1.4450
  175SAPI   C2419877   5.721   0.261   6.956  0.1315 -0.1011  0.4068
  175SAPI   H4R19878   5.769   0.160   6.951  0.0330 -0.2415  1.7900
  175SAPI   H4S19879   5.668   0.256   7.054 -0.2532  0.4336  0.2252
  175SAPI   C2519880   5.829   0.367   6.932  0.5618  0.2804  0.7081
  175SAPI   H5R19881   5.890   0.345   6.843 -0.3178  1.1815 -0.1594
  175SAPI   C2619882   5.862   0.467   7.020 -0.2559  0.2322  0.2329
  175SAPI   H6R19883   5.935   0.543   6.987 -0.5073 -0.3952 -1.9231
  175SAPI   C2719884   5.801   0.504   7.152  0.2379  0.3034 -0.5272
  175SAPI   H7R19885   5.856   0.463   7.239  1.8103 -2.6429 -2.6935
  175SAPI   H7S19886   5.704   0.452   7.161 -0.5222  2.0370  2.1108
  175SAPI   C2819887   5.765   0.652   7.160 -0.4830 -0.2364  0.2541
  175SAPI   H8R19888   5.732   0.712   7.075  0.4094 -0.4532 -0.2575
  175SAPI   C2919889   5.816   0.723   7.271  0.0297 -0.6197 -0.7392
  175SAPI   H9R19890   5.790   0.829   7.267 -1.6791 -1.0150 -1.0591
  175SAPI  C21019891   5.900   0.679   7.391  0.8875 -0.2293  0.7105
  175SAPI  H10R19892   5.993   0.633   7.350  1.6842  0.4457  1.7100
  175SAPI  H10S19893   5.842   0.597   7.440 -1.2308  1.7290  1.6714
  175SAPI  C21119894   5.929   0.780   7.499  0.0573  0.3193  0.6761
  175SAPI  H11R19895   6.036   0.801   7.508  0.1937  0.1706 -0.4565
  175SAPI  C21219896   5.842   0.835   7.587 -0.0659 -0.4200  0.3830
  175SAPI  H12R19897   5.888   0.904   7.660  1.5300 -1.5047  0.4646
  175SAPI  C21319898   5.688   0.820   7.594 -0.0705  0.0925 -0.0937
  175SAPI  H13R19899   5.659   0.714   7.576 -0.6234  0.1600  0.3591
  175SAPI  H13S19900   5.637   0.886   7.520  0.3253  0.8470  0.2965
  175SAPI  C21419901   5.636   0.859   7.729 -0.1600 -0.4302 -0.4864
  175SAPI  H14R19902   5.712   0.919   7.782 -0.3128  0.2163 -0.9806
  175SAPI  C21519903   5.527   0.820   7.793  0.0618  0.5860 -0.3744
  175SAPI  H15R19904   5.493   0.857   7.891 -0.7190 -4.6531  1.6917
  175SAPI  C21619905   5.427   0.720   7.736  0.2150 -0.0776 -0.6701
  175SAPI  H16R19906   5.441   0.685   7.632  1.3460 -2.1567  0.1359
  175SAPI  H16S19907   5.328   0.771   7.736 -1.1285 -2.5760  0.0550
  175SAPI  C21719908   5.429   0.598   7.827  0.1705  0.0929 -0.5306
  175SAPI  H17R19909   5.527   0.546   7.818  0.3715  0.6997 -1.9916
  175SAPI  H17S19910   5.348   0.532   7.789  0.2618 -0.3839  0.0813
  175SAPI  C21819911   5.382   0.612   7.972 -0.0018  0.3750  0.4181
  175SAPI  H18R19912   5.272   0.626   7.972  0.2191  2.6908  1.9477
  175SAPI  H18S19913   5.425   0.706   8.014  1.3963  0.3646 -0.8831
  175SAPI  C21919914   5.437   0.502   8.064  0.0334  0.3844  0.0960
  175SAPI  H19R19915   5.390   0.534   8.159 -1.4891 -0.5526 -0.3013
  175SAPI  H19S19916   5.548   0.504   8.074 -0.0206  1.5170  0.5906
  175SAPI  C22019917   5.398   0.359   8.036  0.0254  0.1991 -0.1151
  175SAPI  H20R19918   5.417   0.285   8.117 -1.0157 -2.5308 -2.1969
  175SAPI  H20S19919   5.453   0.322   7.947  0.3994 -1.0912  0.6190
  175SAPI  H20T19920   5.290   0.352   8.012 -0.2407 -0.0699  1.0794
  175SAPI   C3319921   6.148   0.900   6.927 -0.1800  0.4303  0.1209
  175SAPI   H3X19922   6.160   0.940   6.824 -2.0635  1.1150  0.1245
  175SAPI   H3Y19923   6.142   0.790   6.940  0.7298  0.5159  1.3660
  175SAPI   C3419924   6.262   0.955   7.008 -0.3456 -0.2479  0.4545
  175SAPI   H4X19925   6.279   1.063   6.991  1.6179 -0.5647  0.1864
  175SAPI   H4Y19926   6.348   0.900   6.966 -1.0477  0.0313 -1.4367
  175SAPI   C3519927   6.251   0.928   7.154 -0.2113 -0.7291  0.5302
  175SAPI   H5X19928   6.256   0.821   7.182 -1.5993 -1.0131 -0.1755
  175SAPI   H5Y19929   6.155   0.973   7.188 -0.5680 -0.1223 -1.1816
  175SAPI   C3619930   6.352   1.018   7.224 -1.0610  0.5929 -0.4991
  175SAPI   H6X19931   6.320   1.124   7.229 -0.8246  0.7375 -1.7554
  175SAPI   H6Y19932   6.444   1.024   7.163 -0.2623 -0.6104  0.5194
  175SAPI   C3719933   6.391   0.977   7.372  0.2979 -0.1438  0.1724
  175SAPI   H7X19934   6.448   1.060   7.418 -1.1268  0.1983  1.4015
  175SAPI   H7Y19935   6.458   0.888   7.383  0.9678  0.2771 -0.4292
  175SAPI   C3819936   6.261   0.973   7.453  0.2620  0.1838 -0.5162
  175SAPI   H8X19937   6.185   0.903   7.412 -0.0293  0.9411 -1.2946
  175SAPI   H8Y19938   6.207   1.069   7.442 -1.7494 -1.0800 -2.5111
  175SAPI   C3919939   6.295   0.944   7.603  0.4534  0.3966 -0.0306
  175SAPI   H9X19940   6.331   0.839   7.605 -0.9940 -0.1983 -1.9269
  175SAPI   H9Y19941   6.201   0.955   7.661 -0.5875  0.2334 -1.6164
  175SAPI  C31019942   6.400   1.037   7.666  0.3039 -0.2330  0.3191
  175SAPI  H10X19943   6.375   1.136   7.622 -0.6014  0.1153  1.5878
  175SAPI  H10Y19944   6.502   1.022   7.624  0.5406 -0.3557  0.9248
  175SAPI  C31119945   6.391   1.050   7.814  0.0977  0.1070 -0.0858
  175SAPI  H11X19946   6.287   1.085   7.831 -0.7220 -1.0379 -2.3007
  175SAPI  H11Y19947   6.455   1.135   7.844 -1.2196  0.9745  0.3273
  175SAPI  C31219948   6.429   0.924   7.900 -0.4035  0.1276 -0.4425
  175SAPI  H12X19949   6.536   0.903   7.878 -0.3537 -0.5649  0.4072
  175SAPI  H12Y19950   6.366   0.837   7.872 -1.8087  1.2209 -0.7723
  175SAPI  C31319951   6.403   0.963   8.052 -0.1062 -0.1517 -0.2751
  175SAPI  H13X19952   6.295   0.971   8.076 -0.3502 -2.1513 -0.5570
  175SAPI  H13Y19953   6.455   1.057   8.083  0.0566 -0.9070  1.9090
  175SAPI  C31419954   6.456   0.852   8.143  0.2642 -0.3779 -0.3351
  175SAPI  H14X19955   6.438   0.873   8.251  1.5905  0.3847 -0.2378
  175SAPI  H14Y19956   6.566   0.841   8.131  0.3024 -0.9746  0.4593
  175SAPI  C31519957   6.384   0.708   8.124 -0.2952 -0.2554  0.7958
  175SAPI  H15X19958   6.368   0.670   8.021  0.3660  0.7957  0.2849
  175SAPI  H15Y19959   6.284   0.737   8.162  0.2913  2.2182  0.6251
  175SAPI  C31619960   6.457   0.610   8.220  0.3893 -0.4435 -0.0181
  175SAPI  H16X19961   6.455   0.651   8.324  0.3104 -0.3727 -0.0471
  175SAPI  H16Y19962   6.564   0.607   8.190  0.7459  1.3608  0.9150
  175SAPI  C31719963   6.389   0.482   8.216  0.0739 -0.0314 -0.2085
  175SAPI  H17X19964   6.284   0.482   8.181 -0.6845 -1.3189  1.8354
  175SAPI  H17Y19965   6.377   0.452   8.322  0.8696 -2.0954 -0.6414
  175SAPI  C31819966   6.469   0.387   8.135  0.2868 -0.0081  0.4528
  175SAPI  H18X19967   6.580   0.396   8.136  0.1616  1.9358  0.8208
  175SAPI  H18Y19968   6.444   0.392   8.026 -1.8711 -1.1620  0.8370
  175SAPI  H18Z19969   6.458   0.281   8.166  0.3349 -0.6838 -1.6362
  176SAPI   C1219970   4.700   5.245   6.205  0.6437 -0.1977  0.0319
  176SAPI    H219971   4.713   5.135   6.206  2.0177 -0.0420  0.7792
  176SAPI    O219972   4.820   5.298   6.162 -0.7014  0.2439 -0.2619
  176SAPI   HO219973   4.858   5.339   6.241 -1.9904 -0.9306  1.0285
  176SAPI   C1319974   4.586   5.282   6.107  0.1404  0.9052 -0.7004
  176SAPI    H319975   4.502   5.219   6.142  1.9441  0.2024  2.9048
  176SAPI    O319976   4.619   5.234   5.978 -0.0718  0.8189 -0.1064
  176SAPI   HO319977   4.630   5.305   5.914  2.2909 -1.3007 -2.2176
  176SAPI   C1419978   4.554   5.433   6.107 -0.5742  0.1875 -0.0114
  176SAPI    H419979   4.642   5.492   6.073  0.4486 -1.4098 -0.2361
  176SAPI    O419980   4.443   5.455   6.016  0.0458  0.5937 -0.5605
  176SAPI   HO419981   4.400   5.535   6.045  1.4270  0.4600  2.1939
  176SAPI   C1519982   4.516   5.478   6.246 -0.1473  0.5813 -0.3010
  176SAPI    H519983   4.437   5.407   6.278 -0.1955  0.6331 -0.3044
  176SAPI    O519984   4.466   5.608   6.257  0.8289  0.1346  0.2792
  176SAPI   HO519985   4.527   5.669   6.300 -0.8674  0.9247  1.6780
  176SAPI   C1619986   4.621   5.447   6.348 -0.5957 -0.3133 -0.6542
  176SAPI    H619987   4.714   5.502   6.323 -1.4751  0.9959 -1.1349
  176SAPI    O619988   4.578   5.489   6.474 -0.0327  0.0320  0.1599
  176SAPI   HO619989   4.651   5.531   6.522 -1.7546  1.1388  1.9942
  176SAPI   C1119990   4.664   5.298   6.345  0.7453 -0.3940 -0.5920
  176SAPI    H119991   4.569   5.244   6.363 -0.6844  1.9538 -0.7752
  176SAPI     P19992   4.764   5.106   6.513  0.3193 -0.1744  0.1574
  176SAPI   O1319993   4.899   5.046   6.512 -0.3417  0.1302  0.4118
  176SAPI   O1419994   4.656   5.024   6.453  0.0847 -0.2127 -0.1013
  176SAPI   O1219995   4.762   5.255   6.440  0.3288  0.3507  0.2273
  176SAPI   O1119996   4.727   5.147   6.665  0.0661  0.4789 -0.2656
  176SAPI    C119997   4.747   5.277   6.713 -0.5876 -0.8619  0.3042
  176SAPI    HA19998   4.847   5.311   6.677 -0.6191  0.2270  1.2202
  176SAPI    HB19999   4.664   5.336   6.669  1.6099  0.6693 -2.0785
  176SAPI    C220000   4.747   5.289   6.866 -0.1520  0.1541 -0.3638
  176SAPI    HS20001   4.809   5.215   6.920 -0.5382 -0.4423 -0.7149
  176SAPI   O2120002   4.609   5.274   6.914  0.1999  0.5155  0.3289
  176SAPI   C2120003   4.579   5.157   6.956  0.0126  0.5021  0.5662
  176SAPI   O2220004   4.641   5.051   6.944  0.1609 -0.2932  0.1353
  176SAPI   C2220005   4.442   5.158   7.020  0.0119 -0.6288 -0.1936
  176SAPI   H2R20006   4.424   5.259   7.063 -1.9478 -0.7791 -0.5374
  176SAPI   H2S20007   4.370   5.153   6.935 -0.4420 -0.4107  0.1711
  176SAPI    C320008   4.799   5.421   6.925  0.6059 -0.5413 -0.1444
  176SAPI    HX20009   4.729   5.504   6.906  0.2173 -0.9577 -0.5607
  176SAPI    HY20010   4.889   5.451   6.866 -0.1993  1.5467 -0.3912
  176SAPI   O3120011   4.827   5.420   7.069  0.3925  0.2318  0.1721
  176SAPI   C3120012   4.944   5.356   7.112  0.3174 -0.2217 -0.2926
  176SAPI   O3220013   5.028   5.313   7.032  0.2808  0.7300 -0.4891
  176SAPI   C3220014   4.963   5.359   7.264  0.0986 -0.0690  0.7604
  176SAPI   H2X20015   4.879   5.301   7.307  0.2547  0.1988  1.4349
  176SAPI   H2Y20016   4.963   5.462   7.305  1.6806  0.1426  0.3094
  176SAPI   C2320017   4.407   5.046   7.123  0.1677  0.3190  1.0256
  176SAPI   H3R20018   4.433   4.947   7.080 -0.1407  0.5382  0.3296
  176SAPI   H3S20019   4.298   5.056   7.140  0.2511  2.1351  0.6615
  176SAPI   C2420020   4.474   5.073   7.259 -0.4132 -0.1023 -0.6042
  176SAPI   H4R20021   4.575   5.115   7.239  0.1421  1.6798  4.5873
  176SAPI   H4S20022   4.487   4.976   7.312  1.2005  1.5536  2.2457
  176SAPI   C2520023   4.418   5.185   7.339 -0.2421 -0.5855 -0.9055
  176SAPI   H5R20024   4.309   5.174   7.338 -0.3606  0.0680  0.6738
  176SAPI   C2620025   4.469   5.275   7.422  0.0356 -0.6216 -0.0858
  176SAPI   H6R20026   4.396   5.351   7.453 -0.3661 -1.1444  0.2736
  176SAPI   C2720027   4.617   5.296   7.454 -0.1216 -0.0330  0.1668
  176SAPI   H7R20028   4.685   5.237   7.389  0.8670 -0.6476  1.6859
  176SAPI   H7S20029   4.625   5.268   7.562  0.6006  1.4630  0.5262
  176SAPI   C2820030   4.654   5.445   7.442 -0.5469 -0.3776 -1.2953
  176SAPI   H8R20031   4.685   5.472   7.339 -0.6905  0.9681 -1.0032
  176SAPI   C2920032   4.655   5.538   7.536 -0.1608  0.3517 -0.3812
  176SAPI   H9R20033   4.698   5.635   7.509  0.1987  0.1132 -0.6852
  176SAPI  C21020034   4.627   5.515   7.686  0.3307 -0.1730 -0.0830
  176SAPI  H10R20035   4.705   5.453   7.735  0.6696 -1.4844 -2.1522
  176SAPI  H10S20036   4.535   5.453   7.695 -0.4975  1.2403  1.9862
  176SAPI  C21120037   4.597   5.641   7.758 -0.9139 -0.3096 -0.1486
  176SAPI  H11R20038   4.520   5.701   7.707 -1.2381  0.6252  1.3640
  176SAPI  C21220039   4.646   5.687   7.871  0.5877  0.1096 -0.4665
  176SAPI  H12R20040   4.608   5.782   7.911 -1.2480 -1.8386  2.8741
  176SAPI  C21320041   4.754   5.615   7.954 -0.0539 -0.6566 -0.1663
  176SAPI  H13R20042   4.814   5.692   8.007  0.9016  0.3401 -2.5407
  176SAPI  H13S20043   4.828   5.576   7.881 -0.2208  1.3704 -1.4827
  176SAPI  C21420044   4.699   5.509   8.047 -0.3362 -0.1100 -0.6103
  176SAPI  H14R20045   4.591   5.492   8.036 -0.2248 -0.9319 -0.5241
  176SAPI  C21520046   4.771   5.454   8.150  0.0631  0.9626 -0.2835
  176SAPI  H15R20047   4.724   5.366   8.196 -0.3536 -0.8512 -3.8101
  176SAPI  C21620048   4.911   5.488   8.186  0.0991  0.4440  0.2394
  176SAPI  H16R20049   4.953   5.559   8.111 -0.1421  0.8056  0.4448
  176SAPI  H16S20050   4.976   5.399   8.201  0.4631  0.5199 -0.8329
  176SAPI  C21720051   4.912   5.545   8.332 -0.1427  0.3665 -0.0261
  176SAPI  H17R20052   4.851   5.638   8.329  1.0291  1.2447  1.8040
  176SAPI  H17S20053   5.019   5.570   8.352  0.7986 -3.5891  0.7911
  176SAPI  C21820054   4.869   5.450   8.444 -0.1148 -0.0071 -0.3049
  176SAPI  H18R20055   4.948   5.374   8.463 -0.8851 -1.0107 -0.9513
  176SAPI  H18S20056   4.770   5.403   8.422 -0.5760  0.7413  0.1449
  176SAPI  C21920057   4.850   5.522   8.582 -0.4935 -0.8204 -0.4077
  176SAPI  H19R20058   4.831   5.443   8.658 -0.4138 -2.6096 -2.1650
  176SAPI  H19S20059   4.760   5.586   8.591 -1.1165 -1.8841  1.3653
  176SAPI  C22020060   4.967   5.607   8.641  0.1307 -0.2551 -0.3263
  176SAPI  H20R20061   5.042   5.546   8.695  1.9970  2.4694  0.3308
  176SAPI  H20S20062   4.921   5.679   8.712  2.3713  3.4177 -2.2885
  176SAPI  H20T20063   5.018   5.666   8.562 -1.5725  1.6192 -0.0964
  176SAPI   C3320064   5.098   5.306   7.315 -0.1009 -0.3490 -0.4659
  176SAPI   H3X20065   5.170   5.385   7.285 -1.3680  0.4547 -1.4998
  176SAPI   H3Y20066   5.142   5.219   7.261  1.8072  0.5673 -0.4630
  176SAPI   C3420067   5.106   5.283   7.465  0.0826  0.3235  0.0764
  176SAPI   H4X20068   5.168   5.194   7.487 -0.4947  0.1105  0.8897
  176SAPI   H4Y20069   5.005   5.277   7.512 -0.5697 -2.5531 -1.4251
  176SAPI   C3520070   5.171   5.412   7.531 -0.2402  0.9432 -0.3942
  176SAPI   H5X20071   5.129   5.499   7.477  1.2760  0.2834 -2.8116
  176SAPI   H5Y20072   5.280   5.406   7.509  0.0303  0.5321  0.9492
  176SAPI   C3620073   5.153   5.425   7.687 -0.1251  0.0450  0.1462
  176SAPI   H6X20074   5.196   5.338   7.742 -0.2773  0.5830  1.1216
  176SAPI   H6Y20075   5.043   5.426   7.697 -0.1319 -1.1369  0.3610
  176SAPI   C3720076   5.225   5.545   7.746  0.3941 -0.3891 -0.0032
  176SAPI   H7X20077   5.178   5.642   7.721  1.2613  0.3647  1.1420
  176SAPI   H7Y20078   5.328   5.559   7.707  0.8293  3.7777  2.1019
  176SAPI   C3820079   5.245   5.556   7.904 -0.5067  0.0369  0.3445
  176SAPI   H8X20080   5.273   5.462   7.955  1.3689  0.7995  0.8089
  176SAPI   H8Y20081   5.144   5.586   7.940 -1.0312 -0.0720 -0.9500
  176SAPI   C3920082   5.342   5.669   7.941 -0.9796 -0.1750  0.1836
  176SAPI   H9X20083   5.300   5.761   7.895 -0.7462  0.0215  0.3562
  176SAPI   H9Y20084   5.437   5.651   7.885 -1.2943  1.4135 -0.9345
  176SAPI  C31020085   5.374   5.692   8.085  0.0261 -0.2792 -0.4576
  176SAPI  H10X20086   5.413   5.794   8.103  0.1791 -0.3475 -0.4024
  176SAPI  H10Y20087   5.449   5.616   8.118 -0.5157 -1.8697 -2.6500
  176SAPI  C31120088   5.252   5.686   8.174  0.1584 -0.3856 -0.6737
  176SAPI  H11X20089   5.214   5.581   8.177  1.7566 -1.0605 -2.2738
  176SAPI  H11Y20090   5.174   5.750   8.127 -0.4722 -2.0196 -1.9968
  176SAPI  C31220091   5.268   5.736   8.321 -0.2004  0.3569  0.8162
  176SAPI  H12X20092   5.168   5.748   8.369 -0.5034 -0.0312  0.2906
  176SAPI  H12Y20093   5.311   5.839   8.323  2.5874 -0.7349  1.5832
  176SAPI  C31320094   5.348   5.637   8.403 -0.0464 -0.3875 -0.8880
  176SAPI  H13X20095   5.408   5.573   8.335 -0.0381  2.3597 -3.7042
  176SAPI  H13Y20096   5.274   5.567   8.448  1.0406 -1.7164 -1.0822
  176SAPI  C31420097   5.431   5.707   8.511  0.2353 -0.5898  0.0253
  176SAPI  H14X20098   5.482   5.803   8.488  1.6280 -1.3795 -0.3220
  176SAPI  H14Y20099   5.514   5.640   8.542 -0.1367 -0.3106  1.7344
  176SAPI  C31520100   5.357   5.731   8.641  0.8273 -0.8886 -0.5662
  176SAPI  H15X20101   5.428   5.738   8.726  0.0481 -0.7353  0.0899
  176SAPI  H15Y20102   5.284   5.651   8.669 -0.0973  0.4962  1.2133
  176SAPI  C31620103   5.275   5.868   8.639  0.0399 -0.1472 -0.0319
  176SAPI  H16X20104   5.184   5.840   8.583 -0.9400  1.9626  0.3945
  176SAPI  H16Y20105   5.326   5.942   8.573 -1.6289  0.1283 -1.0738
  176SAPI  C31720106   5.227   5.930   8.773  0.4995 -0.0166  0.2932
  176SAPI  H17X20107   5.180   6.026   8.745  0.0703 -0.9462 -2.4987
  176SAPI  H17Y20108   5.318   5.939   8.836  1.0827 -0.0963 -0.5295
  176SAPI  C31820109   5.132   5.846   8.854 -0.0497  0.4515  0.0690
  176SAPI  H18X20110   5.162   5.739   8.863 -3.1215 -0.5194  0.0601
  176SAPI  H18Y20111   5.035   5.840   8.801 -0.4376  0.3117  0.7863
  176SAPI  H18Z20112   5.111   5.893   8.952  0.7263 -0.2597  0.5966
  177SLPC     N20113   4.534   4.440  11.269  0.0598 -0.2816  0.1184
  177SLPC   C1320114   4.456   4.556  11.327  0.8653 -0.1554 -0.5121
  177SLPC  H13A20115   4.397   4.523  11.412 -1.2571 -0.5923 -2.0845
  177SLPC  H13B20116   4.520   4.638  11.359 -0.8456  0.4167  1.6809
  177SLPC  H13C20117   4.391   4.608  11.258  1.8947  1.3408 -0.4291
  177SLPC   C1420118   4.633   4.398  11.370 -0.1113  0.2361  0.4575
  177SLPC  H14A20119   4.701   4.320  11.337  0.4706  0.3854  1.2642
  177SLPC  H14B20120   4.697   4.484  11.383  1.4601 -0.4535 -2.0479
  177SLPC  H14C20121   4.587   4.362  11.461  1.3603  0.9471  1.5358
  177SLPC   C1520122   4.605   4.489  11.147  0.4665  0.7135 -0.3800
  177SLPC  H15A20123   4.699   4.539  11.163  0.2758  0.5681  1.3512
  177SLPC  H15B20124   4.630   4.401  11.088  0.7223  1.7741 -1.9273
  177SLPC  H15C20125   4.535   4.546  11.088  0.1739  1.1797  0.4103
  177SLPC   C1220126   4.439   4.326  11.232  0.2995 -0.4744 -0.1029
  177SLPC  H12A20127   4.389   4.357  11.142  0.5707  3.5114  0.8976
  177SLPC  H12B20128   4.367   4.313  11.311  2.6254  0.0037  2.2783
  177SLPC   C1120129   4.505   4.193  11.207 -0.4113  0.9044 -0.8135
  177SLPC  H11A20130   4.426   4.116  11.192  1.1897 -1.0063  0.1081
  177SLPC  H11B20131   4.555   4.157  11.299 -1.1941  1.4961 -0.1434
  177SLPC     P20132   4.537   4.213  10.947  0.0689 -0.5691  0.0415
  177SLPC   O1320133   4.467   4.090  10.904 -0.0258  0.5181  0.4607
  177SLPC   O1420134   4.462   4.338  10.935  0.4183 -0.3254 -0.3147
  177SLPC   O1220135   4.594   4.201  11.100  0.5724  0.7331  1.1886
  177SLPC   O1120136   4.674   4.211  10.864 -0.5516  0.6349 -0.7831
  177SLPC    C120137   4.706   4.330  10.788 -0.5485  0.8026  0.1852
  177SLPC    HA20138   4.615   4.377  10.746 -0.9221  0.9244  1.1312
  177SLPC    HB20139   4.753   4.404  10.856 -0.0646 -0.0511  0.7999
  177SLPC    C220140   4.820   4.288  10.686  0.0651 -0.3441 -0.0419
  177SLPC    HS20141   4.843   4.373  10.618  0.2618 -0.9604 -0.7611
  177SLPC   O2120142   4.775   4.180  10.606 -0.4480  0.5356  0.1751
  177SLPC   C2120143   4.667   4.213  10.526 -0.2243  0.4533  0.0109
  177SLPC   O2220144   4.624   4.323  10.506 -0.1528 -0.3464 -0.1838
  177SLPC   C2220145   4.609   4.094  10.449 -0.3206  0.1938 -0.1670
  177SLPC   H2R20146   4.688   4.033  10.400 -1.1219  0.4848 -1.8816
  177SLPC   H2S20147   4.546   4.038  10.522  0.4374 -0.4520  0.0083
  177SLPC    C320148   4.951   4.241  10.768  0.4527  0.5348  1.0032
  177SLPC    HX20149   4.906   4.171  10.841  0.1608  1.6696  1.9499
  177SLPC    HY20150   4.984   4.329  10.828 -2.6590  1.9283  0.8948
  177SLPC   O3120151   5.054   4.175  10.694  0.3634  0.5329  0.7835
  177SLPC   C3120152   5.113   4.260  10.606  0.1085  0.5688  0.6637
  177SLPC   O3220153   5.079   4.373  10.586  0.1280 -0.5633  0.1353
  177SLPC   C3220154   5.235   4.189  10.554  0.3235 -0.4424 -0.3130
  177SLPC   H2X20155   5.205   4.088  10.522 -1.1697  0.0124 -0.3977
  177SLPC   H2Y20156   5.305   4.183  10.641  1.0062 -3.9199 -0.9476
  177SLPC   C2320157   4.510   4.145  10.345 -0.8927  0.1169  0.6695
  177SLPC   H3R20158   4.568   4.217  10.283  2.0619 -2.2454  0.4566
  177SLPC   H3S20159   4.420   4.194  10.387 -1.2404 -0.0283  0.1179
  177SLPC   C2420160   4.469   4.028  10.253  0.5275 -0.4979  0.2478
  177SLPC   H4R20161   4.394   3.979  10.319 -0.3726  2.9272  2.0170
  177SLPC   H4S20162   4.548   3.952  10.236 -0.7096 -1.5748 -0.9261
  177SLPC   C2520163   4.385   4.063  10.137  0.4923 -0.1476  0.2920
  177SLPC   H5R20164   4.314   4.143  10.168  0.7857  1.1369 -2.1365
  177SLPC   H5S20165   4.326   3.978  10.096  0.9033  0.3226 -1.3379
  177SLPC   C2620166   4.472   4.099  10.016  0.9773 -0.6234  0.5986
  177SLPC   H6R20167   4.548   4.019  10.000  2.7914  1.0936  0.2561
  177SLPC   H6S20168   4.524   4.193  10.044  1.7839 -0.7212 -0.4958
  177SLPC   C2720169   4.394   4.112   9.886 -0.6995 -0.0487  0.1434
  177SLPC   H7R20170   4.320   4.195   9.885  0.3000  0.8477 -0.5413
  177SLPC   H7S20171   4.351   4.011   9.870 -0.6400  0.0850 -0.9434
  177SLPC   C2820172   4.496   4.145   9.770 -0.2206  0.1885  0.4548
  177SLPC   H8R20173   4.435   4.124   9.680  0.2639  1.2364 -0.1365
  177SLPC   H8S20174   4.581   4.073   9.769  0.4354  0.6581 -5.0199
  177SLPC   C2920175   4.557   4.290   9.762  0.3390  0.1194  0.6570
  177SLPC   H9R20176   4.610   4.316   9.855  0.6092 -0.3336  0.6318
  177SLPC  C21020177   4.543   4.374   9.657 -0.3097  0.2929  0.2875
  177SLPC  H10R20178   4.595   4.471   9.666  0.3436 -0.2308  3.4961
  177SLPC  C21120179   4.478   4.355   9.521 -0.1174 -0.3810 -0.6532
  177SLPC  H11R20180   4.462   4.247   9.497  1.6671 -0.4699 -1.6387
  177SLPC  H11S20181   4.376   4.397   9.524 -0.9601 -2.3546  1.7533
  177SLPC  C21220182   4.555   4.413   9.404 -0.5139 -0.1724 -0.5585
  177SLPC  H12R20183   4.664   4.409   9.401 -0.3172  2.2711  0.8920
  177SLPC  C21320184   4.498   4.456   9.292  0.4464 -0.0538 -0.3826
  177SLPC  H13R20185   4.557   4.491   9.206  0.7020 -1.0461 -0.6241
  177SLPC  C21420186   4.350   4.449   9.264  0.0531 -0.3096 -0.1924
  177SLPC  H14R20187   4.306   4.550   9.277  0.5073  0.1250 -1.7694
  177SLPC  H14S20188   4.302   4.369   9.324  1.2369 -0.4072  0.6625
  177SLPC  C21520189   4.325   4.401   9.119  0.4459 -0.2451 -0.7543
  177SLPC  H15R20190   4.221   4.363   9.116  0.8205 -1.3094 -0.9274
  177SLPC  H15S20191   4.383   4.313   9.084 -1.0008 -1.1224 -1.0458
  177SLPC  C21620192   4.325   4.519   9.014 -0.0364 -1.1212  0.0992
  177SLPC  H16R20193   4.421   4.575   9.017 -2.2298  3.0189  0.9351
  177SLPC  H16S20194   4.248   4.593   9.045  0.9597  1.3671 -2.7770
  177SLPC  C21720195   4.273   4.465   8.882  0.6287  0.6149  0.6520
  177SLPC  H17R20196   4.252   4.552   8.817  1.3771  0.5022  0.2539
  177SLPC  H17S20197   4.180   4.409   8.907  0.5633  0.0999 -0.6567
  177SLPC  C21820198   4.369   4.385   8.795  0.8917  0.1271  0.0648
  177SLPC  H18R20199   4.460   4.439   8.763  0.9430  0.2810  0.4771
  177SLPC  H18S20200   4.317   4.344   8.705  2.5360 -0.8936 -0.4710
  177SLPC  H18T20201   4.402   4.291   8.846  2.3266 -0.0748 -1.1644
  177SLPC   C3320202   5.301   4.271  10.438  0.9856  0.1110 -0.2073
  177SLPC   H3X20203   5.327   4.373  10.472 -1.6529  0.6677  0.3888
  177SLPC   H3Y20204   5.226   4.284  10.356 -0.9852 -2.6843  0.9955
  177SLPC   C3420205   5.417   4.195  10.382 -0.1122 -0.2202  0.2861
  177SLPC   H4X20206   5.393   4.086  10.384 -2.3782  0.2381  0.5711
  177SLPC   H4Y20207   5.508   4.213  10.442  0.5230 -0.1674 -0.6751
  177SLPC   C3520208   5.456   4.238  10.236 -0.4792  0.1338 -0.1987
  177SLPC   H5X20209   5.550   4.190  10.203 -0.9909 -1.0058 -0.0502
  177SLPC   H5Y20210   5.484   4.345  10.250  0.6736 -0.4363  2.5667
  177SLPC   C3620211   5.358   4.228  10.116  0.2472  0.4496 -0.4146
  177SLPC   H6X20212   5.258   4.221  10.163  0.3267  0.1896 -0.2779
  177SLPC   H6Y20213   5.366   4.130  10.063  1.1121 -0.0246  0.5563
  177SLPC   C3720214   5.357   4.339  10.018 -0.2264  0.0947  0.2485
  177SLPC   H7X20215   5.444   4.407  10.028  0.1782 -0.4653  0.6692
  177SLPC   H7Y20216   5.261   4.391  10.037  0.0581  0.0750  1.8825
  177SLPC   C3820217   5.359   4.289   9.880  0.1734  0.1221  1.1455
  177SLPC   H8X20218   5.268   4.225   9.868  0.7378 -0.7107  1.1937
  177SLPC   H8Y20219   5.444   4.224   9.850 -1.1578 -1.0502 -0.3383
  177SLPC   C3920220   5.341   4.399   9.778  0.4696 -0.7012  0.0423
  177SLPC   H9X20221   5.427   4.468   9.793 -0.1405 -0.2631  1.7045
  177SLPC   H9Y20222   5.242   4.449   9.779  0.6164 -0.2324 -2.4795
  177SLPC  C31020223   5.353   4.339   9.637  0.3848 -0.3097  0.1762
  177SLPC  H10X20224   5.303   4.240   9.645 -1.8103  0.8191  1.3364
  177SLPC  H10Y20225   5.461   4.326   9.613  0.5833  0.1309  0.8012
  177SLPC  C31120226   5.280   4.421   9.528  0.9822  0.5095  0.2604
  177SLPC  H11X20227   5.308   4.527   9.546  0.7470  0.6639 -0.2624
  177SLPC  H11Y20228   5.169   4.409   9.531  1.0335 -0.0368  0.0813
  177SLPC  C31220229   5.330   4.378   9.394  0.0198 -0.4542  0.4368
  177SLPC  H12X20230   5.332   4.267   9.386  2.8870 -0.5333  1.2081
  177SLPC  H12Y20231   5.433   4.421   9.387  0.1395 -0.4373  1.9458
  177SLPC  C31320232   5.254   4.445   9.284  0.5654  0.8882 -0.5605
  177SLPC  H13X20233   5.274   4.554   9.280 -0.1494  1.0807  0.5638
  177SLPC  H13Y20234   5.146   4.421   9.290  0.4258  1.6720  0.4236
  177SLPC  C31420235   5.290   4.405   9.133  0.0047 -0.1666  0.3493
  177SLPC  H14X20236   5.389   4.451   9.112  0.4931 -0.8623  1.0391
  177SLPC  H14Y20237   5.231   4.460   9.057 -0.5316  0.5943  1.2998
  177SLPC  C31520238   5.271   4.258   9.085  0.6049  0.0044 -0.6580
  177SLPC  H15X20239   5.162   4.237   9.087  0.3500  1.1580 -1.1738
  177SLPC  H15Y20240   5.316   4.190   9.160 -0.1076  2.5679  2.3201
  177SLPC  C31620241   5.335   4.225   8.953 -0.1906 -0.5456  0.2104
  177SLPC  H16X20242   5.445   4.213   8.953  0.0439  0.3139 -3.9385
  177SLPC  H16Y20243   5.317   4.313   8.888 -2.3569 -1.2775 -0.2936
  177SLPC  C31720244   5.281   4.091   8.898 -0.0745  0.2861  0.2394
  177SLPC  H17X20245   5.260   4.017   8.977 -0.8743  0.1458 -0.0978
  177SLPC  H17Y20246   5.356   4.049   8.828 -0.2763 -0.0706  0.2389
  177SLPC  C31820247   5.149   4.117   8.823 -0.2664  0.3095 -0.0677
  177SLPC  H18X20248   5.100   4.018   8.824  0.5315 -0.1731 -2.1197
  177SLPC  H18Y20249   5.175   4.161   8.724  0.5527  1.3242  0.5721
  177SLPC  H18Z20250   5.083   4.183   8.883  0.9525  0.4066  1.2100
  178SLPC     N20251   6.249   4.101  11.089  0.4877  0.3300  0.2903
  178SLPC   C1320252   6.195   3.976  11.142 -0.7159  0.0556  0.5863
  178SLPC  H13A20253   6.177   3.983  11.248  1.2745  0.7933  0.9198
  178SLPC  H13B20254   6.101   3.941  11.101 -1.5937  3.0272 -0.2465
  178SLPC  H13C20255   6.259   3.889  11.137 -0.8954 -0.0140 -1.7902
  178SLPC   C1420256   6.345   4.149  11.187 -0.1732  0.1079 -0.0531
  178SLPC  H14A20257   6.297   4.197  11.270  0.6783 -0.4087  0.7489
  178SLPC  H14B20258   6.404   4.066  11.222 -0.2532 -0.1852 -0.5900
  178SLPC  H14C20259   6.417   4.224  11.159 -1.0582  1.1555  0.4161
  178SLPC   C1520260   6.137   4.206  11.084 -0.2727 -0.6029  0.2960
  178SLPC  H15A20261   6.173   4.295  11.034  0.2025 -0.5068  0.7955
  178SLPC  H15B20262   6.049   4.170  11.033 -0.6293  0.1220  0.3847
  178SLPC  H15C20263   6.114   4.240  11.184 -0.9834 -0.4167  0.0740
  178SLPC   C1220264   6.305   4.077  10.946  0.5386 -0.5511  0.1757
  178SLPC  H12A20265   6.224   4.095  10.876  2.4757 -1.3020 -2.4238
  178SLPC  H12B20266   6.344   3.976  10.950  0.5143 -0.5198  1.4796
  178SLPC   C1120267   6.417   4.168  10.895  0.2807 -0.6532  0.1263
  178SLPC  H11A20268   6.463   4.124  10.804  0.7435 -2.6702  1.2786
  178SLPC  H11B20269   6.492   4.145  10.975  1.4170  2.6171  0.1371
  178SLPC     P20270   6.327   4.389  10.775  0.2320 -0.0514  0.1442
  178SLPC   O1320271   6.184   4.346  10.742  0.0199  0.4242 -0.2173
  178SLPC   O1420272   6.339   4.535  10.793  0.1239  0.4446 -0.4044
  178SLPC   O1220273   6.391   4.310  10.899 -0.1078 -0.0883 -0.2982
  178SLPC   O1120274   6.423   4.356  10.656  0.1798 -0.5186  0.5308
  178SLPC    C120275   6.559   4.394  10.656  0.1809  0.2100  0.5275
  178SLPC    HA20276   6.599   4.411  10.759  0.0535 -2.0356  1.0117
  178SLPC    HB20277   6.626   4.316  10.614 -0.1573  0.1475  0.0994
  178SLPC    C220278   6.588   4.523  10.579  0.5833 -0.6543  0.9775
  178SLPC    HS20279   6.525   4.598  10.630 -0.3988 -2.6703  2.9102
  178SLPC   O2120280   6.572   4.495  10.437  0.5928  0.1588 -0.3164
  178SLPC   C2120281   6.444   4.502  10.392 -0.0071  0.4726  0.1778
  178SLPC   O2220282   6.354   4.555  10.448 -0.3850 -0.3680  0.3867
  178SLPC   C2220283   6.429   4.446  10.247 -0.5685 -0.4514  0.0063
  178SLPC   H2R20284   6.487   4.525  10.195 -0.3954  0.2078  1.1678
  178SLPC   H2S20285   6.482   4.350  10.228 -2.2849 -0.6688 -5.2395
  178SLPC    C320286   6.736   4.576  10.602 -0.7353  0.0242  0.6807
  178SLPC    HX20287   6.796   4.525  10.524 -0.3375 -0.9650  1.5955
  178SLPC    HY20288   6.768   4.537  10.701 -1.0168 -0.7974  0.4622
  178SLPC   O3120289   6.759   4.713  10.576  0.6642  0.6018  0.0457
  178SLPC   C3120290   6.706   4.797  10.664 -0.1344 -0.0326 -0.1123
  178SLPC   O3220291   6.668   4.759  10.770  0.3715  0.0233  0.0256
  178SLPC   C3220292   6.700   4.940  10.606 -0.8033  0.1689 -0.9694
  178SLPC   H2X20293   6.790   4.960  10.543 -0.0675 -0.0855 -0.0360
  178SLPC   H2Y20294   6.709   5.011  10.691 -1.2450  0.4948 -1.1973
  178SLPC   C2320295   6.283   4.418  10.192  0.4086  0.1425 -0.8665
  178SLPC   H3R20296   6.223   4.500  10.237  1.4276 -0.1460  1.1563
  178SLPC   H3S20297   6.245   4.335  10.256  0.7085  1.6612  1.4309
  178SLPC   C2420298   6.275   4.398  10.043 -0.4592  0.7955  0.5483
  178SLPC   H4R20299   6.191   4.333  10.010 -1.7385  1.8315  1.6911
  178SLPC   H4S20300   6.366   4.342  10.010 -2.9709 -2.6712 -1.1237
  178SLPC   C2520301   6.281   4.535   9.984 -0.3473  0.6843 -0.2875
  178SLPC   H5R20302   6.384   4.576   9.989 -1.1432  2.7326  3.0693
  178SLPC   H5S20303   6.232   4.614  10.046  0.2040  1.8150 -1.2481
  178SLPC   C2620304   6.227   4.526   9.841 -0.5849  0.6573  0.5327
  178SLPC   H6R20305   6.196   4.625   9.801  2.4034  1.2693 -0.5255
  178SLPC   H6S20306   6.146   4.451   9.840 -0.4583  0.4352 -2.6015
  178SLPC   C2720307   6.333   4.461   9.741  0.4422 -0.2849 -1.0097
  178SLPC   H7R20308   6.350   4.358   9.781 -1.2722  0.0309  0.6628
  178SLPC   H7S20309   6.424   4.524   9.738  0.2105  0.0279 -1.7473
  178SLPC   C2820310   6.276   4.453   9.593 -0.2282 -0.2422  0.7927
  178SLPC   H8R20311   6.182   4.396   9.604 -1.4264  1.2593 -1.0965
  178SLPC   H8S20312   6.346   4.392   9.532 -1.6998 -0.0701 -1.1670
  178SLPC   C2920313   6.260   4.584   9.529 -0.2837 -1.1858 -0.2925
  178SLPC   H9R20314   6.261   4.670   9.598 -0.6900 -0.1664 -1.5072
  178SLPC  C21020315   6.225   4.609   9.404  0.1617  0.0057 -0.1852
  178SLPC  H10R20316   6.207   4.711   9.368 -1.7576 -0.7954 -1.6860
  178SLPC  C21120317   6.190   4.509   9.296 -0.0111  0.2458 -0.2002
  178SLPC  H11R20318   6.125   4.564   9.225  1.9184 -0.6386 -2.8267
  178SLPC  H11S20319   6.130   4.430   9.346  0.9962  0.5895  1.6212
  178SLPC  C21220320   6.305   4.447   9.215 -0.3000 -0.1741  0.1322
  178SLPC  H12R20321   6.372   4.381   9.271 -0.6013  0.8492  1.7600
  178SLPC  C21320322   6.333   4.469   9.088  0.0763  0.5893  0.4939
  178SLPC  H13R20323   6.420   4.415   9.047 -0.8539  1.4727 -3.0173
  178SLPC  C21420324   6.265   4.563   8.990  0.0566  0.5749 -0.9188
  178SLPC  H14R20325   6.317   4.662   8.994 -0.5091  0.8799 -0.9837
  178SLPC  H14S20326   6.167   4.609   9.017  0.4503  1.3732 -0.7997
  178SLPC  C21520327   6.238   4.476   8.864  0.2513 -0.4418 -0.1464
  178SLPC  H15R20328   6.189   4.381   8.894  1.9340 -1.1601  0.4420
  178SLPC  H15S20329   6.332   4.453   8.809  0.2018 -2.1573  0.4209
  178SLPC  C21620330   6.152   4.548   8.760  0.5088 -0.2478  0.7420
  178SLPC  H16R20331   6.193   4.641   8.716  1.0638 -1.2597 -0.9873
  178SLPC  H16S20332   6.057   4.578   8.809  1.9456 -0.0169  3.5750
  178SLPC  C21720333   6.113   4.454   8.640  0.3368  0.3515  0.5147
  178SLPC  H17R20334   6.066   4.360   8.676 -1.5170  1.0515  0.0462
  178SLPC  H17S20335   6.214   4.428   8.601  0.2130  0.3297  0.1994
  178SLPC  C21820336   6.023   4.520   8.534  0.5052  0.0460  0.6146
  178SLPC  H18R20337   6.079   4.604   8.488 -0.5221 -0.0815 -0.9628
  178SLPC  H18S20338   5.934   4.559   8.589  1.0455  1.4346  0.5514
  178SLPC  H18T20339   5.995   4.445   8.458 -1.8908  0.0983  1.3428
  178SLPC   C3320340   6.567   4.969  10.534  0.2139  0.6991  0.2706
  178SLPC   H3X20341   6.573   5.077  10.506  1.1228  0.2199 -1.5734
  178SLPC   H3Y20342   6.492   4.952  10.614 -0.5260 -1.8523 -0.8556
  178SLPC   C3420343   6.528   4.877  10.423 -0.1491  0.6691  0.1891
  178SLPC   H4X20344   6.426   4.900  10.384 -1.6463 -1.8208  2.3096
  178SLPC   H4Y20345   6.521   4.771  10.454  0.6252 -0.1103 -2.1334
  178SLPC   C3520346   6.631   4.879  10.308 -0.0912 -0.0955 -0.6019
  178SLPC   H5X20347   6.717   4.817  10.341 -1.2407 -1.0908  0.6647
  178SLPC   H5Y20348   6.649   4.988  10.295  0.0277 -0.0680 -0.2337
  178SLPC   C3620349   6.576   4.804  10.183  0.2008  0.8477 -0.6663
  178SLPC   H6X20350   6.469   4.782  10.203  0.1157  1.7714 -0.0283
  178SLPC   H6Y20351   6.619   4.703  10.169 -3.3153 -0.9118 -0.0084
  178SLPC   C3720352   6.614   4.884  10.067 -0.9028  0.2416  0.0200
  178SLPC   H7X20353   6.724   4.870  10.067 -1.1391 -2.1526 -0.4686
  178SLPC   H7Y20354   6.577   4.988  10.076  0.3321  0.6794  0.1925
  178SLPC   C3820355   6.540   4.831   9.945  0.1992  0.4409  0.4648
  178SLPC   H8X20356   6.434   4.852   9.971  0.3643 -1.3884  3.0108
  178SLPC   H8Y20357   6.553   4.723   9.924  0.4172  0.6087 -0.2951
  178SLPC   C3920358   6.569   4.917   9.816 -0.0425  0.1884 -0.7986
  178SLPC   H9X20359   6.678   4.906   9.799  0.1223  0.4188  0.0545
  178SLPC   H9Y20360   6.551   5.024   9.836 -0.1067 -0.3509  2.6062
  178SLPC  C31020361   6.484   4.868   9.694 -0.3322  0.3219  0.2655
  178SLPC  H10X20362   6.378   4.878   9.725 -0.3405  0.3671  0.2225
  178SLPC  H10Y20363   6.508   4.762   9.673 -2.2710 -0.3057  1.0478
  178SLPC  C31120364   6.493   4.977   9.588  0.6179 -0.0633  0.5250
  178SLPC  H11X20365   6.599   4.999   9.563  0.5324  0.2303  0.4181
  178SLPC  H11Y20366   6.457   5.074   9.627 -0.2347  0.3518 -1.1956
  178SLPC  C31220367   6.404   4.942   9.461 -0.1161 -0.2953 -0.0780
  178SLPC  H12X20368   6.295   4.940   9.485  0.2859  0.4072  2.0605
  178SLPC  H12Y20369   6.427   4.838   9.429 -2.2914 -0.4351 -1.4482
  178SLPC  C31320370   6.419   5.039   9.341 -0.8806  1.0401  0.1861
  178SLPC  H13X20371   6.527   5.038   9.316 -0.4185  0.8007  2.0063
  178SLPC  H13Y20372   6.388   5.140   9.374 -0.5470  0.8264  1.1903
  178SLPC  C31420373   6.345   4.986   9.222  0.8702  0.6175  0.4006
  178SLPC  H14X20374   6.238   4.970   9.246  0.8860  0.2719  0.2525
  178SLPC  H14Y20375   6.372   4.880   9.204 -0.6969  0.2437  0.1015
  178SLPC  C31520376   6.365   5.069   9.091 -0.3500  0.1547  0.2066
  178SLPC  H15X20377   6.365   5.177   9.117 -0.8320  0.0873  0.5095
  178SLPC  H15Y20378   6.463   5.034   9.052 -0.3670 -0.4133  0.6627
  178SLPC  C31620379   6.252   5.036   8.986 -0.2391 -0.2399  0.7493
  178SLPC  H16X20380   6.153   5.069   9.023 -1.0623  0.2577 -1.7095
  178SLPC  H16Y20381   6.255   4.925   8.979  0.8987 -0.1813  0.0055
  178SLPC  C31720382   6.267   5.101   8.849  0.1313  0.1013  0.4006
  178SLPC  H17X20383   6.258   5.211   8.861  4.6926  0.7397 -0.3462
  178SLPC  H17Y20384   6.179   5.055   8.798  0.2858  0.8268 -0.5490
  178SLPC  C31820385   6.395   5.066   8.774 -0.5745 -0.2336 -0.4492
  178SLPC  H18X20386   6.395   5.107   8.671 -0.6982  0.4774 -0.1708
  178SLPC  H18Y20387   6.403   4.955   8.765 -3.5004 -0.7442  1.6915
  178SLPC  H18Z20388   6.478   5.108   8.835 -0.5890 -2.5302  1.3099
  179SLPC     N20389   1.004   0.783  10.882 -0.0340  0.4034  0.4305
  179SLPC   C1320390   0.983   0.633  10.897 -0.6505  0.4643  0.1154
  179SLPC  H13A20391   0.973   0.590  10.995 -0.1343 -2.2135 -0.9166
  179SLPC  H13B20392   0.888   0.614  10.850 -0.5818 -0.1619  0.2228
  179SLPC  H13C20393   1.054   0.578  10.837 -2.1373 -0.6139 -0.7303
  179SLPC   C1420394   1.123   0.811  10.963  0.1943 -0.0776  0.6275
  179SLPC  H14A20395   1.211   0.769  10.918 -0.5516 -1.4688  0.4274
  179SLPC  H14B20396   1.139   0.917  10.981  0.6083 -0.1727  0.8190
  179SLPC  H14C20397   1.122   0.768  11.062  0.5490  0.6371  0.9506
  179SLPC   C1520398   0.892   0.859  10.945 -0.2893  0.1376  0.1480
  179SLPC  H15A20399   0.869   0.820  11.043 -1.7169  0.8943  0.1329
  179SLPC  H15B20400   0.921   0.963  10.958 -0.1611  0.1955 -0.5790
  179SLPC  H15C20401   0.802   0.861  10.885  0.8091 -0.7091 -1.6053
  179SLPC   C1220402   1.036   0.818  10.738 -0.2819  0.1360 -0.2955
  179SLPC  H12A20403   1.103   0.738  10.709 -1.0719 -0.6598  0.0187
  179SLPC  H12B20404   1.091   0.911  10.737  0.0830 -0.0506 -2.3207
  179SLPC   C1120405   0.932   0.835  10.633 -0.7706 -0.4111  0.3690
  179SLPC  H11A20406   0.977   0.875  10.539  3.4058  0.3427  2.4585
  179SLPC  H11B20407   0.850   0.904  10.662 -0.0068  0.2823  0.9381
  179SLPC     P20408   0.946   0.591  10.518  0.2599  0.5376 -0.2573
  179SLPC   O1320409   1.077   0.555  10.577  0.2348  0.0758  0.4249
  179SLPC   O1420410   0.851   0.482  10.483 -0.2781 -0.0406  0.2435
  179SLPC   O1220411   0.875   0.708  10.594  0.0074  0.9329  0.1286
  179SLPC   O1120412   0.978   0.667  10.380 -0.3320 -0.3267 -0.2702
  179SLPC    C120413   0.882   0.708  10.281 -0.4597 -0.1317 -0.0535
  179SLPC    HA20414   0.794   0.753  10.332  0.3204  1.5053 -0.1105
  179SLPC    HB20415   0.923   0.798  10.232 -0.7542  1.2305  2.0518
  179SLPC    C220416   0.846   0.603  10.172 -0.0419  0.1639  0.1347
  179SLPC    HS20417   0.813   0.515  10.231 -0.6250 -0.3289 -0.8931
  179SLPC   O2120418   0.978   0.566  10.114  0.3594  0.0876  0.2681
  179SLPC   C2120419   0.989   0.436  10.071  0.2390  0.1024  0.4998
  179SLPC   O2220420   0.896   0.359  10.060  0.0383 -0.0826  0.0985
  179SLPC   C2220421   1.133   0.422  10.017  0.2965 -0.2684 -0.1042
  179SLPC   H2R20422   1.197   0.505  10.052  0.9965 -0.7559 -0.2210
  179SLPC   H2S20423   1.168   0.325  10.058 -0.3381 -0.2031  0.6112
  179SLPC    C320424   0.734   0.633  10.067  0.8148 -0.5729  0.3963
  179SLPC    HX20425   0.645   0.661  10.127 -0.0099  0.3891 -1.1993
  179SLPC    HY20426   0.721   0.541  10.007 -0.5016  0.2506 -0.6190
  179SLPC   O3120427   0.762   0.753   9.990 -0.0093 -0.0810  0.1680
  179SLPC   C3120428   0.863   0.753   9.904  0.3384 -0.1133  0.0616
  179SLPC   O3220429   0.903   0.654   9.857 -0.8183 -0.3863  0.1548
  179SLPC   C3220430   0.909   0.902   9.874 -0.3365 -0.1521 -0.6463
  179SLPC   H2X20431   0.846   0.973   9.932  2.3862  2.0716 -0.2253
  179SLPC   H2Y20432   0.881   0.927   9.769  0.9643  2.3257 -0.4834
  179SLPC   C2320433   1.132   0.407   9.868 -1.0924  0.7928  0.3496
  179SLPC   H3R20434   1.077   0.487   9.814  0.6291  0.8652 -1.3865
  179SLPC   H3S20435   1.094   0.303   9.854 -0.0138  0.3115  0.8501
  179SLPC   C2420436   1.274   0.405   9.810 -0.7431 -0.4643  1.0713
  179SLPC   H4R20437   1.333   0.322   9.851  3.4665  1.3802 -0.7035
  179SLPC   H4S20438   1.326   0.499   9.837  1.0490 -1.2659  0.4962
  179SLPC   C2520439   1.267   0.386   9.654 -0.2059 -0.2599 -0.4065
  179SLPC   H5R20440   1.202   0.470   9.621 -1.8237 -0.4393  2.0276
  179SLPC   H5S20441   1.218   0.290   9.630 -1.5337  0.1070  0.6804
  179SLPC   C2620442   1.405   0.404   9.587 -0.1431  0.8043 -0.2107
  179SLPC   H6R20443   1.470   0.316   9.607 -0.4596  0.9510  1.6588
  179SLPC   H6S20444   1.448   0.488   9.646 -0.5202 -0.0285  1.3167
  179SLPC   C2720445   1.388   0.437   9.435 -0.0508 -0.0332  0.5461
  179SLPC   H7R20446   1.337   0.533   9.411  0.0221 -0.2769 -0.6087
  179SLPC   H7S20447   1.336   0.349   9.391  1.2075 -1.1025  1.1481
  179SLPC   C2820448   1.525   0.441   9.374 -0.4663 -0.4439  0.2321
  179SLPC   H8R20449   1.550   0.339   9.339 -1.4686 -1.0842  1.3180
  179SLPC   H8S20450   1.597   0.461   9.456 -0.9895  0.0506  0.5838
  179SLPC   C2920451   1.533   0.534   9.252  0.7893  0.4259  1.1224
  179SLPC   H9R20452   1.440   0.576   9.210  0.5404 -1.8575 -0.8126
  179SLPC  C21020453   1.643   0.568   9.189  0.2670  0.0462  0.1912
  179SLPC  H10R20454   1.639   0.642   9.108 -0.6275  1.5886  1.5945
  179SLPC  C21120455   1.779   0.517   9.223  0.2082  0.5720 -0.6802
  179SLPC  H11R20456   1.781   0.412   9.188 -0.1495  0.0957  0.6490
  179SLPC  H11S20457   1.790   0.508   9.333 -4.1152  0.2688 -0.1125
  179SLPC  C21220458   1.881   0.603   9.161  0.0122 -0.2911  0.3613
  179SLPC  H12R20459   1.886   0.703   9.207  1.5618 -0.7333  1.2521
  179SLPC  C21320460   1.974   0.566   9.064 -0.7775 -0.0902 -0.8332
  179SLPC  H13R20461   2.047   0.641   9.029  1.4845 -0.5413  2.4626
  179SLPC  C21420462   1.995   0.437   8.995  0.5069  0.2095 -0.4758
  179SLPC  H14R20463   1.958   0.456   8.892  1.6829 -0.0695 -0.9729
  179SLPC  H14S20464   1.938   0.352   9.038  0.4091  0.6118  0.2107
  179SLPC  C21520465   2.148   0.409   8.973  1.5041 -0.3549 -0.3882
  179SLPC  H15R20466   2.204   0.401   9.069  1.8346 -1.5727 -0.6587
  179SLPC  H15S20467   2.184   0.491   8.908  1.5428 -0.9486 -1.1227
  179SLPC  C21620468   2.174   0.275   8.905  0.4030  0.2206  0.0004
  179SLPC  H16R20469   2.127   0.272   8.804  0.0419 -0.1859  0.1780
  179SLPC  H16S20470   2.119   0.197   8.963  0.2503 -1.2163 -1.9835
  179SLPC  C21720471   2.321   0.239   8.900 -0.5413 -0.6651 -0.4771
  179SLPC  H17R20472   2.364   0.200   8.996 -1.8328 -1.5693 -0.2419
  179SLPC  H17S20473   2.394   0.316   8.868 -0.4624 -0.5523 -0.0390
  179SLPC  C21820474   2.336   0.116   8.820 -0.1510  0.3408 -0.2847
  179SLPC  H18R20475   2.261   0.037   8.843  0.4137 -0.0628  0.1951
  179SLPC  H18S20476   2.432   0.063   8.839 -1.4921 -2.1186  0.1614
  179SLPC  H18T20477   2.325   0.117   8.709  1.9081 -3.7551 -0.7507
  179SLPC   C3320478   1.063   0.931   9.887  0.0373  0.4105  0.2751
  179SLPC   H3X20479   1.100   0.913   9.990  0.3021  0.5025  0.1957
  179SLPC   H3Y20480   1.069   1.040   9.867 -0.4194  0.1618 -1.3833
  179SLPC   C3420481   1.158   0.870   9.780  0.4605  0.0273 -1.5678
  179SLPC   H4X20482   1.180   0.762   9.796 -0.6571 -0.0585 -0.4693
  179SLPC   H4Y20483   1.247   0.936   9.788 -1.5533  2.7200  0.5034
  179SLPC   C3520484   1.119   0.887   9.635  0.1600 -0.1914 -0.2003
  179SLPC   H5X20485   1.068   0.986   9.634 -1.3515 -0.9421 -1.1368
  179SLPC   H5Y20486   1.045   0.808   9.612 -0.6780  0.7464 -0.8183
  179SLPC   C3620487   1.238   0.871   9.543  0.1517  0.5953  1.0184
  179SLPC   H6X20488   1.298   0.781   9.571  1.0512  1.0101  0.4807
  179SLPC   H6Y20489   1.314   0.951   9.552  1.6457 -0.7497  0.8347
  179SLPC   C3720490   1.199   0.845   9.403  0.5996 -0.4395  0.6508
  179SLPC   H7X20491   1.143   0.749   9.401 -0.2957  0.0804 -1.0608
  179SLPC   H7Y20492   1.287   0.824   9.338 -1.3030 -0.4714 -2.0922
  179SLPC   C3820493   1.129   0.967   9.320 -0.2329  0.2727 -0.3683
  179SLPC   H8X20494   1.185   1.063   9.317 -1.3852  0.9682 -0.2854
  179SLPC   H8Y20495   1.030   0.990   9.365  0.0983 -0.6619  0.8921
  179SLPC   C3920496   1.120   0.944   9.164 -0.4067 -0.1238 -0.4741
  179SLPC   H9X20497   1.040   1.009   9.123 -2.2330 -1.7994  0.2588
  179SLPC   H9Y20498   1.065   0.848   9.160 -0.5659 -0.2206  2.0179
  179SLPC  C31020499   1.251   0.931   9.091 -0.4995 -0.0539 -0.5920
  179SLPC  H10X20500   1.310   0.844   9.126  1.3234  1.2165 -0.3388
  179SLPC  H10Y20501   1.320   1.018   9.098  1.5729 -1.3228 -3.4930
  179SLPC  C31120502   1.232   0.904   8.944  0.2081  0.3632 -0.2435
  179SLPC  H11X20503   1.176   0.809   8.932  0.0552  0.4545 -0.2567
  179SLPC  H11Y20504   1.331   0.897   8.896 -0.4786 -0.7311 -1.5776
  179SLPC  C31220505   1.168   1.018   8.873  0.4189 -0.2791  0.3066
  179SLPC  H12X20506   1.240   1.102   8.882  0.0960  0.3546 -2.2676
  179SLPC  H12Y20507   1.070   1.057   8.908  0.1005 -1.7646  1.1511
  179SLPC  C31320508   1.147   0.987   8.726 -0.3435 -0.0719  0.7173
  179SLPC  H13X20509   1.080   0.900   8.712 -1.7417  1.1676 -0.7255
  179SLPC  H13Y20510   1.244   0.968   8.676 -0.7338  0.7082 -0.3743
  179SLPC  C31420511   1.083   1.107   8.659 -0.1219  0.3020  0.0104
  179SLPC  H14X20512   1.155   1.191   8.667  1.9267 -1.1615 -1.8496
  179SLPC  H14Y20513   0.983   1.127   8.702 -0.8983  0.5483 -1.7948
  179SLPC  C31520514   1.061   1.100   8.508  0.3689 -0.2556  0.1895
  179SLPC  H15X20515   0.990   1.021   8.474 -0.7876  0.0034  1.8475
  179SLPC  H15Y20516   1.156   1.074   8.457  0.8231 -1.2213  1.4486
  179SLPC  C31620517   1.000   1.230   8.448 -0.4765  0.8237  0.3557
  179SLPC  H16X20518   1.020   1.236   8.339 -0.4727  0.1813  0.3184
  179SLPC  H16Y20519   1.051   1.319   8.492  0.7097 -0.0045  0.7025
  179SLPC  C31720520   0.849   1.237   8.465  0.1285 -0.0120  0.0692
  179SLPC  H17X20521   0.815   1.220   8.569  0.6147 -1.7501 -0.0112
  179SLPC  H17Y20522   0.807   1.156   8.400  1.5497 -0.1516 -0.7330
  179SLPC  C31820523   0.803   1.370   8.401  0.3466  0.1639  0.0498
  179SLPC  H18X20524   0.825   1.357   8.293 -1.5623 -1.3015 -0.2213
  179SLPC  H18Y20525   0.856   1.456   8.448  1.9416 -1.0894  0.6300
  179SLPC  H18Z20526   0.692   1.367   8.412  0.2285 -1.4038 -1.2264
  180SLPC     N20527   1.359   4.744  10.940 -0.5065  0.1735 -0.1300
  180SLPC   C1320528   1.216   4.732  10.978 -0.6661 -0.1539  0.1431
  180SLPC  H13A20529   1.199   4.734  11.084 -1.6950 -0.0868 -0.0092
  180SLPC  H13B20530   1.167   4.822  10.942  0.2682  1.5908  2.9737
  180SLPC  H13C20531   1.165   4.654  10.923  0.1366  0.3102 -1.3146
  180SLPC   C1420532   1.441   4.627  10.988  0.0618 -0.1139 -0.0362
  180SLPC  H14A20533   1.451   4.630  11.096 -1.7849  0.9196  0.1588
  180SLPC  H14B20534   1.388   4.536  10.965  0.2602 -0.5296  1.0798
  180SLPC  H14C20535   1.538   4.634  10.941 -0.4607 -2.5079 -1.6367
  180SLPC   C1520536   1.414   4.867  11.007  0.3093 -0.4976 -0.6730
  180SLPC  H15A20537   1.394   4.859  11.113  0.1553 -0.0699 -0.6684
  180SLPC  H15B20538   1.521   4.874  10.997  0.5202  1.0790  1.8985
  180SLPC  H15C20539   1.354   4.952  10.977 -0.9760 -1.0230  0.3115
  180SLPC   C1220540   1.384   4.767  10.789  0.6200 -0.4763  0.3037
  180SLPC  H12A20541   1.372   4.669  10.744 -0.0292 -0.3918  0.2785
  180SLPC  H12B20542   1.484   4.802  10.768 -0.2262  0.8252 -1.9409
  180SLPC   C1120543   1.287   4.857  10.708 -1.3650  0.3074  0.0353
  180SLPC  H11A20544   1.184   4.818  10.719 -1.4730 -0.4322 -2.8231
  180SLPC  H11B20545   1.319   4.843  10.603  1.1731  1.1839  0.6250
  180SLPC     P20546   1.411   5.088  10.686 -0.5116  0.1467 -0.6833
  180SLPC   O1320547   1.476   5.168  10.796  0.0262 -0.6996  0.3219
  180SLPC   O1420548   1.501   5.013  10.591  0.1948  0.2528  0.0913
  180SLPC   O1220549   1.310   4.989  10.751 -0.3970  0.8442  0.1448
  180SLPC   O1120550   1.325   5.190  10.600 -0.0362 -0.4235  0.2388
  180SLPC    C120551   1.206   5.147  10.538 -0.0304  0.2115 -0.2893
  180SLPC    HA20552   1.189   5.038  10.527  0.4700  0.0601  0.3618
  180SLPC    HB20553   1.118   5.173  10.601 -3.0819 -3.1080 -2.7685
  180SLPC    C220554   1.188   5.202  10.397 -0.2709 -0.1214  0.4182
  180SLPC    HS20555   1.089   5.172  10.356  0.3588 -0.9277 -0.5668
  180SLPC   O2120556   1.305   5.172  10.319 -0.7771 -0.0661  0.9704
  180SLPC   C2120557   1.300   5.037  10.276  0.2244 -0.2637 -0.6378
  180SLPC   O2220558   1.213   4.959  10.303 -0.0824 -0.3508 -0.5548
  180SLPC   C2220559   1.420   4.999  10.183  0.6387 -0.8716 -0.6714
  180SLPC   H2R20560   1.514   5.029  10.234  0.7618 -0.6911 -0.9999
  180SLPC   H2S20561   1.414   4.888  10.175  0.5396 -0.9786  0.7749
  180SLPC    C320562   1.183   5.360  10.411  0.2839  0.2508 -0.3190
  180SLPC    HX20563   1.271   5.400  10.465  1.0775 -3.5833  1.5985
  180SLPC    HY20564   1.095   5.383  10.475  0.2516 -1.0605  0.1390
  180SLPC   O3120565   1.187   5.420  10.280  0.0531  0.5400  0.1279
  180SLPC   C3120566   1.075   5.404  10.202 -0.6711  0.3322 -0.4503
  180SLPC   O3220567   0.982   5.331  10.229  0.3029 -0.3038  0.4068
  180SLPC   C3220568   1.080   5.498  10.084  0.3821  0.3893  0.7423
  180SLPC   H2X20569   1.187   5.510  10.057  1.2801 -3.5009  1.8879
  180SLPC   H2Y20570   1.039   5.599  10.104 -4.6455 -0.6812 -2.2936
  180SLPC   C2320571   1.401   5.058  10.042  0.3254 -0.7493 -0.3468
  180SLPC   H3R20572   1.496   5.030   9.993  1.2008  0.2511  0.7249
  180SLPC   H3S20573   1.403   5.169  10.049 -1.0258 -0.6639 -1.0584
  180SLPC   C2420574   1.285   5.008   9.953  0.1048  0.6816  0.0024
  180SLPC   H4R20575   1.190   5.061   9.975 -1.4705 -1.9572 -0.0517
  180SLPC   H4S20576   1.273   4.899   9.940 -0.4267  1.0155 -3.1877
  180SLPC   C2520577   1.327   5.053   9.803 -0.1196  0.1179 -0.2233
  180SLPC   H5R20578   1.428   5.012   9.781  0.0024  0.2639  0.0492
  180SLPC   H5S20579   1.333   5.163   9.795 -1.8161  0.2489  0.0597
  180SLPC   C2620580   1.245   4.993   9.688 -0.5837  0.0331  0.8755
  180SLPC   H6R20581   1.136   5.009   9.697 -0.5041  0.4390  1.2109
  180SLPC   H6S20582   1.260   4.884   9.677  1.2186  0.4934 -2.6535
  180SLPC   C2720583   1.287   5.056   9.554 -0.1687  0.7412  0.9210
  180SLPC   H7R20584   1.396   5.071   9.538  0.0264 -0.8675  0.5839
  180SLPC   H7S20585   1.252   5.161   9.555 -2.3823  0.1486 -1.6128
  180SLPC   C2820586   1.220   4.984   9.437 -0.5332 -0.4288 -0.1051
  180SLPC   H8R20587   1.111   4.973   9.453 -0.5886  1.1312  0.7747
  180SLPC   H8S20588   1.262   4.882   9.424 -0.1935 -0.3670  0.4581
  180SLPC   C2920589   1.223   5.061   9.300  0.0873 -0.4137 -0.4519
  180SLPC   H9R20590   1.185   5.161   9.326 -2.9596 -1.1507 -1.6858
  180SLPC  C21020591   1.248   5.018   9.175  0.2109 -0.0677 -0.2939
  180SLPC  H10R20592   1.242   5.089   9.091 -1.4127 -1.1455 -1.1319
  180SLPC  C21120593   1.275   4.882   9.130 -0.1611  0.0488 -0.3875
  180SLPC  H11R20594   1.195   4.862   9.056  1.4323  0.5937 -2.3394
  180SLPC  H11S20595   1.250   4.805   9.207 -2.6985  0.5593 -0.6049
  180SLPC  C21220596   1.416   4.864   9.078 -0.2925 -0.4688 -0.3603
  180SLPC  H12R20597   1.469   4.955   9.047  1.7187 -1.6103 -0.4746
  180SLPC  C21320598   1.457   4.752   9.023  0.0201  0.3760 -0.2053
  180SLPC  H13R20599   1.560   4.745   8.986 -0.3907  0.2306 -1.3566
  180SLPC  C21420600   1.382   4.623   9.014  0.4143  0.5990  0.0966
  180SLPC  H14R20601   1.334   4.606   8.915 -2.1452 -1.0666  1.5253
  180SLPC  H14S20602   1.301   4.613   9.089 -1.5735 -1.5977 -2.1543
  180SLPC  C21520603   1.475   4.495   9.035  0.5967  0.4296  0.3523
  180SLPC  H15R20604   1.530   4.502   9.131  0.0244  0.5173  0.6747
  180SLPC  H15S20605   1.557   4.504   8.961 -1.9358 -0.0805 -2.7285
  180SLPC  C21620606   1.389   4.368   9.014 -0.2934  0.2241 -0.0789
  180SLPC  H16R20607   1.358   4.372   8.908 -1.3507 -0.5930  0.1763
  180SLPC  H16S20608   1.299   4.375   9.079  0.8724 -1.2115  1.8212
  180SLPC  C21720609   1.467   4.239   9.046 -0.3900  0.0688 -0.4847
  180SLPC  H17R20610   1.502   4.231   9.151  1.2115 -0.2771 -1.0041
  180SLPC  H17S20611   1.561   4.229   8.987 -0.6037  0.5806 -0.9131
  180SLPC  C21820612   1.386   4.112   8.999 -0.4748 -0.2321  0.6043
  180SLPC  H18R20613   1.279   4.118   9.025 -0.1651  3.0274  1.5894
  180SLPC  H18S20614   1.426   4.012   9.026 -2.9481 -1.8086 -1.1995
  180SLPC  H18T20615   1.387   4.105   8.888 -1.4992  0.6895  0.5184
  180SLPC   C3320616   1.024   5.444   9.951  0.1017  0.1096 -0.5377
  180SLPC   H3X20617   0.920   5.408   9.964  0.0326 -0.1650 -1.7212
  180SLPC   H3Y20618   1.082   5.355   9.921  2.7859  1.5306  0.1211
  180SLPC   C3420619   1.032   5.544   9.833 -0.8633 -0.1230  0.6414
  180SLPC   H4X20620   1.136   5.571   9.804 -0.5652  0.5681  2.2281
  180SLPC   H4Y20621   0.971   5.633   9.858  0.1592  0.2494  1.9598
  180SLPC   C3520622   0.965   5.472   9.710 -0.7643 -0.4800 -1.1833
  180SLPC   H5X20623   0.866   5.437   9.746 -0.6920  0.0857 -0.4057
  180SLPC   H5Y20624   1.017   5.376   9.690 -3.0799 -2.2927  0.9062
  180SLPC   C3620625   0.926   5.564   9.594  0.7035 -0.7420 -0.3472
  180SLPC   H6X20626   1.015   5.623   9.561  1.0412 -0.7013  0.6092
  180SLPC   H6Y20627   0.849   5.636   9.628  0.0970  0.1185 -3.2373
  180SLPC   C3720628   0.866   5.491   9.474 -0.1540  0.7140  0.5600
  180SLPC   H7X20629   0.785   5.417   9.493  0.9682 -0.7314 -0.0934
  180SLPC   H7Y20630   0.951   5.431   9.436 -0.4432  0.4441  0.3361
  180SLPC   C3820631   0.823   5.582   9.362 -0.2372 -0.5773  0.9020
  180SLPC   H8X20632   0.908   5.653   9.350 -0.3915 -0.1574  2.1957
  180SLPC   H8Y20633   0.740   5.649   9.393 -1.7935 -2.8677  1.9308
  180SLPC   C3920634   0.792   5.521   9.227  0.5071 -0.2691  1.0331
  180SLPC   H9X20635   0.702   5.460   9.247  0.5111 -0.3799  0.7301
  180SLPC   H9Y20636   0.867   5.453   9.182 -1.6350 -2.5980  0.7650
  180SLPC  C31020637   0.759   5.636   9.133 -0.2280 -0.5516  0.8362
  180SLPC  H10X20638   0.848   5.703   9.127  1.8854 -3.2702 -0.4330
  180SLPC  H10Y20639   0.666   5.689   9.162 -2.3215 -1.8572 -2.8806
  180SLPC  C31120640   0.736   5.584   8.993  0.1107  0.3058  0.0205
  180SLPC  H11X20641   0.664   5.501   9.008  1.4054 -0.8976 -0.2637
  180SLPC  H11Y20642   0.829   5.532   8.962 -0.7885 -0.5415 -1.4073
  180SLPC  C31220643   0.700   5.696   8.892 -0.2817  0.3074  0.4261
  180SLPC  H12X20644   0.787   5.765   8.880  1.5843 -1.0019  4.6479
  180SLPC  H12Y20645   0.613   5.752   8.933 -0.0377  1.4844 -0.5748
  180SLPC  C31320646   0.656   5.637   8.759  0.5509  0.0467  0.3189
  180SLPC  H13X20647   0.550   5.605   8.770 -0.5176  2.7866 -0.9773
  180SLPC  H13Y20648   0.707   5.544   8.727  2.0548  1.0529 -0.3713
  180SLPC  C31420649   0.670   5.741   8.646  0.6429 -0.5163  0.7643
  180SLPC  H14X20650   0.774   5.779   8.645  0.0157  1.2966  0.1491
  180SLPC  H14Y20651   0.599   5.824   8.666 -0.0048 -0.9034  0.1109
  180SLPC  C31520652   0.637   5.681   8.509 -0.2079  0.5498 -0.7355
  180SLPC  H15X20653   0.527   5.663   8.505 -0.0461 -0.4036 -1.2173
  180SLPC  H15Y20654   0.701   5.591   8.496  0.2228  0.6474  0.6047
  180SLPC  C31620655   0.669   5.780   8.407  0.2640 -0.1745  0.6134
  180SLPC  H16X20656   0.777   5.803   8.394  0.2225 -0.2861 -0.0034
  180SLPC  H16Y20657   0.612   5.872   8.432  0.1152  0.8660 -2.9767
  180SLPC  C31720658   0.621   5.730   8.264 -0.6188  0.4177 -0.6406
  180SLPC  H17X20659   0.513   5.706   8.265 -0.4358 -0.5646  1.1503
  180SLPC  H17Y20660   0.673   5.635   8.238  1.2743  0.5550  2.1838
  180SLPC  C31820661   0.631   5.829   8.158 -0.7441  0.0803 -0.7718
  180SLPC  H18X20662   0.581   5.920   8.198  0.3950 -0.9093  3.3731
  180SLPC  H18Y20663   0.585   5.785   8.066  0.5081 -1.2139 -0.8171
  180SLPC  H18Z20664   0.738   5.847   8.136 -0.9938  1.1354 -1.1540
  181SLPC     N20665   5.518   4.696  11.429  0.4259  0.3242  0.2885
  181SLPC   C1320666   5.597   4.577  11.444 -0.5077 -0.1441  0.2564
  181SLPC  H13A20667   5.574   4.514  11.360  0.4499  0.9437 -0.8726
  181SLPC  H13B20668   5.704   4.592  11.442 -0.0647 -2.8067  0.0133
  181SLPC  H13C20669   5.579   4.522  11.535  0.2520  1.4732  1.4218
  181SLPC   C1420670   5.567   4.802  11.531 -0.4528  0.3534  1.1801
  181SLPC  H14A20671   5.513   4.894  11.510 -2.6199 -1.2897 -1.1418
  181SLPC  H14B20672   5.549   4.764  11.630  1.3004 -1.0587  1.0064
  181SLPC  H14C20673   5.674   4.816  11.534 -0.1077 -1.8347  1.0918
  181SLPC   C1520674   5.375   4.667  11.457  0.3471 -0.1602 -0.7504
  181SLPC  H15A20675   5.328   4.616  11.374 -0.1422  0.3189 -0.7724
  181SLPC  H15B20676   5.362   4.600  11.541 -2.2146  1.5481  0.3214
  181SLPC  H15C20677   5.323   4.759  11.479 -0.7082 -0.9683  0.2071
  181SLPC   C1220678   5.539   4.750  11.292  0.1111 -0.1448 -0.1310
  181SLPC  H12A20679   5.646   4.757  11.273  0.2355 -1.9507 -0.2415
  181SLPC  H12B20680   5.501   4.850  11.278 -2.0590 -0.9810 -0.5736
  181SLPC   C1120681   5.474   4.681  11.166 -0.6424 -0.3297  0.5002
  181SLPC  H11A20682   5.493   4.573  11.177 -0.3255 -0.2738  0.5058
  181SLPC  H11B20683   5.518   4.714  11.069  0.1729  0.5907  1.1614
  181SLPC     P20684   5.273   4.837  11.118 -0.0159 -0.3257 -0.0137
  181SLPC   O1320685   5.131   4.829  11.088  0.0745 -0.7928 -0.0474
  181SLPC   O1420686   5.319   4.937  11.218 -0.1250 -0.5791  0.3304
  181SLPC   O1220687   5.333   4.696  11.161 -0.2104  0.1890  0.0731
  181SLPC   O1120688   5.332   4.867  10.979  0.1499 -0.6981  0.3731
  181SLPC    C120689   5.311   4.776  10.866  0.3584 -0.6218  0.2019
  181SLPC    HA20690   5.301   4.672  10.902  1.7542 -1.1790 -0.9108
  181SLPC    HB20691   5.218   4.798  10.809  1.1826  2.4098 -0.1706
  181SLPC    C220692   5.414   4.794  10.753 -0.9454  0.2879 -0.1082
  181SLPC    HS20693   5.518   4.773  10.788 -1.0588  0.1741  0.1673
  181SLPC   O2120694   5.394   4.922  10.701  0.2298 -0.3694 -0.2398
  181SLPC   C2120695   5.490   5.013  10.703  0.2867 -0.0735  0.1177
  181SLPC   O2220696   5.601   5.006  10.746  0.3313  0.3525  0.2663
  181SLPC   C2220697   5.440   5.142  10.642 -0.0636  0.5777 -0.2583
  181SLPC   H2R20698   5.339   5.139  10.596  0.0908  1.1347 -0.6395
  181SLPC   H2S20699   5.436   5.220  10.721  1.1477  0.4549 -0.0562
  181SLPC    C320700   5.398   4.689  10.641 -0.1432 -0.7728 -0.1943
  181SLPC    HX20701   5.290   4.695  10.618 -0.6109  1.4969  2.1562
  181SLPC    HY20702   5.439   4.591  10.674  0.1475 -0.6895 -0.2983
  181SLPC   O3120703   5.472   4.747  10.527 -0.0207  0.6040  0.0914
  181SLPC   C3120704   5.588   4.693  10.495  0.1659 -0.0791 -0.4316
  181SLPC   O3220705   5.646   4.609  10.560  0.7823  0.2322  0.0222
  181SLPC   C3220706   5.635   4.762  10.363  0.5747 -0.8764  0.2639
  181SLPC   H2X20707   5.721   4.828  10.387 -0.9486  1.1734  0.3755
  181SLPC   H2Y20708   5.554   4.831  10.332 -0.1735 -1.9926 -0.3251
  181SLPC   C2320709   5.537   5.206  10.535  0.0539 -0.2359  0.3176
  181SLPC   H3R20710   5.642   5.202  10.572  1.1074  1.7421 -2.2195
  181SLPC   H3S20711   5.513   5.313  10.525 -1.1939 -0.3652  1.5439
  181SLPC   C2420712   5.545   5.123  10.406 -0.4131  0.3359  0.2024
  181SLPC   H4R20713   5.444   5.085  10.377 -1.5201  0.6627  3.2707
  181SLPC   H4S20714   5.611   5.039  10.435  0.4215  1.2562  1.0366
  181SLPC   C2520715   5.617   5.192  10.284  0.2711 -0.7693 -1.0260
  181SLPC   H5R20716   5.716   5.236  10.307  0.7532 -1.2312 -2.1342
  181SLPC   H5S20717   5.561   5.285  10.261  1.3696  0.7994  2.1124
  181SLPC   C2620718   5.636   5.101  10.166  0.8211 -0.9156 -0.3692
  181SLPC   H6R20719   5.542   5.061  10.124  0.9041 -0.8924 -0.5779
  181SLPC   H6S20720   5.708   5.019  10.186  1.9884 -0.3822 -2.1691
  181SLPC   C2720721   5.684   5.189  10.052 -1.2884 -0.5120 -0.1984
  181SLPC   H7R20722   5.785   5.225  10.080 -1.2685  0.7223 -1.7277
  181SLPC   H7S20723   5.626   5.284  10.048  1.2312  1.4178  3.4365
  181SLPC   C2820724   5.679   5.125   9.911  0.0453  0.1709 -0.7078
  181SLPC   H8R20725   5.573   5.115   9.880 -0.2851 -0.3509  0.5303
  181SLPC   H8S20726   5.734   5.030   9.894 -0.9583 -0.1788 -2.2342
  181SLPC   C2920727   5.757   5.218   9.818  0.1758 -0.5362  0.0983
  181SLPC   H9R20728   5.827   5.281   9.875 -1.0074  0.5241  0.4376
  181SLPC  C21020729   5.747   5.230   9.688  0.2367 -0.2142 -0.0579
  181SLPC  H10R20730   5.822   5.291   9.636  0.5414 -0.5105  0.0233
  181SLPC  C21120731   5.657   5.159   9.593  0.4120 -0.3719 -0.7088
  181SLPC  H11R20732   5.644   5.055   9.631  0.9842 -0.7632 -1.5729
  181SLPC  H11S20733   5.699   5.143   9.491  1.0657  1.7648 -0.8061
  181SLPC  C21220734   5.525   5.236   9.591 -0.1548  0.4097 -0.7621
  181SLPC  H12R20735   5.457   5.238   9.677  0.7697  0.0841  0.0014
  181SLPC  C21320736   5.474   5.300   9.480  0.2457 -0.1619  0.3403
  181SLPC  H13R20737   5.369   5.332   9.474  0.6767  1.0217 -2.4984
  181SLPC  C21420738   5.544   5.303   9.342 -0.5938  0.3859 -1.0559
  181SLPC  H14R20739   5.648   5.269   9.360 -0.5503  0.6151 -0.8730
  181SLPC  H14S20740   5.549   5.402   9.293  1.2490  0.6926 -0.3074
  181SLPC  C21520741   5.482   5.205   9.246 -0.7514  0.2168  0.1852
  181SLPC  H15R20742   5.372   5.217   9.255 -0.8284 -0.6044  0.3426
  181SLPC  H15S20743   5.515   5.102   9.271  0.6202 -0.4132 -3.5650
  181SLPC  C21620744   5.516   5.248   9.106  0.7065 -0.8230  0.1640
  181SLPC  H16R20745   5.622   5.227   9.081  1.7089  0.2934  3.1090
  181SLPC  H16S20746   5.498   5.358   9.095 -0.9733 -0.8892  1.8283
  181SLPC  C21720747   5.432   5.181   9.002 -0.0226 -0.2420  0.2184
  181SLPC  H17R20748   5.460   5.230   8.906  0.9239 -0.5146  0.3490
  181SLPC  H17S20749   5.328   5.219   9.014  0.0073  0.3646 -1.2057
  181SLPC  C21820750   5.437   5.028   8.994 -0.1892  0.4972 -0.4271
  181SLPC  H18R20751   5.338   5.003   9.037  0.2781  1.8955  1.6297
  181SLPC  H18S20752   5.518   4.985   9.056 -0.8221 -2.4206 -1.4919
  181SLPC  H18T20753   5.427   4.993   8.890 -1.3621 -2.7937  0.6824
  181SLPC   C3320754   5.675   4.664  10.253  0.1966 -0.2875  0.1650
  181SLPC   H3X20755   5.660   4.707  10.152 -0.6844 -1.6419 -0.3051
  181SLPC   H3Y20756   5.614   4.573  10.241  3.0076 -2.4016  0.7216
  181SLPC   C3420757   5.825   4.632  10.246 -0.0223  0.8608 -0.1409
  181SLPC   H4X20758   5.866   4.605  10.345  0.5805  0.8242 -0.3921
  181SLPC   H4Y20759   5.863   4.736  10.229 -1.3087  1.0428 -2.4183
  181SLPC   C3520760   5.865   4.531  10.137 -0.4106 -0.1234  0.4027
  181SLPC   H5X20761   5.792   4.451  10.159 -1.5489  0.8257  0.2261
  181SLPC   H5Y20762   5.972   4.510  10.157 -0.0993  1.2103  0.2913
  181SLPC   C3620763   5.837   4.578   9.994  0.0206 -0.0600  0.1432
  181SLPC   H6X20764   5.906   4.660   9.964  0.1074 -0.3512 -0.4636
  181SLPC   H6Y20765   5.729   4.604   9.994  0.1998  0.8551 -2.0523
  181SLPC   C3720766   5.848   4.467   9.881 -0.3919 -0.3305  0.1746
  181SLPC   H7X20767   5.803   4.375   9.923 -0.2427 -1.4383 -1.9258
  181SLPC   H7Y20768   5.957   4.447   9.864  0.0868  2.0142  0.2271
  181SLPC   C3820769   5.790   4.515   9.753 -0.9454 -0.6929  0.2484
  181SLPC   H8X20770   5.858   4.589   9.706 -1.0555 -0.7763 -0.0438
  181SLPC   H8Y20771   5.698   4.576   9.759 -1.0999 -0.7435 -1.3408
  181SLPC   C3920772   5.782   4.415   9.643 -1.0176  0.7996  0.0664
  181SLPC   H9X20773   5.691   4.351   9.644 -0.9307  0.6682 -0.2262
  181SLPC   H9Y20774   5.872   4.351   9.660 -1.0684  1.1720  1.8840
  181SLPC  C31020775   5.801   4.476   9.499  0.7839  0.5584 -0.6660
  181SLPC  H10X20776   5.886   4.547   9.510  0.5517  0.5676  1.4497
  181SLPC  H10Y20777   5.708   4.536   9.491  0.3353  0.7747  3.6040
  181SLPC  C31120778   5.822   4.372   9.390  0.5767 -0.5347  0.3954
  181SLPC  H11X20779   5.730   4.310   9.389  0.0526  0.2459 -0.7042
  181SLPC  H11Y20780   5.912   4.307   9.390  2.3148  1.7425 -0.0403
  181SLPC  C31220781   5.821   4.447   9.257  0.3883  0.0903  0.3038
  181SLPC  H12X20782   5.924   4.483   9.240  1.0331 -1.9716 -0.3523
  181SLPC  H12Y20783   5.751   4.533   9.246  1.9156  1.0265 -5.2647
  181SLPC  C31320784   5.776   4.363   9.135 -0.8305  0.2263 -0.6898
  181SLPC  H13X20785   5.669   4.335   9.147 -1.3940  2.1706 -0.7895
  181SLPC  H13Y20786   5.830   4.267   9.124 -1.0138  0.3065 -2.6620
  181SLPC  C31420787   5.801   4.437   8.999 -0.3237 -0.4585 -0.1198
  181SLPC  H14X20788   5.909   4.460   8.985 -0.4486  0.4809  0.3661
  181SLPC  H14Y20789   5.735   4.526   8.989 -1.0383 -1.0149 -0.4612
  181SLPC  C31520790   5.744   4.349   8.885 -0.7856 -0.1143  0.8774
  181SLPC  H15X20791   5.644   4.309   8.910 -1.6536  0.6982 -1.0564
  181SLPC  H15Y20792   5.811   4.261   8.889 -1.1724 -0.4531  0.1194
  181SLPC  C31620793   5.756   4.402   8.739  0.0751  0.1317  0.3045
  181SLPC  H16X20794   5.866   4.406   8.719  0.1463 -0.3345  0.5965
  181SLPC  H16Y20795   5.712   4.504   8.732 -1.7743 -0.6299  0.4128
  181SLPC  C31720796   5.680   4.307   8.637  0.4553 -0.6897 -0.6333
  181SLPC  H17X20797   5.577   4.292   8.676  0.6782  0.8248  0.6417
  181SLPC  H17Y20798   5.723   4.206   8.654 -1.1868 -0.9730  2.6309
  181SLPC  C31820799   5.678   4.355   8.493  0.2294  0.7016  0.4425
  181SLPC  H18X20800   5.770   4.409   8.463  0.7302 -0.5929 -0.4342
  181SLPC  H18Y20801   5.598   4.430   8.479  2.0069  2.8500  1.1780
  181SLPC  H18Z20802   5.666   4.270   8.423  2.4573  0.6314  0.0774
  182SLPC     N20803   3.308   4.639  10.772 -0.2210 -0.0681 -0.2176
  182SLPC   C1320804   3.333   4.502  10.724 -0.9446  0.7328 -0.0049
  182SLPC  H13A20805   3.409   4.498  10.647 -0.9302  2.3349 -0.1078
  182SLPC  H13B20806   3.379   4.439  10.799  1.8801  1.0228 -1.3651
  182SLPC  H13C20807   3.250   4.456  10.673 -0.6972  0.8686 -0.5363
  182SLPC   C1420808   3.418   4.677  10.873  0.0870 -0.4672 -0.3360
  182SLPC  H14A20809   3.383   4.767  10.920 -3.4149 -1.3365 -1.0200
  182SLPC  H14B20810   3.435   4.601  10.947 -0.2204  0.2130  0.4491
  182SLPC  H14C20811   3.516   4.695  10.829  1.3917  0.9421  2.8455
  182SLPC   C1520812   3.175   4.642  10.848  0.2922 -0.3575  0.0851
  182SLPC  H15A20813   3.184   4.577  10.934  2.3597  0.6504  0.7199
  182SLPC  H15B20814   3.155   4.746  10.871 -0.4540 -0.5113  0.1390
  182SLPC  H15C20815   3.092   4.611  10.787 -2.5431  1.9004  2.4583
  182SLPC   C1220816   3.305   4.753  10.664 -0.1615  0.1359 -0.1809
  182SLPC  H12A20817   3.227   4.736  10.591 -1.2993  3.1976  0.1709
  182SLPC  H12B20818   3.397   4.738  10.609  0.5290 -0.3865  1.0664
  182SLPC   C1120819   3.283   4.895  10.703 -0.4347  0.1158 -0.1728
  182SLPC  H11A20820   3.308   4.969  10.624  0.4844 -0.2729 -0.2510
  182SLPC  H11B20821   3.361   4.914  10.780  0.5427 -0.6583 -0.9460
  182SLPC     P20822   3.033   4.937  10.656 -0.2754 -0.5755 -0.3278
  182SLPC   O1320823   3.067   4.881  10.523  0.4932 -0.4060  0.7193
  182SLPC   O1420824   2.905   4.891  10.716  0.3497  1.1991  0.5210
  182SLPC   O1220825   3.158   4.921  10.756 -0.3720 -0.8444  0.0314
  182SLPC   O1120826   3.030   5.098  10.645 -0.3267 -0.1836 -0.1632
  182SLPC    C120827   2.913   5.173  10.605 -0.1372 -0.4060 -0.5107
  182SLPC    HA20828   2.816   5.124  10.627 -1.4185  0.2661 -3.9388
  182SLPC    HB20829   2.919   5.269  10.660  0.0250 -0.3605 -0.6076
  182SLPC    C220830   2.891   5.197  10.446 -0.0088 -0.4855 -0.6494
  182SLPC    HS20831   2.811   5.273  10.433 -0.6914 -1.1793 -0.5798
  182SLPC   O2120832   2.857   5.076  10.374  0.0549  0.2301  0.4253
  182SLPC   C2120833   2.728   5.054  10.364 -0.5158 -0.3564  0.1545
  182SLPC   O2220834   2.640   5.138  10.383 -0.2548  0.0976  0.8035
  182SLPC   C2220835   2.717   4.900  10.331  0.2778  0.1515 -0.1982
  182SLPC   H2R20836   2.798   4.878  10.259  0.7138  2.4711 -0.5078
  182SLPC   H2S20837   2.736   4.842  10.423 -0.7903 -1.0387 -0.6885
  182SLPC    C320838   3.017   5.269  10.385 -0.2856  0.3951  0.1261
  182SLPC    HX20839   3.097   5.202  10.423  0.5367  1.8488  1.0888
  182SLPC    HY20840   3.038   5.368  10.431 -0.5406  0.8732 -0.7676
  182SLPC   O3120841   3.024   5.259  10.243 -0.1462 -0.2085 -0.0781
  182SLPC   C3120842   2.942   5.347  10.186 -0.2789 -0.2743  0.0983
  182SLPC   O3220843   2.881   5.436  10.250 -0.4951  0.1149  0.0124
  182SLPC   C3220844   2.917   5.311  10.041  0.1146 -0.4357  0.3909
  182SLPC   H2X20845   2.835   5.236  10.038 -1.2505  1.0450 -0.0834
  182SLPC   H2Y20846   3.010   5.265  10.000 -0.0160 -1.3670  1.0892
  182SLPC   C2320847   2.582   4.854  10.270 -0.4595 -0.7314  0.2638
  182SLPC   H3R20848   2.502   4.927  10.295  0.6221  0.6928 -0.2839
  182SLPC   H3S20849   2.555   4.754  10.310  0.3186 -0.7387  0.7947
  182SLPC   C2420850   2.571   4.840  10.115 -0.1011  0.0822 -0.4333
  182SLPC   H4R20851   2.464   4.822  10.089 -0.2577 -1.2856  1.0066
  182SLPC   H4S20852   2.632   4.752  10.085  2.1327  1.1749  0.6434
  182SLPC   C2520853   2.622   4.960  10.031  0.3809 -0.4710 -0.3850
  182SLPC   H5R20854   2.733   4.952  10.037  0.5371  1.4052  0.2098
  182SLPC   H5S20855   2.605   5.061  10.076  0.6879 -0.4223 -0.3722
  182SLPC   C2620856   2.581   4.956   9.882  0.3100  0.4664  0.1225
  182SLPC   H6R20857   2.483   5.008   9.876  0.5599  0.8766 -0.5167
  182SLPC   H6S20858   2.551   4.850   9.872  1.8161 -0.0626  0.9256
  182SLPC   C2720859   2.681   4.997   9.772 -0.0220 -0.2909 -0.5304
  182SLPC   H7R20860   2.766   4.928   9.791 -1.4738 -1.3462  2.9912
  182SLPC   H7S20861   2.705   5.103   9.796 -0.9724 -0.5537  1.8395
  182SLPC   C2820862   2.619   4.989   9.635  0.1507  0.6158  0.1508
  182SLPC   H8R20863   2.680   5.064   9.580  0.2488  1.3424  1.2263
  182SLPC   H8S20864   2.512   5.017   9.639  0.2561  0.8838  2.4348
  182SLPC   C2920865   2.631   4.849   9.581  0.1572  0.1561 -0.1312
  182SLPC   H9R20866   2.664   4.768   9.648  1.3928 -2.1414 -3.2934
  182SLPC  C21020867   2.575   4.796   9.472  0.7490  0.0412 -0.6490
  182SLPC  H10R20868   2.610   4.694   9.452  2.8792  0.6551 -0.3203
  182SLPC  C21120869   2.483   4.875   9.385 -0.3800 -0.3194 -0.4433
  182SLPC  H11R20870   2.485   4.983   9.410  0.5473 -0.2550 -0.7687
  182SLPC  H11S20871   2.377   4.846   9.399 -0.8770  0.6932 -1.9011
  182SLPC  C21220872   2.542   4.861   9.251 -0.2236 -0.2325  0.1549
  182SLPC  H12R20873   2.646   4.830   9.235 -0.0279  0.6011 -0.2548
  182SLPC  C21320874   2.471   4.896   9.139 -0.0660  1.0984 -0.0795
  182SLPC  H13R20875   2.520   4.883   9.041 -1.9377 -0.6948 -0.8433
  182SLPC  C21420876   2.329   4.943   9.139  0.6510 -0.3524 -0.6818
  182SLPC  H14R20877   2.291   4.978   9.237  0.4591 -3.6418  0.5205
  182SLPC  H14S20878   2.261   4.870   9.090  1.4788 -0.0220 -2.3975
  182SLPC  C21520879   2.301   5.057   9.037 -1.0175  0.5778 -0.0696
  182SLPC  H15R20880   2.393   5.120   9.042 -2.2937  2.7037 -1.5079
  182SLPC  H15S20881   2.218   5.126   9.062 -1.5154  0.5345 -1.4874
  182SLPC  C21620882   2.266   5.018   8.895 -0.6729  0.6048  0.0815
  182SLPC  H16R20883   2.156   5.005   8.880 -0.5340  1.0600 -1.4967
  182SLPC  H16S20884   2.314   4.924   8.862 -0.7487  0.6070 -0.0371
  182SLPC  C21720885   2.305   5.130   8.792  0.4234  0.6443  0.2446
  182SLPC  H17R20886   2.279   5.089   8.692 -0.2507 -3.1697  1.7968
  182SLPC  H17S20887   2.414   5.142   8.805  0.7496 -0.4239 -1.1965
  182SLPC  C21820888   2.227   5.256   8.806  0.7717 -0.2541 -1.4519
  182SLPC  H18R20889   2.244   5.294   8.909 -0.5702 -0.9628 -0.9343
  182SLPC  H18S20890   2.119   5.232   8.793 -0.1425  1.6896  1.5665
  182SLPC  H18T20891   2.263   5.331   8.732 -0.3117  4.3511  2.2403
  182SLPC   C3320892   2.875   5.441   9.962  0.1244 -0.3332  0.2579
  182SLPC   H3X20893   2.961   5.511   9.957 -0.5408  0.5278  0.6109
  182SLPC   H3Y20894   2.798   5.483  10.029 -0.8553 -0.5787 -0.6769
  182SLPC   C3420895   2.806   5.417   9.834  0.4695  0.7644  0.5560
  182SLPC   H4X20896   2.743   5.504   9.804 -0.0531 -0.4727 -2.2050
  182SLPC   H4Y20897   2.739   5.330   9.849  0.5385  0.8949  1.7059
  182SLPC   C3520898   2.899   5.377   9.717 -0.0569  0.6856  0.3389
  182SLPC   H5X20899   2.954   5.282   9.731 -0.5478  0.2808 -0.3657
  182SLPC   H5Y20900   2.980   5.452   9.718 -0.5746  1.2444  1.7448
  182SLPC   C3620901   2.840   5.396   9.578 -0.1036  0.3883  0.4994
  182SLPC   H6X20902   2.783   5.491   9.568 -0.4974  0.1475  0.4452
  182SLPC   H6Y20903   2.764   5.319   9.555 -0.6126  1.2267 -0.7659
  182SLPC   C3720904   2.948   5.411   9.473  0.1734 -0.7457  0.4571
  182SLPC   H7X20905   3.035   5.346   9.494 -0.1679 -0.9592  1.2263
  182SLPC   H7Y20906   3.002   5.509   9.480  1.3026 -1.3593  0.5635
  182SLPC   C3820907   2.895   5.394   9.330  0.0264  0.3301 -0.2583
  182SLPC   H8X20908   2.839   5.486   9.301  0.9540  0.2929 -2.2612
  182SLPC   H8Y20909   2.817   5.316   9.322 -0.2709  0.0822  3.2018
  182SLPC   C3920910   3.010   5.363   9.235 -0.0541  0.9384  0.1422
  182SLPC   H9X20911   3.052   5.275   9.287 -3.2457 -0.8365 -0.0445
  182SLPC   H9Y20912   3.082   5.448   9.227  0.3216  0.5131 -1.4504
  182SLPC  C31020913   2.966   5.337   9.094  0.7468 -0.3127  0.5133
  182SLPC  H10X20914   2.917   5.421   9.041  1.1954 -1.1188 -1.2571
  182SLPC  H10Y20915   2.896   5.252   9.078 -1.5670  1.4373  0.8471
  182SLPC  C31120916   3.094   5.309   9.002  0.4206  0.0655  0.2945
  182SLPC  H11X20917   3.139   5.215   9.040 -0.2586  0.4955  2.2691
  182SLPC  H11Y20918   3.162   5.397   9.006 -1.5647  1.8489 -1.6135
  182SLPC  C31220919   3.050   5.296   8.861 -0.0203 -0.5933 -0.0569
  182SLPC  H12X20920   3.032   5.396   8.814  0.9306 -2.1516 -4.2260
  182SLPC  H12Y20921   2.958   5.236   8.850 -1.9771  2.3575 -1.1182
  182SLPC  C31320922   3.166   5.248   8.774 -1.4215  0.2343  0.4889
  182SLPC  H13X20923   3.213   5.159   8.821 -0.3646  0.1384 -0.6787
  182SLPC  H13Y20924   3.249   5.319   8.756 -2.3296  1.4001  0.7456
  182SLPC  C31420925   3.120   5.204   8.631 -0.2603  0.5089  0.2568
  182SLPC  H14X20926   3.015   5.171   8.640  0.2108 -2.1138 -2.4611
  182SLPC  H14Y20927   3.177   5.123   8.581  0.9107  1.6925 -0.4005
  182SLPC  C31520928   3.110   5.321   8.533 -0.7493 -0.6413  0.4202
  182SLPC  H15X20929   3.206   5.371   8.509 -1.1841  0.6342  1.1954
  182SLPC  H15Y20930   3.054   5.405   8.580  2.5267  0.8801  1.8801
  182SLPC  C31620931   3.028   5.288   8.408 -0.6227 -0.0468  0.4484
  182SLPC  H16X20932   2.941   5.223   8.433 -0.6076  0.3215  1.4858
  182SLPC  H16Y20933   3.093   5.229   8.341  2.1379  1.2614  1.8347
  182SLPC  C31720934   2.989   5.407   8.318  0.2610  0.3876  0.6878
  182SLPC  H17X20935   2.917   5.474   8.370 -0.4982  0.5756 -0.5636
  182SLPC  H17Y20936   2.936   5.368   8.229  1.3337  1.8034 -0.6243
  182SLPC  C31820937   3.116   5.481   8.264 -0.2843 -0.8168  0.5912
  182SLPC  H18X20938   3.172   5.420   8.190  0.2054 -1.6208  1.6054
  182SLPC  H18Y20939   3.183   5.512   8.347 -1.0316  3.0320 -0.0566
  182SLPC  H18Z20940   3.078   5.574   8.215  0.0296 -0.1771  1.5403
  183SLPC     N20941   3.422   5.404  11.009 -0.1373 -0.0065 -0.3492
  183SLPC   C1320942   3.345   5.480  10.904 -0.0966  0.0513 -0.2752
  183SLPC  H13A20943   3.238   5.462  10.901 -0.2616  1.0250 -0.6704
  183SLPC  H13B20944   3.353   5.586  10.924  1.3403 -0.5765  3.0011
  183SLPC  H13C20945   3.390   5.462  10.807 -1.5358 -0.7258 -0.8467
  183SLPC   C1420946   3.418   5.254  10.978 -0.2700 -0.8480 -0.4761
  183SLPC  H14A20947   3.462   5.196  11.058  2.3322 -1.2488 -2.0882
  183SLPC  H14B20948   3.314   5.229  10.959 -0.3295 -0.4941 -0.6334
  183SLPC  H14C20949   3.477   5.240  10.889 -0.6968  0.3159 -0.9630
  183SLPC   C1520950   3.363   5.425  11.147  0.4028 -0.2337 -0.8512
  183SLPC  H15A20951   3.258   5.397  11.143  0.3388 -0.2461  0.4554
  183SLPC  H15B20952   3.414   5.364  11.220 -1.1772  1.0008  1.4023
  183SLPC  H15C20953   3.378   5.528  11.175 -0.2278 -0.0860 -1.0324
  183SLPC   C1220954   3.565   5.449  11.012  0.1923 -0.0082  0.3624
  183SLPC  H12A20955   3.626   5.384  11.072 -0.6628 -1.5711 -0.4132
  183SLPC  H12B20956   3.568   5.549  11.054  1.1594  0.1344 -0.0057
  183SLPC   C1120957   3.630   5.475  10.871  0.4493 -0.0456  0.0859
  183SLPC  H11A20958   3.729   5.524  10.877  0.1671  0.4478  0.9557
  183SLPC  H11B20959   3.571   5.554  10.818 -0.8001 -0.4467  0.8472
  183SLPC     P20960   3.754   5.267  10.773  0.1033  0.1379 -0.2035
  183SLPC   O1320961   3.872   5.359  10.751 -0.0377  0.4113  0.5379
  183SLPC   O1420962   3.751   5.175  10.887 -0.1293  0.5917 -0.2862
  183SLPC   O1220963   3.628   5.356  10.792  0.2995  0.1435 -0.0864
  183SLPC   O1120964   3.730   5.199  10.645 -0.6947  0.3620  0.2758
  183SLPC    C120965   3.606   5.150  10.592  0.0760 -0.4928 -0.3714
  183SLPC    HA20966   3.612   5.040  10.579  0.2737 -0.3729 -1.3951
  183SLPC    HB20967   3.533   5.164  10.675  3.1420  0.6861  2.3026
  183SLPC    C220968   3.549   5.228  10.471  0.1183  0.3609 -0.8649
  183SLPC    HS20969   3.466   5.168  10.428  0.9180 -0.5924 -1.1113
  183SLPC   O2120970   3.656   5.249  10.376  0.2379  0.0742 -0.0580
  183SLPC   C2120971   3.709   5.136  10.333 -1.2555  0.3926 -0.3108
  183SLPC   O2220972   3.662   5.024  10.359  0.0395  0.3028  0.0033
  183SLPC   C2220973   3.830   5.156  10.243 -0.1095  0.2103  0.0223
  183SLPC   H2R20974   3.918   5.171  10.308  0.2556 -0.3021 -0.3401
  183SLPC   H2S20975   3.851   5.063  10.186 -1.1896  0.0825 -0.1987
  183SLPC    C320976   3.481   5.363  10.521 -0.0728 -0.1022  0.1702
  183SLPC    HX20977   3.549   5.437  10.568  1.3594  0.9273 -3.2798
  183SLPC    HY20978   3.415   5.327  10.604 -0.0591  1.9806  1.1498
  183SLPC   O3120979   3.400   5.432  10.421  0.5251 -0.5108 -0.4048
  183SLPC   C3120980   3.471   5.510  10.340 -0.3541 -0.4800 -0.8660
  183SLPC   O3220981   3.589   5.528  10.352  0.1597 -0.4125  0.8254
  183SLPC   C3220982   3.373   5.586  10.249  0.2082 -0.1440 -0.1322
  183SLPC   H2X20983   3.429   5.631  10.165  1.4638 -0.4257  0.5149
  183SLPC   H2Y20984   3.330   5.668  10.310 -0.5570 -0.8964  0.3799
  183SLPC   C2320985   3.814   5.274  10.147  0.7322 -0.4051  0.3516
  183SLPC   H3R20986   3.907   5.289  10.088  0.0591 -1.3781 -1.0169
  183SLPC   H3S20987   3.800   5.359  10.216  1.8796 -0.9958  1.3539
  183SLPC   C2420988   3.701   5.261  10.046  0.5893  0.4741 -0.1908
  183SLPC   H4R20989   3.686   5.361  10.001  0.8055  0.3399 -0.5695
  183SLPC   H4S20990   3.613   5.236  10.108  0.4615  0.8310 -0.2255
  183SLPC   C2520991   3.713   5.149   9.940  0.0537  0.6363 -0.4346
  183SLPC   H5R20992   3.615   5.123   9.895  0.3962 -2.0437  0.2093
  183SLPC   H5S20993   3.737   5.058   9.999  0.3805  2.2106  2.0108
  183SLPC   C2620994   3.814   5.183   9.833 -0.4395  0.3070 -0.0325
  183SLPC   H6R20995   3.897   5.225   9.893 -1.4101  1.4563  0.5378
  183SLPC   H6S20996   3.767   5.261   9.769  0.5525 -0.6409 -1.9970
  183SLPC   C2720997   3.850   5.059   9.749 -0.6228 -0.1134 -0.3187
  183SLPC   H7R20998   3.749   5.022   9.721  0.1891 -1.0795 -2.1284
  183SLPC   H7S20999   3.892   4.977   9.812 -0.5028  0.0237 -0.2193
  183SLPC   C2821000   3.947   5.086   9.630 -0.0887 -0.2863 -0.7482
  183SLPC   H8R21001   4.012   4.998   9.612  0.4875 -0.1681  0.5752
  183SLPC   H8S21002   4.009   5.176   9.654 -0.0371 -0.7197  0.9179
  183SLPC   C2921003   3.866   5.117   9.504 -0.0174  0.3975 -0.8479
  183SLPC   H9R21004   3.773   5.170   9.527  0.4155  0.7042  0.2656
  183SLPC  C21021005   3.909   5.090   9.374 -0.2915  0.6680  0.4571
  183SLPC  H10R21006   3.843   5.122   9.292  1.3471 -0.3375 -1.3239
  183SLPC  C21121007   4.034   5.030   9.320 -0.1126  0.2484  0.7332
  183SLPC  H11R21008   4.020   4.939   9.258 -0.2196  1.1753 -0.6775
  183SLPC  H11S21009   4.099   5.000   9.405  2.0631  2.3837 -0.0326
  183SLPC  C21221010   4.117   5.121   9.245 -0.3636  0.6050 -0.7118
  183SLPC  H12R21011   4.195   5.180   9.296 -1.6266  3.0203 -1.3937
  183SLPC  C21321012   4.086   5.150   9.116  0.3503 -0.1574  0.1078
  183SLPC  H13R21013   4.145   5.230   9.070  0.7903  0.2049  1.2658
  183SLPC  C21421014   3.968   5.098   9.030 -0.6071 -0.1993 -0.1946
  183SLPC  H14R21015   3.899   5.177   8.993  1.1533  0.8675 -1.3329
  183SLPC  H14S21016   3.903   5.042   9.101 -1.1056  0.2297 -0.2986
  183SLPC  C21521017   3.995   5.001   8.925 -0.5157 -0.5608  0.5521
  183SLPC  H15R21018   3.893   4.979   8.887 -0.1068 -0.0477 -0.9121
  183SLPC  H15S21019   4.038   4.908   8.969 -1.7820 -1.1889  0.5055
  183SLPC  C21621020   4.079   5.055   8.811 -0.4287 -0.7061 -0.2424
  183SLPC  H16R21021   4.171   5.100   8.854  0.7006 -2.0616 -1.1526
  183SLPC  H16S21022   4.025   5.146   8.776  1.3635 -0.1046 -1.5897
  183SLPC  C21721023   4.107   4.966   8.689 -0.5789 -0.2355 -0.4353
  183SLPC  H17R21024   4.173   4.880   8.711 -0.0410  0.2149 -0.2342
  183SLPC  H17S21025   4.168   5.030   8.621 -1.0682  0.1949 -0.4734
  183SLPC  C21821026   3.986   4.913   8.611 -0.6120 -0.4257  0.2288
  183SLPC  H18R21027   3.916   4.856   8.677 -0.0666  1.8205  2.9632
  183SLPC  H18S21028   4.024   4.846   8.531 -0.0532  0.2073 -0.0465
  183SLPC  H18T21029   3.927   4.994   8.563  0.5087  0.2671 -0.0141
  183SLPC   C3321030   3.255   5.503  10.201 -0.1684 -0.5707  0.2483
  183SLPC   H3X21031   3.176   5.575  10.173  0.0701  1.0064  3.2144
  183SLPC   H3Y21032   3.203   5.449  10.283  0.0022 -0.6905  0.2780
  183SLPC   C3421033   3.303   5.415  10.089  0.0140 -0.2595 -0.1582
  183SLPC   H4X21034   3.231   5.330  10.085 -0.7476  0.3988 -0.6034
  183SLPC   H4Y21035   3.399   5.361  10.101  0.2571  0.1285 -0.3300
  183SLPC   C3521036   3.312   5.473   9.949  0.7391  0.4581  0.1941
  183SLPC   H5X21037   3.401   5.539   9.943  0.2060  1.0585 -2.0435
  183SLPC   H5Y21038   3.223   5.529   9.915 -0.9112 -2.8696 -1.4172
  183SLPC   C3621039   3.333   5.362   9.845  0.7255 -0.7449  0.1708
  183SLPC   H6X21040   3.237   5.306   9.836  0.8246 -0.9897  0.5922
  183SLPC   H6Y21041   3.420   5.299   9.874  0.1332 -0.9168  1.6781
  183SLPC   C3721042   3.347   5.424   9.699 -0.0590  0.1065 -0.1713
  183SLPC   H7X21043   3.427   5.501   9.699 -0.9279  1.0481 -1.4676
  183SLPC   H7Y21044   3.262   5.487   9.663 -1.4100 -0.3793  1.9716
  183SLPC   C3821045   3.384   5.314   9.592 -0.8168  0.3237 -0.2336
  183SLPC   H8X21046   3.307   5.234   9.590  1.7879 -2.4110  0.3935
  183SLPC   H8Y21047   3.480   5.276   9.634 -1.3491  0.3363  1.0094
  183SLPC   C3921048   3.413   5.362   9.446 -0.1246  1.0481 -0.5737
  183SLPC   H9X21049   3.477   5.452   9.461  1.5408 -0.1143 -0.5766
  183SLPC   H9Y21050   3.317   5.388   9.396  0.3357 -0.1846 -2.1637
  183SLPC  C31021051   3.464   5.252   9.356  0.3184 -0.6312  0.2372
  183SLPC  H10X21052   3.400   5.162   9.342  0.3540 -0.8772  1.5211
  183SLPC  H10Y21053   3.560   5.220   9.401  2.1268  0.1977 -2.7627
  183SLPC  C31121054   3.497   5.297   9.215 -0.2759 -0.0482 -0.3595
  183SLPC  H11X21055   3.587   5.363   9.217  0.4900 -1.0794  0.3658
  183SLPC  H11Y21056   3.408   5.344   9.169  0.7705  0.2998 -2.1429
  183SLPC  C31221057   3.536   5.179   9.128 -0.1423  0.2684 -0.4834
  183SLPC  H12X21058   3.449   5.118   9.095 -0.0031 -0.6061  0.6788
  183SLPC  H12Y21059   3.595   5.106   9.187 -1.6618  1.1138  2.2316
  183SLPC  C31321060   3.620   5.227   9.004 -0.1949  0.3996  0.3814
  183SLPC  H13X21061   3.649   5.129   8.959 -0.5450  0.6454 -0.3938
  183SLPC  H13Y21062   3.712   5.279   9.037 -1.2000  2.5747 -0.0933
  183SLPC  C31421063   3.542   5.300   8.899  0.0414  0.0422 -0.4930
  183SLPC  H14X21064   3.476   5.366   8.960 -0.2634 -2.5804  2.2760
  183SLPC  H14Y21065   3.469   5.242   8.839  0.2741  2.3229 -3.1804
  183SLPC  C31521066   3.628   5.378   8.800 -0.2321  0.5786 -0.0603
  183SLPC  H15X21067   3.686   5.453   8.858 -2.3414  1.6899  0.7240
  183SLPC  H15Y21068   3.563   5.441   8.736 -0.0014 -0.2359 -1.1299
  183SLPC  C31621069   3.731   5.295   8.723  0.2235  0.0191 -1.0039
  183SLPC  H16X21070   3.793   5.243   8.800 -0.2764  0.7093 -0.1079
  183SLPC  H16Y21071   3.799   5.366   8.671 -1.0036  3.3033  1.4950
  183SLPC  C31721072   3.682   5.184   8.632 -0.6471 -0.2822  0.3750
  183SLPC  H17X21073   3.645   5.100   8.694  2.4842 -0.7717  1.7886
  183SLPC  H17Y21074   3.771   5.145   8.578  0.7019  3.7699 -0.7016
  183SLPC  C31821075   3.569   5.234   8.546  0.0818 -0.0930  0.0432
  183SLPC  H18X21076   3.472   5.185   8.565  0.4885 -0.8552  0.2063
  183SLPC  H18Y21077   3.584   5.210   8.438 -0.5802  0.8241 -0.2683
  183SLPC  H18Z21078   3.553   5.344   8.542  0.5446 -0.0355 -0.5108
  184SLPC     N21079   0.736   1.994  10.967 -0.4126  0.0111  0.1114
  184SLPC   C1321080   0.702   1.849  11.002 -0.0904  0.2882  0.5037
  184SLPC  H13A21081   0.697   1.785  10.915 -1.9963  0.5287  0.4119
  184SLPC  H13B21082   0.787   1.808  11.055 -0.3651  0.4553  1.0908
  184SLPC  H13C21083   0.614   1.836  11.063  0.0300 -0.4499  0.5280
  184SLPC   C1421084   0.882   2.009  10.949 -0.6619 -0.0173  1.0476
  184SLPC  H14A21085   0.900   2.103  10.899 -1.8230 -0.8079 -1.0165
  184SLPC  H14B21086   0.931   2.009  11.045 -1.2118  0.2511  1.3335
  184SLPC  H14C21087   0.928   1.936  10.884 -0.4975  1.1065 -0.1398
  184SLPC   C1521088   0.692   2.079  11.084  0.6548 -0.6560 -1.0003
  184SLPC  H15A21089   0.587   2.082  11.108  0.7694  1.0439 -0.6361
  184SLPC  H15B21090   0.728   2.035  11.176 -1.7307 -0.4680  0.1059
  184SLPC  H15C21091   0.728   2.180  11.082 -1.1115  0.0720  0.7214
  184SLPC   C1221092   0.661   2.032  10.832 -0.4187  0.1472  0.6430
  184SLPC  H12A21093   0.700   2.125  10.791  1.5732 -0.9228 -0.0312
  184SLPC  H12B21094   0.555   2.029  10.852 -0.5484  0.4856  0.0470
  184SLPC   C1121095   0.687   1.940  10.707 -0.0989 -0.8999  0.0648
  184SLPC  H11A21096   0.796   1.932  10.684 -0.3665 -1.4761 -1.0196
  184SLPC  H11B21097   0.642   1.989  10.619  1.2032  0.6150  0.1727
  184SLPC     P21098   0.527   1.732  10.631 -0.4437  0.0527 -0.0562
  184SLPC   O1321099   0.539   1.584  10.641 -0.2476 -0.1195 -0.6695
  184SLPC   O1421100   0.389   1.781  10.635  0.3808  0.3224  0.2769
  184SLPC   O1221101   0.623   1.817  10.726  0.5280 -0.0327 -0.2574
  184SLPC   O1121102   0.584   1.776  10.490  0.0212 -0.8266 -1.1748
  184SLPC    C121103   0.709   1.752  10.435 -0.3821 -0.1762  0.2355
  184SLPC    HA21104   0.746   1.850  10.400  0.7644 -0.8599 -0.5483
  184SLPC    HB21105   0.795   1.714  10.496  1.2186  0.4558 -1.5309
  184SLPC    C221106   0.701   1.657  10.313  0.4502  0.6283  0.4288
  184SLPC    HS21107   0.798   1.650  10.259  0.0611 -0.8718 -0.1343
  184SLPC   O2121108   0.609   1.706  10.211  0.1605 -0.1713  0.5403
  184SLPC   C2121109   0.641   1.806  10.143 -0.0650  0.4555  0.2264
  184SLPC   O2221110   0.745   1.877  10.155 -0.2398 -0.4057  0.2797
  184SLPC   C2221111   0.533   1.834  10.039  0.3034 -0.1635  0.0895
  184SLPC   H2R21112   0.446   1.779  10.080  0.8105 -0.3475  0.9407
  184SLPC   H2S21113   0.511   1.942  10.056  0.2399  0.3090 -2.5632
  184SLPC    C321114   0.664   1.511  10.352  0.0426 -0.3996 -0.0958
  184SLPC    HX21115   0.581   1.516  10.426  1.5718 -0.6164  1.7065
  184SLPC    HY21116   0.749   1.461  10.403 -1.4448 -1.5840  1.3501
  184SLPC   O3121117   0.624   1.425  10.242  0.1699 -0.4921 -0.2911
  184SLPC   C3121118   0.564   1.317  10.264  0.2903  0.9775  0.4779
  184SLPC   O3221119   0.571   1.258  10.372 -0.2000 -0.3953  0.2717
  184SLPC   C3221120   0.463   1.266  10.157 -0.4794  0.1736 -0.0629
  184SLPC   H2X21121   0.478   1.159  10.133 -0.8520  0.2011 -0.4331
  184SLPC   H2Y21122   0.466   1.328  10.065  1.5164  0.7433  0.3366
  184SLPC   C2321123   0.572   1.803   9.895  0.6647 -0.7483 -1.0149
  184SLPC   H3R21124   0.680   1.820   9.878  1.3906 -2.7592  1.0970
  184SLPC   H3S21125   0.503   1.865   9.833  0.3838 -0.1177 -0.0935
  184SLPC   C2421126   0.544   1.655   9.876  0.0300 -0.2950  0.1057
  184SLPC   H4R21127   0.453   1.625   9.933 -0.1074 -0.2762 -0.0991
  184SLPC   H4S21128   0.625   1.597   9.924  2.5157  2.8640  0.0753
  184SLPC   C2521129   0.540   1.612   9.727  0.1539 -0.0245  0.1514
  184SLPC   H5R21130   0.553   1.501   9.728 -0.2594 -0.0727  0.5077
  184SLPC   H5S21131   0.610   1.668   9.661  1.5302  0.1892  1.7312
  184SLPC   C2621132   0.400   1.651   9.671  0.3387 -0.2156 -0.3951
  184SLPC   H6R21133   0.385   1.754   9.712  1.3157 -0.8478  1.6912
  184SLPC   H6S21134   0.328   1.580   9.716 -0.1460  0.2986 -0.3414
  184SLPC   C2721135   0.367   1.641   9.521  0.3018 -0.0345 -0.4040
  184SLPC   H7R21136   0.412   1.728   9.469  3.2428 -1.9416 -1.2863
  184SLPC   H7S21137   0.256   1.645   9.513  0.3124  0.7922 -0.1639
  184SLPC   C2821138   0.416   1.518   9.443  0.5698 -0.3321  0.2747
  184SLPC   H8R21139   0.517   1.507   9.487  1.1026 -1.4498 -1.1572
  184SLPC   H8S21140   0.424   1.539   9.334 -0.1635 -1.8460 -0.0941
  184SLPC   C2921141   0.346   1.386   9.466 -0.0457  0.5559 -0.5456
  184SLPC   H9R21142   0.343   1.350   9.570 -1.7057  1.3486 -0.2945
  184SLPC  C21021143   0.301   1.307   9.371  0.5895  0.5866  0.0659
  184SLPC  H10R21144   0.246   1.217   9.404  0.9026  0.6434  0.7511
  184SLPC  C21121145   0.310   1.331   9.219  0.1790  0.9520 -0.7164
  184SLPC  H11R21146   0.371   1.252   9.170  0.6315  0.0671  1.1399
  184SLPC  H11S21147   0.359   1.428   9.200  1.8111  0.5228  0.9770
  184SLPC  C21221148   0.174   1.343   9.154 -0.0184 -0.6491  1.1942
  184SLPC  H12R21149   0.107   1.422   9.192  1.1318  0.0392  1.8617
  184SLPC  C21321150   0.113   1.255   9.075 -0.2325  0.0920  0.0950
  184SLPC  H13R21151   0.011   1.267   9.035  0.3251  1.4471 -0.9822
  184SLPC  C21421152   0.189   1.135   9.031  0.3882 -0.1397  0.6242
  184SLPC  H14R21153   0.239   1.084   9.116  0.3252 -0.1876  0.6322
  184SLPC  H14S21154   0.275   1.156   8.964  2.1510 -1.2370  2.4203
  184SLPC  C21521155   0.097   1.030   8.969 -0.5929 -0.3378  0.0393
  184SLPC  H15R21156   0.041   1.082   8.888  1.5638 -0.1041 -1.3933
  184SLPC  H15S21157   0.023   0.990   9.042 -1.0256 -0.5829 -0.5261
  184SLPC  C21621158   0.164   0.910   8.903 -0.4434  0.0837 -0.1783
  184SLPC  H16R21159   0.196   0.940   8.801 -1.8998  0.2864 -0.6018
  184SLPC  H16S21160   0.099   0.821   8.887  0.8101 -1.0642  0.8996
  184SLPC  C21721161   0.281   0.856   8.986  0.1755  0.3984  0.3295
  184SLPC  H17R21162   0.237   0.850   9.088  1.8074 -1.7444  0.9836
  184SLPC  H17S21163   0.364   0.928   8.999 -0.5190  1.3521 -0.3608
  184SLPC  C21821164   0.336   0.719   8.945  0.0652 -0.0893  0.8022
  184SLPC  H18R21165   0.254   0.645   8.954 -2.3577  2.1882 -0.9137
  184SLPC  H18S21166   0.416   0.691   9.017  0.5339 -0.1825  0.2562
  184SLPC  H18T21167   0.382   0.721   8.844  1.7832 -0.7720  1.5339
  184SLPC   C3321168   0.318   1.284  10.211  0.3156  0.1771  0.5469
  184SLPC   H3X21169   0.307   1.220  10.301 -1.3547 -0.2091  0.1021
  184SLPC   H3Y21170   0.256   1.243  10.129  0.0907 -1.0366  1.2982
  184SLPC   C3421171   0.283   1.432  10.255 -0.4418  0.4290  0.0150
  184SLPC   H4X21172   0.360   1.475  10.322  2.2938 -0.8739 -2.0806
  184SLPC   H4Y21173   0.186   1.422  10.308 -0.6723 -0.1054 -0.5060
  184SLPC   C3521174   0.270   1.533  10.133  0.6107 -0.7088  0.2454
  184SLPC   H5X21175   0.234   1.483  10.041  1.1280  0.4533 -0.6187
  184SLPC   H5Y21176   0.367   1.580  10.104 -1.1482  3.0889 -0.0752
  184SLPC   C3621177   0.184   1.660  10.165 -0.5939  0.2998 -0.0125
  184SLPC   H6X21178   0.251   1.710  10.238  0.6630 -1.4485  0.1010
  184SLPC   H6Y21179   0.094   1.619  10.215  0.2134  0.2531  1.4645
  184SLPC   C3721180   0.141   1.744  10.048 -0.1648  0.0027  0.1093
  184SLPC   H7X21181   0.231   1.792  10.004  0.6638 -1.6048 -0.0281
  184SLPC   H7Y21182   0.090   1.826  10.104  0.3311 -0.1440  0.7884
  184SLPC   C3821183   0.049   1.676   9.942  0.2787  0.2693  0.6526
  184SLPC   H8X21184  -0.032   1.624   9.999 -2.4536  3.5271  0.0993
  184SLPC   H8Y21185   0.108   1.609   9.876 -2.5316 -3.1813  1.3128
  184SLPC   C3921186  -0.012   1.787   9.859 -0.0645  0.1360 -0.2233
  184SLPC   H9X21187   0.068   1.852   9.818  0.5577 -0.5235 -0.0550
  184SLPC   H9Y21188  -0.075   1.840   9.934 -0.6667 -0.2984 -0.4084
  184SLPC  C31021189  -0.095   1.729   9.744  0.4308 -0.3920 -0.2470
  184SLPC  H10X21190  -0.156   1.811   9.699 -2.4821 -1.9228  0.6996
  184SLPC  H10Y21191  -0.167   1.654   9.783 -1.1809  1.5609  0.7566
  184SLPC  C31121192  -0.022   1.679   9.617 -0.0737  0.3865 -1.0707
  184SLPC  H11X21193   0.031   1.588   9.652 -0.1033  1.9722  3.7448
  184SLPC  H11Y21194   0.055   1.754   9.588 -0.3352  0.3365 -1.9281
  184SLPC  C31221195  -0.120   1.649   9.506 -0.7045 -0.2791  0.0944
  184SLPC  H12X21196  -0.162   1.752   9.497 -0.2621  0.0352  1.3969
  184SLPC  H12Y21197  -0.203   1.591   9.551 -1.7717  0.7431 -0.4882
  184SLPC  C31321198  -0.070   1.608   9.367  0.4300  0.1999  0.0261
  184SLPC  H13X21199  -0.077   1.497   9.354 -1.1745  0.0574  1.7546
  184SLPC  H13Y21200   0.039   1.624   9.354  0.7596 -1.1970  0.8200
  184SLPC  C31421201  -0.145   1.665   9.249 -0.1702  0.1199 -0.9847
  184SLPC  H14X21202  -0.087   1.668   9.154  0.9990 -0.5264 -0.3053
  184SLPC  H14Y21203  -0.160   1.772   9.275 -3.7529 -1.0694  2.9596
  184SLPC  C31521204  -0.287   1.608   9.236 -0.1376 -0.0970 -0.3986
  184SLPC  H15X21205  -0.348   1.640   9.323 -0.3897 -0.2886 -0.5068
  184SLPC  H15Y21206  -0.283   1.498   9.222  1.7940 -0.0225 -0.6822
  184SLPC  C31621207  -0.356   1.666   9.107  0.6859 -0.3517 -1.0193
  184SLPC  H16X21208  -0.332   1.606   9.017 -2.5041 -0.8768 -1.6439
  184SLPC  H16Y21209  -0.320   1.771   9.102  0.5322 -0.2094  0.3918
  184SLPC  C31721210  -0.510   1.678   9.130  0.2131 -0.3036  0.0362
  184SLPC  H17X21211  -0.559   1.741   9.052 -1.1700 -2.1358 -0.6673
  184SLPC  H17Y21212  -0.535   1.731   9.224  0.8418 -0.2785  0.1889
  184SLPC  C31821213  -0.577   1.545   9.145  0.4166 -0.2056  0.4094
  184SLPC  H18X21214  -0.552   1.487   9.236 -0.8974  0.3755  1.1739
  184SLPC  H18Y21215  -0.547   1.489   9.054 -0.7365  0.5757 -0.4942
  184SLPC  H18Z21216  -0.688   1.552   9.145  0.3846 -0.0519 -1.6364
  185SLPC     N21217   5.188   5.334   6.472 -0.0627 -0.2735 -0.1245
  185SLPC   C1321218   5.223   5.223   6.570  0.2421 -0.7945  0.9740
  185SLPC  H13A21219   5.231   5.126   6.521 -1.1600 -1.1912  1.5042
  185SLPC  H13B21220   5.317   5.253   6.615  0.2441  1.0949 -0.1773
  185SLPC  H13C21221   5.143   5.218   6.641 -0.5788  2.5649  0.4172
  185SLPC   C1421222   5.051   5.313   6.411 -0.5572 -0.1767 -0.6889
  185SLPC  H14A21223   5.041   5.385   6.331 -1.4678 -0.2454 -0.6529
  185SLPC  H14B21224   5.041   5.213   6.373 -1.0286 -0.1528 -0.6384
  185SLPC  H14C21225   4.973   5.322   6.485  1.1335 -1.0285  1.2881
  185SLPC   C1521226   5.282   5.330   6.354 -0.8048 -0.5303  0.4301
  185SLPC  H15A21227   5.259   5.248   6.288  1.6964 -0.5242 -0.5543
  185SLPC  H15B21228   5.272   5.419   6.294  4.1556 -0.1270 -0.2160
  185SLPC  H15C21229   5.383   5.314   6.387 -0.1527  0.8195 -0.7926
  185SLPC   C1221230   5.189   5.471   6.538  0.4932  0.2993  0.3458
  185SLPC  H12A21231   5.160   5.542   6.462 -0.5910  0.0305  0.4847
  185SLPC  H12B21232   5.290   5.497   6.563  0.7813 -0.0360 -0.4361
  185SLPC   C1121233   5.104   5.507   6.657 -0.5612  0.3320  0.5023
  185SLPC  H11A21234   5.138   5.601   6.705 -2.4958  1.6684 -0.6140
  185SLPC  H11B21235   5.123   5.422   6.727  0.6351 -0.2740 -0.5316
  185SLPC     P21236   4.906   5.653   6.571  0.1615 -0.2747  0.1021
  185SLPC   O1321237   4.985   5.688   6.449  0.0537 -0.7445 -0.1290
  185SLPC   O1421238   4.760   5.647   6.549  0.0602  0.8336 -0.2878
  185SLPC   O1221239   4.965   5.519   6.618  0.4097  0.1507 -0.6341
  185SLPC   O1121240   4.945   5.755   6.680 -0.2961 -0.4521  0.1751
  185SLPC    C121241   4.858   5.820   6.765 -0.8207 -1.5352 -0.1483
  185SLPC    HA21242   4.829   5.917   6.719 -0.7228 -1.7174 -0.5987
  185SLPC    HB21243   4.765   5.762   6.785 -0.3618 -1.3454  3.0355
  185SLPC    C221244   4.937   5.852   6.899 -0.1933  0.1885  0.1439
  185SLPC    HS21245   4.998   5.944   6.890  2.5076 -1.3268  1.4803
  185SLPC   O2121246   5.028   5.747   6.946 -0.3152  0.2722 -0.3572
  185SLPC   C2121247   5.155   5.758   6.906  0.2285  0.4133 -0.3154
  185SLPC   O2221248   5.198   5.840   6.832  0.4106 -0.6654  0.3367
  185SLPC   C2221249   5.230   5.643   6.970 -0.6413  0.1171 -1.1569
  185SLPC   H2R21250   5.189   5.548   6.929  0.7673 -0.1064 -2.1218
  185SLPC   H2S21251   5.339   5.650   6.952 -0.4976 -0.5906 -0.5752
  185SLPC    C321252   4.845   5.882   7.021  0.6013 -0.1881  0.1837
  185SLPC    HX21253   4.790   5.790   7.049  0.2215  0.0712  0.2967
  185SLPC    HY21254   4.769   5.950   6.976 -1.7747 -1.7790  1.6124
  185SLPC   O3121255   4.909   5.945   7.131 -0.3163  0.5290  0.4225
  185SLPC   C3121256   4.927   5.869   7.238  0.1998 -0.0762  0.0984
  185SLPC   O3221257   4.921   5.753   7.249 -0.5543  0.5005  0.6643
  185SLPC   C3221258   4.936   5.971   7.362  0.5843  0.3088  0.5590
  185SLPC   H2X21259   4.843   6.033   7.360 -0.7114 -1.5452 -1.8843
  185SLPC   H2Y21260   5.029   6.031   7.353 -0.3568  2.0281  1.6373
  185SLPC   C2321261   5.217   5.629   7.127 -0.1953 -0.0994  0.3819
  185SLPC   H3R21262   5.274   5.541   7.165 -0.1648 -0.6694 -0.9300
  185SLPC   H3S21263   5.109   5.628   7.153 -0.3473  3.3255  0.2748
  185SLPC   C2421264   5.275   5.747   7.207  0.4696 -0.2476  0.1487
  185SLPC   H4R21265   5.219   5.841   7.188 -0.2257 -0.5625  0.6021
  185SLPC   H4S21266   5.376   5.762   7.163 -1.0320  2.7141 -2.6811
  185SLPC   C2521267   5.279   5.733   7.365  0.4776 -0.2804 -0.6652
  185SLPC   H5R21268   5.337   5.644   7.395  1.3182 -0.0734 -1.6242
  185SLPC   H5S21269   5.181   5.716   7.415  1.6453 -1.0925  1.4333
  185SLPC   C2621270   5.336   5.871   7.418  0.9952 -0.4591 -0.4327
  185SLPC   H6R21271   5.279   5.960   7.384  0.5676 -0.0417  1.2919
  185SLPC   H6S21272   5.434   5.884   7.366 -0.4450  2.3341 -2.7532
  185SLPC   C2721273   5.361   5.871   7.569  0.4733  0.0131 -0.0354
  185SLPC   H7R21274   5.437   5.792   7.590 -0.8931 -1.0283  1.2776
  185SLPC   H7S21275   5.267   5.850   7.626 -1.8710  2.7285 -2.5847
  185SLPC   C2821276   5.420   6.004   7.620 -0.3657 -0.5233  0.3831
  185SLPC   H8R21277   5.487   6.037   7.537 -2.3276 -1.0045 -1.4998
  185SLPC   H8S21278   5.482   5.983   7.710  0.1087 -0.4358  0.0812
  185SLPC   C2921279   5.326   6.118   7.633 -0.4735  0.4253 -0.3307
  185SLPC   H9R21280   5.248   6.136   7.558  0.5214  2.1903 -0.9939
  185SLPC  C21021281   5.322   6.204   7.733  0.0053 -0.2309  0.1464
  185SLPC  H10R21282   5.248   6.285   7.725  1.2342  0.7841 -1.9559
  185SLPC  C21121283   5.407   6.214   7.852 -0.2827 -0.1738 -0.0152
  185SLPC  H11R21284   5.423   6.315   7.897 -1.0960 -0.2772  0.5249
  185SLPC  H11S21285   5.504   6.194   7.801  0.7921  0.9175  1.4942
  185SLPC  C21221286   5.378   6.114   7.960 -0.4157 -0.7384 -0.0615
  185SLPC  H12R21287   5.282   6.062   7.947 -0.5657 -1.5330  3.3088
  185SLPC  C21321288   5.453   6.098   8.067  0.3355 -0.6877  0.4636
  185SLPC  H13R21289   5.416   6.025   8.140 -0.6721 -0.1655  0.4933
  185SLPC  C21421290   5.584   6.171   8.096 -0.1876 -0.2101  0.1607
  185SLPC  H14R21291   5.620   6.229   8.008  1.7535 -0.1682  0.9311
  185SLPC  H14S21292   5.671   6.110   8.129  1.0511  0.9054 -0.9096
  185SLPC  C21521293   5.559   6.286   8.202 -0.1593 -0.0621  0.3212
  185SLPC  H15R21294   5.470   6.338   8.160 -0.4509 -1.0641 -0.3399
  185SLPC  H15S21295   5.648   6.347   8.225 -0.6243  0.7238  0.0648
  185SLPC  C21621296   5.516   6.219   8.342 -0.3916 -0.5913 -0.4742
  185SLPC  H16R21297   5.596   6.149   8.376  0.0428  0.7277  1.3285
  185SLPC  H16S21298   5.427   6.153   8.332  0.0567 -1.8297  2.7219
  185SLPC  C21721299   5.500   6.322   8.457 -0.2046 -0.1998  0.1782
  185SLPC  H17R21300   5.421   6.396   8.431 -0.1615 -0.5448 -1.0210
  185SLPC  H17S21301   5.592   6.384   8.449 -0.8282  0.6051 -1.0992
  185SLPC  C21821302   5.483   6.258   8.596  0.4130 -0.5274 -0.5254
  185SLPC  H18R21303   5.464   6.340   8.668  0.3097  1.6844 -2.9183
  185SLPC  H18S21304   5.570   6.194   8.621 -0.7543 -1.5613  1.1300
  185SLPC  H18T21305   5.419   6.167   8.600  1.9001 -1.5761  2.2587
  185SLPC   C3321306   4.942   5.913   7.502  0.5954  0.2735 -0.2380
  185SLPC   H3X21307   5.016   5.830   7.501 -0.2706 -0.5741  1.4885
  185SLPC   H3Y21308   4.851   5.856   7.531  0.1958  2.7103  4.1813
  185SLPC   C3421309   4.953   6.007   7.616  0.0526 -0.5039  0.2741
  185SLPC   H4X21310   4.871   6.082   7.608 -1.0064 -1.4862  1.5757
  185SLPC   H4Y21311   5.041   6.073   7.600 -1.3120  1.2566 -0.3427
  185SLPC   C3521312   4.952   5.938   7.755 -0.4112 -0.8549  0.1540
  185SLPC   H5X21313   5.043   5.874   7.755  0.3545  0.2122  0.8302
  185SLPC   H5Y21314   4.859   5.880   7.776 -1.2752  0.8691  1.3284
  185SLPC   C3621315   4.973   6.046   7.861  0.2243  0.5263  0.2418
  185SLPC   H6X21316   4.879   6.105   7.871 -1.0543 -1.2830 -0.5085
  185SLPC   H6Y21317   5.066   6.104   7.841  0.2221  0.5788  0.3846
  185SLPC   C3721318   4.999   5.985   8.000 -0.3848 -0.2792 -0.0120
  185SLPC   H7X21319   5.090   5.922   8.003 -1.0025 -1.1477  2.0546
  185SLPC   H7Y21320   4.910   5.925   8.030  0.3136 -0.6336  1.4509
  185SLPC   C3821321   5.006   6.100   8.099  0.4926  0.0226  0.4197
  185SLPC   H8X21322   4.911   6.157   8.107 -1.3514 -2.9273  1.1926
  185SLPC   H8Y21323   5.089   6.168   8.070 -0.4417  1.1371  0.3349
  185SLPC   C3921324   5.027   6.037   8.237  0.2460 -0.4685 -0.3292
  185SLPC   H9X21325   5.129   5.994   8.245  1.2183  1.7295 -0.1840
  185SLPC   H9Y21326   4.946   5.961   8.243 -0.5006  0.2626 -0.8181
  185SLPC  C31021327   4.988   6.144   8.340  0.3035  1.0043  0.2353
  185SLPC  H10X21328   4.981   6.093   8.439 -2.6361 -1.4805 -1.0852
  185SLPC  H10Y21329   4.894   6.199   8.320 -0.6501 -1.3530 -2.4303
  185SLPC  C31121330   5.097   6.248   8.362 -0.2913  0.5193 -0.1619
  185SLPC  H11X21331   5.085   6.334   8.292  0.1887  2.2058  1.7476
  185SLPC  H11Y21332   5.198   6.203   8.369 -1.0432 -0.9972  2.5237
  185SLPC  C31221333   5.083   6.316   8.509  0.3264 -0.2672  0.2520
  185SLPC  H12X21334   5.098   6.231   8.578 -2.0560 -1.4027 -0.5256
  185SLPC  H12Y21335   4.980   6.349   8.534  1.2455  1.0695  2.5977
  185SLPC  C31321336   5.156   6.441   8.555 -0.0764 -0.5387  0.1809
  185SLPC  H13X21337   5.136   6.520   8.480  1.0830 -1.5837 -1.2920
  185SLPC  H13Y21338   5.266   6.429   8.561 -0.0171 -0.1307 -0.0853
  185SLPC  C31421339   5.107   6.491   8.694  0.1237  0.0126 -0.2937
  185SLPC  H14X21340   5.178   6.574   8.716  0.8415 -0.5364 -0.5135
  185SLPC  H14Y21341   5.121   6.405   8.763 -1.8930 -0.4946 -0.4481
  185SLPC  C31521342   4.964   6.557   8.698 -0.4455  0.1628 -0.6071
  185SLPC  H15X21343   4.889   6.476   8.698  0.5373 -0.7883  0.6978
  185SLPC  H15Y21344   4.960   6.610   8.600  0.2056  0.0498 -0.7026
  185SLPC  C31621345   4.935   6.649   8.816 -0.0781  0.3915  0.0724
  185SLPC  H16X21346   4.983   6.604   8.905 -0.9130 -0.8451 -0.0738
  185SLPC  H16Y21347   4.825   6.651   8.832 -0.3750 -0.3174 -1.5921
  185SLPC  C31721348   4.993   6.791   8.791  0.0100  0.5334  0.0187
  185SLPC  H17X21349   4.912   6.849   8.742  0.4097 -0.5531 -2.0503
  185SLPC  H17Y21350   5.085   6.786   8.729  0.3507  2.3741  0.3245
  185SLPC  C31821351   5.026   6.856   8.925  0.9075 -0.2433  0.6368
  185SLPC  H18X21352   5.088   6.947   8.909  0.7262 -0.1602  0.3999
  185SLPC  H18Y21353   5.090   6.789   8.986 -1.7913 -1.7910  1.9059
  185SLPC  H18Z21354   4.938   6.862   8.992 -0.5839 -0.9607 -1.1740
  186SLPC     N21355   0.271   1.179   6.006  0.3845 -0.4055 -0.4789
  186SLPC   C1321356   0.424   1.174   5.995 -0.2877 -0.6554 -0.1519
  186SLPC  H13A21357   0.481   1.227   6.070 -0.8374 -4.0318  2.9274
  186SLPC  H13B21358   0.458   1.071   5.997 -0.0281 -0.5887 -0.9821
  186SLPC  H13C21359   0.450   1.207   5.895  0.1546 -1.1939 -0.2201
  186SLPC   C1421360   0.238   1.123   6.134 -0.0378 -0.0618 -0.1947
  186SLPC  H14A21361   0.138   1.083   6.136 -1.2255  2.6645 -0.7063
  186SLPC  H14B21362   0.296   1.033   6.152 -0.0710 -0.3121 -1.2785
  186SLPC  H14C21363   0.266   1.189   6.215 -1.8635 -0.7232  1.0294
  186SLPC   C1521364   0.212   1.100   5.898  0.4929 -0.0101 -0.1223
  186SLPC  H15A21365   0.257   1.105   5.800  1.5912  0.4783  0.3904
  186SLPC  H15B21366   0.236   0.998   5.921 -0.0874 -0.2138 -0.3946
  186SLPC  H15C21367   0.104   1.107   5.897  0.2566 -1.3949  3.1236
  186SLPC   C1221368   0.216   1.324   6.003  0.0601 -0.2476 -0.9861
  186SLPC  H12A21369   0.230   1.374   5.909  0.9774  0.6311 -0.4060
  186SLPC  H12B21370   0.272   1.375   6.080  0.3382 -0.1210 -1.2725
  186SLPC   C1121371   0.058   1.341   6.032  0.1173  0.4085 -0.0271
  186SLPC  H11A21372   0.010   1.262   5.970  0.0854 -0.4355  1.0449
  186SLPC  H11B21373   0.023   1.440   5.996  0.4540 -0.1122 -1.9153
  186SLPC     P21374  -0.013   1.441   6.266 -0.0782 -0.2184  0.0087
  186SLPC   O1321375   0.040   1.565   6.207 -0.1240  0.7412 -0.3715
  186SLPC   O1421376  -0.161   1.440   6.275  0.3054  0.2323 -0.1008
  186SLPC   O1221377   0.036   1.318   6.171  0.3179 -0.3288 -0.3115
  186SLPC   O1121378   0.051   1.417   6.407  0.3936  0.2472  0.4068
  186SLPC    C121379   0.148   1.315   6.442 -0.5220 -0.6646 -0.3521
  186SLPC    HA21380   0.122   1.218   6.395  0.3243 -1.7489  1.3354
  186SLPC    HB21381   0.249   1.347   6.408 -0.6500  0.7802  0.5378
  186SLPC    C221382   0.137   1.297   6.595 -0.5199  0.4035  0.1299
  186SLPC    HS21383   0.051   1.228   6.613  0.4903 -0.5038  1.7433
  186SLPC   O2121384   0.129   1.423   6.663  0.2130 -0.3645 -0.2693
  186SLPC   C2121385   0.007   1.459   6.691 -0.5309 -0.3153  0.0474
  186SLPC   O2221386  -0.091   1.389   6.677  0.5813 -0.0562 -1.1358
  186SLPC   C2221387  -0.005   1.605   6.736  0.4187 -0.2053  0.6763
  186SLPC   H2R21388   0.092   1.658   6.735 -0.1912  0.9406  0.6788
  186SLPC   H2S21389  -0.082   1.655   6.673 -0.6763 -0.8835  1.4251
  186SLPC    C321390   0.259   1.211   6.649  0.0550 -0.5571  0.1797
  186SLPC    HX21391   0.355   1.264   6.630 -0.8333  1.2211  0.4609
  186SLPC    HY21392   0.264   1.115   6.593  3.0686 -1.6137  1.9877
  186SLPC   O3121393   0.240   1.181   6.782 -0.0661  0.2251 -0.0106
  186SLPC   C3121394   0.300   1.260   6.877 -0.8366  0.7596 -0.0481
  186SLPC   O3221395   0.375   1.351   6.857 -0.5232 -0.5985 -0.2784
  186SLPC   C3221396   0.283   1.194   7.015  0.7348  0.0257 -0.4917
  186SLPC   H2X21397   0.346   1.102   7.007 -0.5400 -0.8096 -1.1617
  186SLPC   H2Y21398   0.178   1.162   7.032  0.6949  0.2068 -0.3885
  186SLPC   C2321399  -0.060   1.621   6.880 -0.0944  0.2542  0.4278
  186SLPC   H3R21400  -0.152   1.560   6.888 -0.2583  0.6087  1.3637
  186SLPC   H3S21401  -0.097   1.725   6.893 -1.3835 -0.1178 -0.1780
  186SLPC   C2421402   0.032   1.586   6.996  0.0868 -1.1266 -0.2935
  186SLPC   H4R21403   0.124   1.640   6.966 -1.5543  2.0186 -0.0610
  186SLPC   H4S21404   0.051   1.477   6.984 -0.0986 -0.9722 -2.1967
  186SLPC   C2521405  -0.015   1.627   7.136  0.2001 -0.0651 -0.6280
  186SLPC   H5R21406  -0.105   1.562   7.139 -0.7897  1.2769  1.0912
  186SLPC   H5S21407  -0.034   1.735   7.154  1.9514  0.3211 -0.9350
  186SLPC   C2621408   0.070   1.584   7.258 -0.2586  0.6044 -0.3331
  186SLPC   H6R21409   0.169   1.632   7.247  1.1695 -1.8324  0.8543
  186SLPC   H6S21410   0.084   1.474   7.252  0.1602  0.7200 -2.0180
  186SLPC   C2721411  -0.001   1.602   7.395 -0.3115  0.0100  0.5512
  186SLPC   H7R21412  -0.094   1.541   7.395 -1.0521  1.0998  0.6043
  186SLPC   H7S21413  -0.032   1.709   7.399  1.3219  0.5403 -0.0552
  186SLPC   C2821414   0.074   1.570   7.527 -0.7030  0.0984 -0.6714
  186SLPC   H8R21415   0.001   1.591   7.608 -0.4000  1.1632 -0.6547
  186SLPC   H8S21416   0.164   1.635   7.518 -0.6285 -0.2457 -2.9784
  186SLPC   C2921417   0.133   1.433   7.524  0.9550  0.4143 -0.1128
  186SLPC   H9R21418   0.179   1.395   7.432  2.9337 -0.3513  1.1156
  186SLPC  C21021419   0.140   1.351   7.629  0.5657  0.4379 -0.3855
  186SLPC  H10R21420   0.187   1.252   7.616 -2.2211 -0.9977 -0.4382
  186SLPC  C21121421   0.095   1.381   7.772  0.0863 -0.3508 -0.0106
  186SLPC  H11R21422   0.071   1.489   7.778 -2.4258 -0.7937 -1.0429
  186SLPC  H11S21423   0.184   1.373   7.839  2.0434  2.0168 -2.1074
  186SLPC  C21221424  -0.033   1.310   7.805 -0.4293 -0.8453 -0.2722
  186SLPC  H12R21425  -0.117   1.360   7.756 -0.2192  1.7171  1.7670
  186SLPC  C21321426  -0.050   1.207   7.886  0.4000  0.3906 -0.1848
  186SLPC  H13R21427  -0.151   1.165   7.898  0.5250  0.0617 -0.2798
  186SLPC  C21421428   0.050   1.120   7.966 -0.1891  0.0667  1.1436
  186SLPC  H14R21429   0.155   1.150   7.944 -0.3178 -0.3824 -0.1986
  186SLPC  H14S21430   0.050   1.022   7.914 -2.2196  0.8610 -0.5253
  186SLPC  C21521431   0.023   1.111   8.111  0.1951  0.0476 -0.2945
  186SLPC  H15R21432  -0.061   1.040   8.128  0.1521  0.5881  2.1063
  186SLPC  H15S21433   0.011   1.213   8.154 -1.6783 -0.1535 -0.2505
  186SLPC  C21621434   0.148   1.050   8.186  0.7824 -0.1381  0.0068
  186SLPC  H16R21435   0.241   1.102   8.156  0.9425  1.3720  2.7961
  186SLPC  H16S21436   0.149   0.948   8.143 -0.2091 -1.1396  2.1835
  186SLPC  C21721437   0.121   1.050   8.335  0.9188  0.1753  0.3549
  186SLPC  H17R21438   0.031   0.989   8.355 -0.2721  1.5798 -0.5383
  186SLPC  H17S21439   0.105   1.156   8.363  2.9353  0.9281 -1.0554
  186SLPC  C21821440   0.244   1.000   8.408 -0.0420 -0.1309 -0.3810
  186SLPC  H18R21441   0.217   0.986   8.515  0.5232  1.4760  0.0059
  186SLPC  H18S21442   0.322   1.079   8.407 -0.6728  0.5112 -1.4485
  186SLPC  H18T21443   0.286   0.907   8.364 -0.5895 -0.1499 -0.8912
  186SLPC   C3321444   0.333   1.279   7.136 -0.1061  0.4424  0.4661
  186SLPC   H3X21445   0.272   1.369   7.158 -0.2583  0.2804  0.7148
  186SLPC   H3Y21446   0.437   1.308   7.107 -0.0294 -0.3435 -0.0605
  186SLPC   C3421447   0.344   1.193   7.267 -0.6355 -0.1748 -0.4534
  186SLPC   H4X21448   0.251   1.139   7.295  0.3287 -1.1289  1.0524
  186SLPC   H4Y21449   0.371   1.260   7.352 -2.2154 -0.0643 -0.0132
  186SLPC   C3521450   0.458   1.093   7.266  0.7427 -0.4029 -0.2189
  186SLPC   H5X21451   0.553   1.150   7.262  0.4987  0.0252  0.0838
  186SLPC   H5Y21452   0.448   1.024   7.179 -1.3214  0.1387 -0.4630
  186SLPC   C3621453   0.448   1.005   7.392  0.5152  0.2892 -0.0215
  186SLPC   H6X21454   0.528   0.927   7.396 -1.4001 -1.8169 -0.4356
  186SLPC   H6Y21455   0.342   0.972   7.392 -0.5992  3.5322 -0.3917
  186SLPC   C3721456   0.480   1.078   7.526  0.0969  0.5564 -0.4624
  186SLPC   H7X21457   0.416   1.168   7.541 -0.8770 -0.2572  0.3887
  186SLPC   H7Y21458   0.587   1.106   7.528  0.5086 -0.9392 -0.9435
  186SLPC   C3821459   0.450   0.991   7.645 -1.0343 -0.2724 -0.2291
  186SLPC   H8X21460   0.529   0.913   7.632 -0.7976  0.1041 -1.1860
  186SLPC   H8Y21461   0.350   0.946   7.630 -1.5090  0.3797  0.8396
  186SLPC   C3921462   0.444   1.054   7.788 -0.1550  0.6105  0.7823
  186SLPC   H9X21463   0.365   1.133   7.790 -0.7160  0.1176 -0.9107
  186SLPC   H9Y21464   0.537   1.107   7.818  0.2209  1.4118 -1.5794
  186SLPC  C31021465   0.411   0.949   7.903  0.5793 -0.0753 -0.4656
  186SLPC  H10X21466   0.301   0.950   7.916  0.5514 -0.8149 -0.6442
  186SLPC  H10Y21467   0.451   1.009   7.988  1.5413 -1.4015  0.0533
  186SLPC  C31121468   0.476   0.810   7.890 -0.3477 -0.3000  0.5806
  186SLPC  H11X21469   0.581   0.827   7.857 -1.1116  1.0880 -1.2586
  186SLPC  H11Y21470   0.432   0.752   7.806 -1.3343 -0.1392  0.9674
  186SLPC  C31221471   0.497   0.726   8.021  0.2344 -0.1865  0.2104
  186SLPC  H12X21472   0.400   0.734   8.074 -0.3505  2.9884 -1.1177
  186SLPC  H12Y21473   0.580   0.775   8.076  0.7439 -1.7523  0.9193
  186SLPC  C31321474   0.546   0.582   7.985 -0.4332  0.0065  0.0296
  186SLPC  H13X21475   0.634   0.581   7.918 -1.9122 -4.5602 -2.2813
  186SLPC  H13Y21476   0.476   0.536   7.911  1.3803 -2.1900 -0.4510
  186SLPC  C31421477   0.592   0.501   8.106 -0.0430  0.5690  0.1408
  186SLPC  H14X21478   0.501   0.490   8.169 -0.9020  1.9463 -0.8206
  186SLPC  H14Y21479   0.673   0.559   8.155  1.1031 -2.0053  1.5005
  186SLPC  C31521480   0.637   0.356   8.055  0.1723  0.5253 -0.1270
  186SLPC  H15X21481   0.680   0.310   8.147  0.0100  0.4002 -0.1132
  186SLPC  H15Y21482   0.719   0.359   7.980 -0.8559 -1.6350 -1.4498
  186SLPC  C31621483   0.527   0.249   8.006 -0.7649 -0.0345 -0.0100
  186SLPC  H16X21484   0.478   0.293   7.916  0.3987 -0.0780 -0.6910
  186SLPC  H16Y21485   0.453   0.244   8.089  0.8230  2.2757  1.6678
  186SLPC  C31721486   0.584   0.117   7.963 -0.0667 -0.3466 -0.4636
  186SLPC  H17X21487   0.658   0.067   8.030 -2.2338 -0.4786  2.0129
  186SLPC  H17Y21488   0.642   0.126   7.869  0.8636 -1.7101 -0.0573
  186SLPC  C31821489   0.475   0.008   7.940  0.5759 -0.5592  0.2303
  186SLPC  H18X21490   0.511  -0.094   7.914 -2.5886 -2.6256  3.1193
  186SLPC  H18Y21491   0.412   0.051   7.860 -0.0133 -2.1451 -0.2059
  186SLPC  H18Z21492   0.420   0.005   8.037 -1.0525  0.4333 -0.6178
  187SLPC     N21493   0.358   5.808   5.963  0.3035  0.2007  0.0481
  187SLPC   C1321494   0.401   5.931   6.030  0.0392  0.4522  0.1115
  187SLPC  H13A21495   0.443   5.997   5.955 -0.5994 -0.0749 -0.7247
  187SLPC  H13B21496   0.325   5.982   6.086 -1.0987 -0.6589 -0.3775
  187SLPC  H13C21497   0.482   5.905   6.097  1.6678  2.1484 -1.0938
  187SLPC   C1421498   0.478   5.759   5.874  0.8334 -1.1170 -0.0556
  187SLPC  H14A21499   0.569   5.752   5.930  0.5622  3.1063  1.2718
  187SLPC  H14B21500   0.464   5.665   5.822  1.0083 -1.4506  0.4822
  187SLPC  H14C21501   0.476   5.827   5.790 -1.0524 -1.3583 -0.2536
  187SLPC   C1521502   0.242   5.843   5.868  0.1310 -0.8028 -0.1705
  187SLPC  H15A21503   0.203   5.765   5.805 -1.2254  1.0414 -1.7056
  187SLPC  H15B21504   0.154   5.880   5.919  0.7371 -0.7213  0.8531
  187SLPC  H15C21505   0.278   5.924   5.807 -0.1828  0.5204  1.3253
  187SLPC   C1221506   0.316   5.694   6.060  0.5589  0.0376  0.5110
  187SLPC  H12A21507   0.279   5.615   5.996  1.4023  0.5120 -0.6118
  187SLPC  H12B21508   0.233   5.729   6.119 -0.2209  0.3362 -0.7316
  187SLPC   C1121509   0.419   5.629   6.165 -0.4226 -0.2565  0.2536
  187SLPC  H11A21510   0.494   5.570   6.108  0.2275 -0.9724  1.8042
  187SLPC  H11B21511   0.359   5.556   6.225  1.4895 -1.9433  0.1984
  187SLPC     P21512   0.640   5.758   6.226  0.1854 -0.2469  0.0783
  187SLPC   O1321513   0.683   5.720   6.093  0.1440 -0.3353 -0.1537
  187SLPC   O1421514   0.635   5.903   6.252 -0.5658  0.1532  0.0281
  187SLPC   O1221515   0.486   5.713   6.251 -0.2883 -0.2376 -0.7643
  187SLPC   O1121516   0.713   5.683   6.339  0.4418 -0.5579 -0.3447
  187SLPC    C121517   0.648   5.576   6.411  0.2734  0.2219  0.3619
  187SLPC    HA21518   0.600   5.507   6.339 -0.4461  0.4006  0.6572
  187SLPC    HB21519   0.730   5.511   6.449 -0.6097 -2.9647 -2.6823
  187SLPC    C221520   0.557   5.624   6.534  0.3665  0.5927 -0.7062
  187SLPC    HS21521   0.467   5.671   6.489  0.5283  0.3913 -1.2382
  187SLPC   O2121522   0.629   5.718   6.622 -0.4605  0.0651 -0.4920
  187SLPC   C2121523   0.551   5.790   6.684  1.1967 -0.6077 -0.0562
  187SLPC   O2221524   0.425   5.797   6.667 -0.2921 -0.3967  0.2373
  187SLPC   C2221525   0.626   5.863   6.796  0.6770 -0.2216 -0.3559
  187SLPC   H2R21526   0.690   5.787   6.846  0.0784 -0.2904  0.3198
  187SLPC   H2S21527   0.685   5.951   6.765  1.1960  0.2625  1.8501
  187SLPC    C321528   0.509   5.495   6.610 -0.0025 -0.2041  0.5241
  187SLPC    HX21529   0.607   5.445   6.627  0.2853  0.7581  1.8327
  187SLPC    HY21530   0.456   5.436   6.533  2.9447 -1.9221 -0.3801
  187SLPC   O3121531   0.449   5.520   6.741 -0.5830 -0.3834 -0.3614
  187SLPC   C3121532   0.374   5.417   6.790 -0.5351 -0.5932 -0.4841
  187SLPC   O3221533   0.348   5.317   6.724 -0.6219 -0.1542  0.7552
  187SLPC   C3221534   0.346   5.442   6.938 -0.4544  0.1706  0.2041
  187SLPC   H2X21535   0.312   5.548   6.947  0.3523  0.4190  0.5052
  187SLPC   H2Y21536   0.437   5.436   7.002 -0.3405 -1.5164 -0.0705
  187SLPC   C2321537   0.529   5.918   6.906 -0.4691 -0.5762  0.4998
  187SLPC   H3R21538   0.474   5.845   6.969  0.8728 -1.8444  0.2583
  187SLPC   H3S21539   0.441   5.961   6.854 -0.6161 -0.3566  0.9216
  187SLPC   C2421540   0.595   6.038   6.968  0.2920 -0.2296  0.2435
  187SLPC   H4R21541   0.607   6.111   6.885  1.5379 -1.7027 -0.9419
  187SLPC   H4S21542   0.696   6.008   7.003  0.0442 -1.6450 -0.1812
  187SLPC   C2521543   0.527   6.108   7.087  0.7350 -0.7248 -0.0479
  187SLPC   H5R21544   0.512   6.046   7.178 -1.4423  2.6068  2.0667
  187SLPC   H5S21545   0.428   6.138   7.047  0.8030 -0.6513 -0.1612
  187SLPC   C2621546   0.614   6.224   7.137 -0.0049 -0.1127 -0.9772
  187SLPC   H6R21547   0.636   6.297   7.056  2.1644 -1.1727 -1.4258
  187SLPC   H6S21548   0.717   6.194   7.168  0.1051 -1.7074 -2.7068
  187SLPC   C2721549   0.551   6.294   7.267 -0.3763  0.4278  1.3124
  187SLPC   H7R21550   0.535   6.221   7.349  2.2599 -1.2004  0.5179
  187SLPC   H7S21551   0.454   6.344   7.246  0.1069  1.1140  0.6344
  187SLPC   C2821552   0.642   6.404   7.315  0.2728 -0.2562  0.0332
  187SLPC   H8R21553   0.652   6.476   7.231 -0.1913  0.4450  0.5732
  187SLPC   H8S21554   0.736   6.347   7.333 -1.1077 -3.3065 -1.6454
  187SLPC   C2921555   0.588   6.460   7.442 -0.6255 -0.0853 -0.8207
  187SLPC   H9R21556   0.541   6.559   7.432 -0.2114  0.3499  1.0831
  187SLPC  C21021557   0.602   6.418   7.570  0.0476  0.3659 -0.3852
  187SLPC  H10R21558   0.546   6.467   7.651  0.0043 -0.2799 -0.0165
  187SLPC  C21121559   0.674   6.294   7.616 -0.8549  0.3733 -0.1411
  187SLPC  H11R21560   0.753   6.333   7.684 -0.3820  1.4377 -1.2481
  187SLPC  H11S21561   0.725   6.243   7.531  0.0967  0.1052  0.5765
  187SLPC  C21221562   0.575   6.201   7.684 -0.0205 -0.0090  0.5201
  187SLPC  H12R21563   0.508   6.145   7.617 -1.5916 -1.0161  2.8035
  187SLPC  C21321564   0.570   6.170   7.815  0.2736 -0.1988  0.2943
  187SLPC  H13R21565   0.491   6.100   7.847 -1.0456  0.0940 -2.0585
  187SLPC  C21421566   0.650   6.227   7.925  0.6295 -0.6969 -0.3924
  187SLPC  H14R21567   0.740   6.289   7.904  2.8835 -3.1417  1.4267
  187SLPC  H14S21568   0.675   6.144   7.993 -0.6426 -0.6645  0.1419
  187SLPC  C21521569   0.572   6.321   8.024 -0.0078 -0.5114  0.0818
  187SLPC  H15R21570   0.525   6.409   7.976  0.8227  0.3520  0.8136
  187SLPC  H15S21571   0.642   6.353   8.105 -1.1285 -0.2901  0.9797
  187SLPC  C21621572   0.460   6.258   8.110  0.6871 -1.1309  0.3816
  187SLPC  H16R21573   0.500   6.176   8.174 -2.7773 -1.5925  2.2124
  187SLPC  H16S21574   0.388   6.210   8.041  0.1363 -0.0789  0.1990
  187SLPC  C21721575   0.393   6.358   8.208  0.3048  0.3663  0.3249
  187SLPC  H17R21576   0.323   6.293   8.265 -0.1341  0.6825  0.1523
  187SLPC  H17S21577   0.335   6.436   8.155  1.4881  0.3541 -1.0512
  187SLPC  C21821578   0.483   6.425   8.299 -0.5977 -0.0769 -0.3485
  187SLPC  H18R21579   0.548   6.494   8.241 -2.3195  0.3916 -1.7624
  187SLPC  H18S21580   0.559   6.352   8.336 -1.6470 -0.8002  0.4192
  187SLPC  H18T21581   0.435   6.474   8.387 -1.7645 -3.0955  0.8165
  187SLPC   C3321582   0.234   5.347   6.974 -0.1323 -0.3630 -0.1060
  187SLPC   H3X21583   0.261   5.240   6.957  3.1979  0.4366 -0.5132
  187SLPC   H3Y21584   0.143   5.363   6.913  0.9029 -0.1880 -1.6711
  187SLPC   C3421585   0.191   5.359   7.119 -0.1040 -0.8722 -0.2463
  187SLPC   H4X21586   0.286   5.348   7.175 -0.3448 -0.1519  0.3195
  187SLPC   H4Y21587   0.126   5.272   7.143  0.3746 -0.9880  0.6620
  187SLPC   C3521588   0.112   5.485   7.159 -0.9859  1.2380  0.4603
  187SLPC   H5X21589   0.005   5.457   7.148 -0.2549 -1.2902 -0.9244
  187SLPC   H5Y21590   0.141   5.562   7.084  0.7266  0.3644  0.1922
  187SLPC   C3621591   0.143   5.538   7.302 -0.1831 -0.0217  0.1356
  187SLPC   H6X21592   0.082   5.629   7.320 -0.3202  0.5403 -2.7347
  187SLPC   H6Y21593   0.250   5.569   7.303 -0.3198  0.5646 -1.2926
  187SLPC   C3721594   0.106   5.439   7.413  0.7448 -0.1702  0.6301
  187SLPC   H7X21595  -0.003   5.431   7.435  0.7450 -0.7979  0.4149
  187SLPC   H7Y21596   0.141   5.336   7.393 -0.9295 -0.8106  0.8559
  187SLPC   C3821597   0.169   5.471   7.545  0.2098  0.3042 -0.0916
  187SLPC   H8X21598   0.186   5.579   7.565  1.0761 -0.0175  1.0596
  187SLPC   H8Y21599   0.269   5.423   7.539  0.8795  1.2045  2.3671
  187SLPC   C3921600   0.091   5.424   7.671  0.4637  0.4289 -0.0788
  187SLPC   H9X21601   0.080   5.314   7.664 -0.3813  0.4353  0.9963
  187SLPC   H9Y21602  -0.009   5.471   7.664 -0.2657 -1.0473  0.0910
  187SLPC  C31021603   0.154   5.457   7.809  0.3225 -0.4723 -0.5633
  187SLPC  H10X21604   0.146   5.566   7.829 -0.3706 -0.6714  0.3038
  187SLPC  H10Y21605   0.263   5.437   7.812 -0.0248 -2.4647  0.7244
  187SLPC  C31121606   0.084   5.380   7.926  0.1903  0.2509 -0.2907
  187SLPC  H11X21607   0.092   5.269   7.924 -1.6753 -0.1857  4.2037
  187SLPC  H11Y21608  -0.022   5.404   7.906  0.6934  1.9396 -1.0968
  187SLPC  C31221609   0.121   5.429   8.076 -0.0474 -0.6281  0.1303
  187SLPC  H12X21610   0.113   5.540   8.080  0.8667 -0.5770  0.5549
  187SLPC  H12Y21611   0.229   5.405   8.080 -0.2380 -1.6045 -0.2229
  187SLPC  C31321612   0.033   5.371   8.187  0.4521 -0.4645  0.4921
  187SLPC  H13X21613  -0.068   5.351   8.146  0.8775 -1.6023 -0.0558
  187SLPC  H13Y21614   0.008   5.439   8.271  0.0036 -0.4103  0.3162
  187SLPC  C31421615   0.083   5.240   8.249 -0.8167 -0.6313  0.1085
  187SLPC  H14X21616   0.068   5.168   8.165 -2.6378  1.3562 -1.3961
  187SLPC  H14Y21617   0.010   5.218   8.329  0.9258  1.1327  2.3141
  187SLPC  C31521618   0.219   5.242   8.312 -0.4806 -0.8305 -0.0741
  187SLPC  H15X21619   0.299   5.275   8.241  0.5945  1.0888  1.8913
  187SLPC  H15Y21620   0.239   5.137   8.343  0.0524 -0.5531  0.5572
  187SLPC  C31621621   0.220   5.317   8.442  0.3760 -0.0348  0.5355
  187SLPC  H16X21622   0.124   5.294   8.494  0.8599 -1.5662  0.7912
  187SLPC  H16Y21623   0.235   5.425   8.419 -0.8705  0.0375 -0.0279
  187SLPC  C31721624   0.337   5.268   8.528  0.1055  0.3853  0.1556
  187SLPC  H17X21625   0.425   5.293   8.466 -0.0698  1.2804  0.2575
  187SLPC  H17Y21626   0.333   5.158   8.545 -0.2447  0.4204  0.3142
  187SLPC  C31821627   0.356   5.343   8.656 -0.2318 -0.5393  0.1862
  187SLPC  H18X21628   0.450   5.324   8.712  0.2996  1.1057 -0.0787
  187SLPC  H18Y21629   0.273   5.313   8.723 -0.5338 -3.2920 -1.2932
  187SLPC  H18Z21630   0.355   5.454   8.651 -0.7120 -0.3937  2.3592
  188SLPC     N21631   1.157   0.005   6.209  0.5880 -0.1575 -0.6696
  188SLPC   C1321632   1.098   0.042   6.343  0.9638 -0.0593 -0.3369
  188SLPC  H13A21633   1.076   0.148   6.343 -2.1443 -0.6064 -1.9200
  188SLPC  H13B21634   1.004  -0.005   6.365  1.1140  0.4336  1.6402
  188SLPC  H13C21635   1.162   0.011   6.425  0.6983  0.9215  0.2698
  188SLPC   C1421636   1.282   0.096   6.197  0.5214  0.5201 -0.4267
  188SLPC  H14A21637   1.332   0.089   6.292 -1.3521  0.0789  0.5868
  188SLPC  H14B21638   1.344   0.071   6.112 -1.7351 -1.3037 -1.6696
  188SLPC  H14C21639   1.247   0.198   6.187 -1.6021 -0.0913  0.1546
  188SLPC   C1521640   1.066   0.038   6.097 -1.1609 -0.3819  0.3489
  188SLPC  H15A21641   1.113   0.037   5.999 -1.1484  1.6945  0.2870
  188SLPC  H15B21642   0.992  -0.041   6.097  0.7888 -2.3628  2.3281
  188SLPC  H15C21643   1.030   0.139   6.100 -0.1503 -0.0173  0.5063
  188SLPC   C1221644   1.194  -0.143   6.214 -0.0493 -0.2398 -0.0103
  188SLPC  H12A21645   1.110  -0.211   6.213 -0.6249  0.4218  1.1813
  188SLPC  H12B21646   1.239  -0.155   6.312 -1.4807  0.5754  0.7762
  188SLPC   C1121647   1.301  -0.209   6.118  0.0435 -0.0426  0.2755
  188SLPC  H11A21648   1.265  -0.194   6.014 -1.2942  1.6514  0.9171
  188SLPC  H11B21649   1.293  -0.317   6.141  1.1969 -0.8410 -2.6820
  188SLPC     P21650   1.540  -0.221   6.221 -0.1709 -0.2108  0.0213
  188SLPC   O1321651   1.666  -0.241   6.149 -0.0341 -0.4556  0.0384
  188SLPC   O1421652   1.541  -0.133   6.347 -0.1916  0.4138 -0.2743
  188SLPC   O1221653   1.435  -0.164   6.118  0.1941  0.1758 -0.8591
  188SLPC   O1121654   1.495  -0.362   6.268 -0.4199  0.0219 -0.1549
  188SLPC    C121655   1.561  -0.427   6.378 -1.0349 -0.5800 -0.1375
  188SLPC    HA21656   1.564  -0.537   6.363  1.8132 -0.7603  1.1029
  188SLPC    HB21657   1.670  -0.404   6.374 -0.9334 -1.1351 -3.3133
  188SLPC    C221658   1.497  -0.383   6.512  0.8895  0.7779 -1.1249
  188SLPC    HS21659   1.518  -0.277   6.540  1.9794  0.5932 -1.2053
  188SLPC   O2121660   1.546  -0.464   6.621 -0.4729 -0.2750 -0.3134
  188SLPC   C2121661   1.673  -0.453   6.658  0.5635 -0.8381  0.4090
  188SLPC   O2221662   1.753  -0.363   6.628  0.3710 -0.0253 -0.3435
  188SLPC   C2221663   1.702  -0.552   6.759 -0.4153  0.5373 -1.0750
  188SLPC   H2R21664   1.616  -0.554   6.828  1.3926 -0.2864  1.2979
  188SLPC   H2S21665   1.720  -0.650   6.709  3.0231  0.9818 -0.9454
  188SLPC    C321666   1.339  -0.418   6.517  0.3433  0.1035 -0.1518
  188SLPC    HX21667   1.332  -0.527   6.497  0.2155  0.6458 -3.7340
  188SLPC    HY21668   1.284  -0.357   6.441 -0.3132  1.3240  1.2492
  188SLPC   O3121669   1.274  -0.400   6.647 -0.5102  0.0509  0.2469
  188SLPC   C3121670   1.192  -0.302   6.659  0.2710  0.1101  0.9357
  188SLPC   O3221671   1.190  -0.199   6.591  0.4166  0.2273  0.4162
  188SLPC   C3221672   1.112  -0.318   6.788  0.6645 -0.0274 -0.4989
  188SLPC   H2X21673   1.186  -0.327   6.870 -0.4426  1.0779  0.6733
  188SLPC   H2Y21674   1.044  -0.404   6.770 -0.1764 -0.0163  2.2152
  188SLPC   C2321675   1.827  -0.505   6.852 -0.2938 -0.3009  0.2803
  188SLPC   H3R21676   1.798  -0.404   6.889 -2.2091 -0.8611  0.3904
  188SLPC   H3S21677   1.920  -0.500   6.791 -0.9700  3.6354 -0.6959
  188SLPC   C2421678   1.844  -0.610   6.962  0.0578  0.0199 -0.2232
  188SLPC   H4R21679   1.941  -0.583   7.009 -0.3769  2.5255 -0.6385
  188SLPC   H4S21680   1.853  -0.710   6.914 -1.4432  0.0397 -0.5840
  188SLPC   C2521681   1.748  -0.593   7.081  0.2689 -0.4927  0.1296
  188SLPC   H5R21682   1.644  -0.613   7.046 -0.6738 -0.8883  2.9217
  188SLPC   H5S21683   1.748  -0.485   7.106  0.7269 -0.6537  0.8440
  188SLPC   C2621684   1.787  -0.676   7.200  0.1485  0.3095  0.0422
  188SLPC   H6R21685   1.896  -0.689   7.214  0.2827  0.3163 -0.9796
  188SLPC   H6S21686   1.734  -0.773   7.196  1.8272 -0.6897  1.0841
  188SLPC   C2721687   1.736  -0.604   7.327  0.0493 -0.1560 -0.0729
  188SLPC   H7R21688   1.627  -0.585   7.318  0.5911  3.1356 -1.1036
  188SLPC   H7S21689   1.780  -0.502   7.338 -0.2438 -0.0129 -0.1897
  188SLPC   C2821690   1.770  -0.670   7.462  0.0111 -0.2038 -1.5075
  188SLPC   H8R21691   1.879  -0.652   7.473 -0.5747  2.3427  2.3445
  188SLPC   H8S21692   1.750  -0.779   7.458  0.7466 -0.3146 -4.1085
  188SLPC   C2921693   1.706  -0.603   7.584  0.4541  0.3954  0.2919
  188SLPC   H9R21694   1.678  -0.497   7.573 -2.5238 -0.2699  0.7183
  188SLPC  C21021695   1.686  -0.670   7.700  1.4741  0.4643  0.3571
  188SLPC  H10R21696   1.643  -0.611   7.782  0.0199  1.6236 -1.1817
  188SLPC  C21121697   1.713  -0.813   7.735  0.6364  0.6422  0.4261
  188SLPC  H11R21698   1.717  -0.874   7.642  1.7293 -0.0024  0.8836
  188SLPC  H11S21699   1.629  -0.854   7.796  0.6281 -0.1803 -0.1206
  188SLPC  C21221700   1.848  -0.817   7.797 -0.4561 -0.3680 -0.2746
  188SLPC  H12R21701   1.929  -0.849   7.730 -0.0415  3.7743 -2.0297
  188SLPC  C21321702   1.870  -0.807   7.936 -0.2663 -0.2027  0.4360
  188SLPC  H13R21703   1.973  -0.819   7.974 -0.7909 -1.1286  1.6009
  188SLPC  C21421704   1.767  -0.789   8.046 -0.3895  0.3121 -0.2030
  188SLPC  H14R21705   1.667  -0.824   8.015 -1.0393  2.3331 -0.5432
  188SLPC  H14S21706   1.758  -0.681   8.071  1.8545 -0.2590  4.0090
  188SLPC  C21521707   1.815  -0.864   8.176  0.1618  0.7699 -0.5880
  188SLPC  H15R21708   1.910  -0.814   8.206  1.1538 -2.4191  2.2581
  188SLPC  H15S21709   1.833  -0.973   8.165 -0.6043  0.5987 -0.1877
  188SLPC  C21621710   1.724  -0.854   8.300  0.3603 -0.8756 -0.3652
  188SLPC  H16R21711   1.698  -0.746   8.314 -1.3266 -1.2580 -0.2544
  188SLPC  H16S21712   1.789  -0.868   8.389  0.9688  1.3202 -0.3936
  188SLPC  C21721713   1.604  -0.943   8.299 -0.3908  0.1780 -0.2546
  188SLPC  H17R21714   1.562  -0.955   8.197  1.9201  0.2717 -1.2887
  188SLPC  H17S21715   1.526  -0.906   8.368 -0.3374  1.2391 -0.7372
  188SLPC  C21821716   1.636  -1.089   8.346  0.3486 -0.5713 -0.5263
  188SLPC  H18R21717   1.587  -1.106   8.445 -3.8071  0.7934 -2.1390
  188SLPC  H18S21718   1.740  -1.127   8.339  0.9322  0.5300  1.4274
  188SLPC  H18T21719   1.585  -1.156   8.274  0.8413  1.2244 -2.6276
  188SLPC   C3321720   1.030  -0.196   6.826  0.3234  0.0247 -0.2986
  188SLPC   H3X21721   0.953  -0.186   6.747 -1.5356 -3.1977  0.8873
  188SLPC   H3Y21722   1.090  -0.103   6.816  0.8767 -0.2946 -0.0139
  188SLPC   C3421723   0.967  -0.209   6.966  0.2994 -0.2443 -0.4887
  188SLPC   H4X21724   0.926  -0.312   6.970 -2.4211  0.7721 -0.0663
  188SLPC   H4Y21725   0.883  -0.138   6.980  2.0093  1.5229  1.4851
  188SLPC   C3521726   1.057  -0.196   7.091  0.1234  0.1027 -1.2016
  188SLPC   H5X21727   1.112  -0.099   7.092  1.1250 -0.4526 -0.9529
  188SLPC   H5Y21728   1.132  -0.277   7.092 -0.0283 -0.0355 -0.9804
  188SLPC   C3621729   0.966  -0.207   7.219  0.6855 -0.6715 -0.5803
  188SLPC   H6X21730   0.900  -0.295   7.227  1.4969 -1.1958  0.7272
  188SLPC   H6Y21731   0.896  -0.120   7.218 -0.0145 -1.0819  2.6748
  188SLPC   C3721732   1.047  -0.207   7.346 -1.2833 -0.0885 -0.8342
  188SLPC   H7X21733   1.111  -0.116   7.343  0.4908 -1.2982 -1.4921
  188SLPC   H7Y21734   1.129  -0.283   7.343 -2.2680 -1.1835 -3.5140
  188SLPC   C3821735   0.965  -0.223   7.476  0.2696 -0.4940 -0.3034
  188SLPC   H8X21736   0.911  -0.320   7.470  1.1615 -1.0152 -0.1674
  188SLPC   H8Y21737   0.893  -0.139   7.481  1.9110  0.9326  0.5316
  188SLPC   C3921738   1.051  -0.232   7.598  0.1520  0.5511  0.1742
  188SLPC   H9X21739   1.109  -0.138   7.608 -1.1782  1.4550 -0.2771
  188SLPC   H9Y21740   1.115  -0.323   7.593  0.3297  0.6447  0.7851
  188SLPC  C31021741   0.965  -0.247   7.733 -0.2353 -0.0832  0.5790
  188SLPC  H10X21742   0.897  -0.334   7.723  1.6850 -1.4092 -2.5388
  188SLPC  H10Y21743   0.902  -0.155   7.733 -0.2769 -0.1060 -0.3097
  188SLPC  C31121744   1.041  -0.246   7.861  0.8282  0.9088  0.2544
  188SLPC  H11X21745   1.111  -0.160   7.868  0.1698  1.3011  4.9877
  188SLPC  H11Y21746   1.102  -0.339   7.866  1.2947  1.2523  1.0456
  188SLPC  C31221747   0.958  -0.227   7.986 -0.2029  0.0741  0.4154
  188SLPC  H12X21748   0.876  -0.300   8.000 -1.3049  1.4651  1.5789
  188SLPC  H12Y21749   0.902  -0.132   7.967  2.6021  1.1542 -4.3379
  188SLPC  C31321750   1.048  -0.222   8.112 -0.0327 -0.3276  0.4280
  188SLPC  H13X21751   1.133  -0.162   8.072  0.3605 -0.8407  0.4846
  188SLPC  H13Y21752   1.078  -0.326   8.137  1.2255 -0.5870 -1.8733
  188SLPC  C31421753   0.980  -0.156   8.233  0.0730  0.4724 -0.1295
  188SLPC  H14X21754   0.938  -0.054   8.222  0.0362  0.5050  0.2969
  188SLPC  H14Y21755   1.067  -0.141   8.300  0.0952 -0.7707  0.1436
  188SLPC  C31521756   0.863  -0.234   8.284  0.2323  0.2179 -0.0596
  188SLPC  H15X21757   0.884  -0.341   8.305 -1.3267 -0.7153 -2.7264
  188SLPC  H15Y21758   0.785  -0.245   8.205 -0.2623  1.3801  0.2437
  188SLPC  C31621759   0.797  -0.187   8.416  0.6302  0.1010  0.1404
  188SLPC  H16X21760   0.873  -0.185   8.497 -0.8928  0.6543  1.5985
  188SLPC  H16Y21761   0.727  -0.269   8.441 -0.5987  1.1401  0.1866
  188SLPC  C31721762   0.722  -0.055   8.407  0.1258  0.0209  0.2500
  188SLPC  H17X21763   0.796   0.025   8.385  1.1222 -0.3720  1.9421
  188SLPC  H17Y21764   0.670  -0.036   8.503  0.0435  1.3528 -0.0375
  188SLPC  C31821765   0.621  -0.053   8.297  0.2820  0.1757 -0.8192
  188SLPC  H18X21766   0.666  -0.090   8.203  0.7273 -0.3597 -0.3986
  188SLPC  H18Y21767   0.588   0.053   8.287  1.2745  0.8907  2.3119
  188SLPC  H18Z21768   0.535  -0.120   8.320  2.7303 -3.4725 -1.5876
  189SLPC     N21769   2.869   0.870   5.925 -0.0833  0.8113 -0.6771
  189SLPC   C1321770   2.719   0.878   5.913 -0.3345 -0.2753  1.1154
  189SLPC  H13A21771   2.693   0.976   5.876  0.7912 -0.7409 -1.0604
  189SLPC  H13B21772   2.683   0.792   5.859  1.2264 -1.2010  1.4614
  189SLPC  H13C21773   2.674   0.863   6.010  1.0287 -2.5285  1.4755
  189SLPC   C1421774   2.918   0.986   6.008  0.6500 -0.8066  0.4831
  189SLPC  H14A21775   2.885   1.086   5.983  0.2616 -0.9227  0.5219
  189SLPC  H14B21776   2.879   0.970   6.107  0.8167  0.3121  0.7457
  189SLPC  H14C21777   3.025   0.990   6.019  0.5423 -0.1931  1.4228
  189SLPC   C1521778   2.928   0.864   5.782  0.4910 -0.0736  0.5451
  189SLPC  H15A21779   2.963   0.958   5.742  2.6469 -0.9588  0.1992
  189SLPC  H15B21780   3.016   0.801   5.782 -1.1416 -2.4783 -0.3260
  189SLPC  H15C21781   2.857   0.827   5.710 -0.4280 -1.0475  1.9092
  189SLPC   C1221782   2.919   0.748   5.998 -0.5309  0.4760  0.1916
  189SLPC  H12A21783   3.019   0.766   6.034 -0.1860 -0.6147 -0.2068
  189SLPC  H12B21784   2.923   0.661   5.934  1.9281 -0.1703  1.1319
  189SLPC   C1121785   2.831   0.713   6.115  0.0681 -0.0440  0.5023
  189SLPC  H11A21786   2.873   0.616   6.150  0.5789 -0.7798 -2.0052
  189SLPC  H11B21787   2.726   0.702   6.080  0.3549  0.8150 -0.6909
  189SLPC     P21788   2.897   0.778   6.369  0.2530 -0.2243  0.6737
  189SLPC   O1321789   2.839   0.661   6.431  0.1515  0.8667 -0.1096
  189SLPC   O1421790   3.044   0.775   6.349 -0.6619 -0.1124  0.2012
  189SLPC   O1221791   2.830   0.808   6.225  0.2934 -0.2501  0.2516
  189SLPC   O1121792   2.859   0.913   6.443  0.0946 -0.4892  0.2177
  189SLPC    C121793   2.732   0.936   6.506  0.0360  0.3465  0.1918
  189SLPC    HA21794   2.680   1.018   6.452 -2.5930 -2.0624 -1.2268
  189SLPC    HB21795   2.661   0.852   6.492 -2.7196  2.6665 -0.7873
  189SLPC    C221796   2.747   0.952   6.658 -0.6654  0.1508  0.5899
  189SLPC    HS21797   2.833   1.020   6.676 -0.2681  0.2937 -1.5820
  189SLPC   O2121798   2.773   0.821   6.711  0.4825 -0.4860 -0.1099
  189SLPC   C2121799   2.893   0.786   6.736 -0.1951  0.1612 -0.3896
  189SLPC   O2221800   2.984   0.864   6.759 -0.4366  0.4189 -0.1570
  189SLPC   C2221801   2.906   0.628   6.763 -0.1408 -0.4523  0.2060
  189SLPC   H2R21802   2.967   0.600   6.674  1.5082 -1.1775  1.5187
  189SLPC   H2S21803   2.962   0.630   6.859 -1.3154  0.2318  0.8900
  189SLPC    C321804   2.627   1.008   6.731 -0.0101 -0.1768  0.0929
  189SLPC    HX21805   2.548   0.940   6.692  1.2012 -1.4982 -0.0949
  189SLPC    HY21806   2.597   1.112   6.706 -1.6832 -1.0700 -1.9186
  189SLPC   O3121807   2.642   0.998   6.875 -0.2226  0.5325 -0.1143
  189SLPC   C3121808   2.709   1.085   6.937  0.1201 -0.4349 -0.1586
  189SLPC   O3221809   2.784   1.171   6.890  0.6584 -0.0037  0.0884
  189SLPC   C3221810   2.664   1.085   7.087  0.0908 -0.1931 -0.2068
  189SLPC   H2X21811   2.686   0.981   7.118  1.6265  0.1570 -0.0458
  189SLPC   H2Y21812   2.554   1.096   7.100  0.2359 -0.9512  2.0902
  189SLPC   C2321813   2.772   0.554   6.772  1.4845 -0.3921 -0.0075
  189SLPC   H3R21814   2.779   0.443   6.773  1.3959 -0.4002 -0.2086
  189SLPC   H3S21815   2.715   0.581   6.680  3.6567 -1.9490 -1.9149
  189SLPC   C2421816   2.673   0.589   6.893 -0.0680 -0.8266  0.1402
  189SLPC   H4R21817   2.574   0.544   6.868 -0.4340  0.8891 -1.8283
  189SLPC   H4S21818   2.659   0.699   6.886 -1.3007 -1.0002 -0.4769
  189SLPC   C2521819   2.717   0.552   7.034  0.2371  0.0042 -0.0597
  189SLPC   H5R21820   2.772   0.456   7.047 -0.2340  0.0504  2.8842
  189SLPC   H5S21821   2.629   0.548   7.101 -0.0459 -0.1027 -0.4331
  189SLPC   C2621822   2.812   0.657   7.094 -0.0482 -0.3985  0.9622
  189SLPC   H6R21823   2.814   0.737   7.017 -0.8083  2.6394  3.8365
  189SLPC   H6S21824   2.914   0.613   7.090  0.1200 -0.2892  2.9904
  189SLPC   C2721825   2.786   0.700   7.234 -1.0099 -0.4817  0.0210
  189SLPC   H7R21826   2.764   0.607   7.289 -0.3598 -1.6735 -1.6491
  189SLPC   H7S21827   2.697   0.766   7.236  0.0222  0.9742  0.4676
  189SLPC   C2821828   2.910   0.782   7.286 -0.1333 -0.5825  0.5619
  189SLPC   H8R21829   2.898   0.878   7.231 -1.6531  0.0875  1.9626
  189SLPC   H8S21830   3.000   0.726   7.253 -1.0409 -1.0395 -1.2873
  189SLPC   C2921831   2.892   0.789   7.433 -0.1193 -0.0714  0.1686
  189SLPC   H9R21832   2.820   0.865   7.468 -1.1920 -1.1443  0.3920
  189SLPC  C21021833   2.948   0.705   7.527  0.5021 -0.7509  0.2984
  189SLPC  H10R21834   2.921   0.727   7.632  0.8110  0.4410  0.1374
  189SLPC  C21121835   3.059   0.605   7.506  0.1885 -0.4781  0.7619
  189SLPC  H11R21836   3.155   0.657   7.526 -0.6772  0.2068  3.8261
  189SLPC  H11S21837   3.054   0.555   7.407 -2.4117 -0.1263  0.6256
  189SLPC  C21221838   3.052   0.489   7.594  0.4166  0.6096  0.2326
  189SLPC  H12R21839   3.028   0.395   7.541  2.7666 -0.8052  1.4936
  189SLPC  C21321840   3.077   0.474   7.727  0.0423  0.6886  0.3737
  189SLPC  H13R21841   3.081   0.377   7.778  1.5302  0.6360  0.2282
  189SLPC  C21421842   3.110   0.586   7.824  0.3373  0.1443  1.1680
  189SLPC  H14R21843   3.125   0.684   7.772 -0.0616 -0.6662 -0.5636
  189SLPC  H14S21844   3.209   0.565   7.870  1.1414 -2.0190 -1.3281
  189SLPC  C21521845   3.005   0.610   7.933 -0.3003 -0.6907  0.2323
  189SLPC  H15R21846   2.909   0.636   7.883 -0.3547 -0.1100  0.6220
  189SLPC  H15S21847   3.042   0.694   7.995  1.2559 -2.8126  2.3208
  189SLPC  C21621848   2.981   0.491   8.027 -0.2474 -0.0632  0.2570
  189SLPC  H16R21849   3.083   0.458   8.057  0.1792  1.5422  0.7212
  189SLPC  H16S21850   2.937   0.406   7.972 -1.6159  0.7737  0.0144
  189SLPC  C21721851   2.903   0.513   8.158 -0.0701 -0.1898  0.2121
  189SLPC  H17R21852   2.939   0.603   8.214  0.2026 -2.9081  4.9782
  189SLPC  H17S21853   2.913   0.430   8.231 -0.1666  0.6765  1.2402
  189SLPC  C21821854   2.756   0.519   8.130 -0.1409 -0.1297  0.5755
  189SLPC  H18R21855   2.693   0.534   8.221  0.3798 -0.9582  1.0833
  189SLPC  H18S21856   2.719   0.428   8.078  0.1833 -2.0583  3.4470
  189SLPC  H18T21857   2.719   0.603   8.068  2.2032 -0.3350 -1.2394
  189SLPC   C3321858   2.730   1.193   7.172 -0.0150  0.8518  0.0860
  189SLPC   H3X21859   2.674   1.283   7.137  0.9106  2.7221  2.9996
  189SLPC   H3Y21860   2.836   1.215   7.149 -0.7043  0.7764 -3.9343
  189SLPC   C3421861   2.723   1.177   7.324 -0.0402  0.1578 -0.2792
  189SLPC   H4X21862   2.784   1.086   7.337  0.7184  0.6221 -0.5615
  189SLPC   H4Y21863   2.617   1.156   7.350 -0.3851 -1.3274 -2.6611
  189SLPC   C3521864   2.747   1.310   7.397  0.6197 -0.0399 -0.3099
  189SLPC   H5X21865   2.663   1.377   7.369 -0.6347 -1.3260  0.2684
  189SLPC   H5Y21866   2.839   1.364   7.364  0.4870  1.0828  1.0900
  189SLPC   C3621867   2.737   1.275   7.543 -0.7964 -0.5613 -0.1110
  189SLPC   H6X21868   2.820   1.206   7.569 -0.6682 -0.4474 -0.2077
  189SLPC   H6Y21869   2.650   1.214   7.573 -2.0552  1.8744  1.5035
  189SLPC   C3721870   2.727   1.397   7.634 -0.1622 -0.1114 -0.2237
  189SLPC   H7X21871   2.655   1.477   7.605  2.7025  2.3744 -0.9824
  189SLPC   H7Y21872   2.827   1.444   7.622  0.2843 -0.2776  2.3179
  189SLPC   C3821873   2.716   1.359   7.783  0.0297 -0.5183  0.2384
  189SLPC   H8X21874   2.821   1.328   7.797  0.3433 -1.3292 -3.0280
  189SLPC   H8Y21875   2.651   1.274   7.812  1.0214 -0.0555  4.4643
  189SLPC   C3921876   2.673   1.466   7.888  0.3808  0.1699  0.2128
  189SLPC   H9X21877   2.564   1.491   7.889  0.0110 -1.3502  0.4331
  189SLPC   H9Y21878   2.725   1.563   7.877 -0.6595  0.7742  0.3931
  189SLPC  C31021879   2.705   1.423   8.032  1.0856 -0.5435  0.2438
  189SLPC  H10X21880   2.812   1.396   8.042  0.7584 -1.7810  0.5288
  189SLPC  H10Y21881   2.636   1.342   8.064 -0.2237  1.1501  1.9155
  189SLPC  C31121882   2.673   1.530   8.135 -0.7382 -0.1958 -0.0728
  189SLPC  H11X21883   2.571   1.567   8.113 -1.1869 -0.5669  1.3111
  189SLPC  H11Y21884   2.742   1.617   8.133  0.2220 -0.9428 -0.2363
  189SLPC  C31221885   2.681   1.471   8.279  0.2803  0.2166 -0.0155
  189SLPC  H12X21886   2.768   1.404   8.296 -1.1247 -1.2565  1.8737
  189SLPC  H12Y21887   2.586   1.413   8.281  0.1741  0.3363 -0.8996
  189SLPC  C31321888   2.670   1.569   8.396 -0.0336 -0.5408 -0.2029
  189SLPC  H13X21889   2.583   1.635   8.377 -0.8412 -1.5007  0.0722
  189SLPC  H13Y21890   2.752   1.644   8.400 -1.5831  1.3614 -1.9256
  189SLPC  C31421891   2.664   1.496   8.530  0.0179  0.4170 -0.4295
  189SLPC  H14X21892   2.602   1.404   8.524  0.8081 -0.1640  0.1352
  189SLPC  H14Y21893   2.609   1.559   8.603 -0.8727 -0.2746 -0.4925
  189SLPC  C31521894   2.804   1.454   8.580 -0.7636 -0.0753  0.3386
  189SLPC  H15X21895   2.849   1.539   8.636  0.3703 -0.5515  0.1581
  189SLPC  H15Y21896   2.874   1.434   8.496 -2.5198 -0.9572 -1.0073
  189SLPC  C31621897   2.796   1.330   8.677 -0.3377  0.2351  0.1854
  189SLPC  H16X21898   2.897   1.307   8.718  0.7484  0.5039 -2.1850
  189SLPC  H16Y21899   2.774   1.237   8.621 -0.9422 -0.4976  1.5995
  189SLPC  C31721900   2.693   1.347   8.781  0.2004 -0.8863  0.3961
  189SLPC  H17X21901   2.595   1.354   8.729 -0.3411  0.5994  1.5515
  189SLPC  H17Y21902   2.712   1.433   8.848  3.9046  1.6945 -3.4516
  189SLPC  C31821903   2.681   1.223   8.867 -0.0079 -0.0361  0.6705
  189SLPC  H18X21904   2.616   1.244   8.954 -1.2123  0.4250 -0.3075
  189SLPC  H18Y21905   2.779   1.178   8.897  0.6254  1.0480  0.2860
  189SLPC  H18Z21906   2.634   1.146   8.803  1.5732  0.2567 -0.9281
  190SLPC     N21907   3.195   0.148   5.930 -0.0820 -0.2198  0.0955
  190SLPC   C1321908   3.248   0.017   5.882 -0.1881 -0.4438 -0.8514
  190SLPC  H13A21909   3.300   0.046   5.792  1.7227 -0.1236  0.2949
  190SLPC  H13B21910   3.319  -0.031   5.948 -0.7031 -0.1326 -0.0635
  190SLPC  H13C21911   3.172  -0.051   5.847 -1.6448  0.3897  0.5800
  190SLPC   C1421912   3.089   0.194   5.842  0.5231  0.5062  0.3923
  190SLPC  H14A21913   2.996   0.151   5.875  0.5904 -0.6001 -0.8004
  190SLPC  H14B21914   3.073   0.300   5.857  1.3268  0.5780  0.8493
  190SLPC  H14C21915   3.105   0.164   5.740 -0.3102 -1.7361  0.8606
  190SLPC   C1521916   3.307   0.247   5.912 -0.4979 -0.7914  0.1625
  190SLPC  H15A21917   3.351   0.241   5.814  1.4492  0.8175  0.8662
  190SLPC  H15B21918   3.268   0.345   5.935  1.7218 -0.4347  2.9969
  190SLPC  H15C21919   3.389   0.228   5.980 -1.5709 -0.7511  1.5168
  190SLPC   C1221920   3.172   0.143   6.075  0.7617  0.6519  0.5467
  190SLPC  H12A21921   3.147   0.241   6.114 -0.1225  0.5367  0.2923
  190SLPC  H12B21922   3.268   0.129   6.121 -0.3690 -1.0171  2.5554
  190SLPC   C1121923   3.066   0.051   6.129 -0.6228 -0.2753 -0.2903
  190SLPC  H11A21924   3.061   0.061   6.240  0.5946 -0.2324 -0.2325
  190SLPC  H11B21925   3.091  -0.057   6.120 -1.6914 -0.5440 -0.2531
  190SLPC     P21926   2.852   0.206   6.116 -0.2107  0.1646  0.4093
  190SLPC   O1321927   2.934   0.320   6.145  0.2995  0.1721  0.2696
  190SLPC   O1421928   2.744   0.220   6.016  0.1516  0.1317 -0.7367
  190SLPC   O1221929   2.936   0.083   6.075 -1.0857  0.5250 -0.2242
  190SLPC   O1121930   2.788   0.159   6.254 -0.1810 -0.3498 -0.6168
  190SLPC    C121931   2.721   0.039   6.262  0.3602  0.5032 -0.2636
  190SLPC    HA21932   2.627   0.044   6.202 -0.6224  1.0876  1.2766
  190SLPC    HB21933   2.783  -0.049   6.239  0.2508  0.2069  0.5630
  190SLPC    C221934   2.671   0.017   6.412  0.2598  0.3895  0.7767
  190SLPC    HS21935   2.593   0.093   6.434 -0.3023  0.4536 -1.2729
  190SLPC   O2121936   2.782   0.008   6.505 -0.0318  0.0141 -1.0290
  190SLPC   C2121937   2.800   0.111   6.591 -0.0660 -0.5660 -0.8707
  190SLPC   O2221938   2.723   0.209   6.600  0.4966 -0.3556  0.0424
  190SLPC   C2221939   2.933   0.083   6.670  0.8516 -0.5416 -0.5377
  190SLPC   H2R21940   2.930  -0.023   6.705  1.2497 -1.0032 -1.8225
  190SLPC   H2S21941   3.019   0.106   6.603  0.5013  1.0495 -0.4723
  190SLPC    C321942   2.591  -0.114   6.423  0.3478  0.3724 -0.4693
  190SLPC    HX21943   2.656  -0.199   6.393  1.3367  1.2092 -0.7425
  190SLPC    HY21944   2.511  -0.104   6.347 -1.9028 -1.7171  1.4455
  190SLPC   O3121945   2.539  -0.125   6.551 -0.2267  0.1476 -0.3881
  190SLPC   C3121946   2.445  -0.219   6.571  0.2610 -0.0922 -0.6152
  190SLPC   O3221947   2.392  -0.281   6.479 -0.0296 -0.6123 -0.0469
  190SLPC   C3221948   2.412  -0.219   6.718  0.1309  0.3730 -0.3666
  190SLPC   H2X21949   2.499  -0.179   6.774  0.2407  0.8341 -0.8615
  190SLPC   H2Y21950   2.389  -0.324   6.745 -0.6000  0.6632  0.1927
  190SLPC   C2321951   2.953   0.167   6.801  0.1079  0.0301 -0.5437
  190SLPC   H3R21952   2.922   0.271   6.779 -0.1441  0.3241  1.1234
  190SLPC   H3S21953   3.061   0.177   6.827 -0.5650  0.4995  2.4047
  190SLPC   C2421954   2.884   0.112   6.931 -0.9138  0.0119 -0.2915
  190SLPC   H4R21955   2.924   0.013   6.963 -0.0897  0.3759 -0.1931
  190SLPC   H4S21956   2.775   0.106   6.908 -0.8540 -1.3749 -0.3304
  190SLPC   C2521957   2.908   0.211   7.049  1.3152 -0.1436  0.0341
  190SLPC   H5R21958   2.916   0.314   7.010  0.4267 -0.5272 -1.2406
  190SLPC   H5S21959   3.007   0.181   7.089  0.1491 -2.5121  1.3814
  190SLPC   C2621960   2.809   0.187   7.168 -0.1853 -0.2819  0.0879
  190SLPC   H6R21961   2.794   0.077   7.178 -1.4107 -0.0486  1.1276
  190SLPC   H6S21962   2.705   0.223   7.152 -1.2735 -2.6407  1.3254
  190SLPC   C2721963   2.872   0.243   7.295 -0.2875  0.1154 -0.7890
  190SLPC   H7R21964   2.859   0.354   7.293  1.4908  0.4392  1.6911
  190SLPC   H7S21965   2.983   0.238   7.288 -0.0855  1.2330  1.0160
  190SLPC   C2821966   2.837   0.185   7.432 -0.9712 -0.6017  0.1820
  190SLPC   H8R21967   2.900   0.225   7.514  1.8300  0.0079 -2.0985
  190SLPC   H8S21968   2.871   0.080   7.422  2.2043  0.5080 -3.6642
  190SLPC   C2921969   2.691   0.195   7.453  0.1084  0.3361 -0.5541
  190SLPC   H9R21970   2.626   0.143   7.381 -1.6856  0.8394  0.6607
  190SLPC  C21021971   2.632   0.263   7.553  0.1058 -0.8127  0.2717
  190SLPC  H10R21972   2.524   0.280   7.547  0.2696  0.3260  0.2388
  190SLPC  C21121973   2.706   0.344   7.657 -0.2495  0.1134 -0.1004
  190SLPC  H11R21974   2.762   0.419   7.596  2.1283 -0.8329  0.7796
  190SLPC  H11S21975   2.783   0.286   7.713 -0.0275  0.9600  0.5000
  190SLPC  C21221976   2.631   0.427   7.760 -0.2118  0.0042 -0.0733
  190SLPC  H12R21977   2.654   0.534   7.766 -4.1511  0.9475  1.5505
  190SLPC  C21321978   2.549   0.382   7.854  0.3893 -0.4080  0.0501
  190SLPC  H13R21979   2.500   0.454   7.921 -0.0625  0.4687 -1.1874
  190SLPC  C21421980   2.493   0.244   7.865  0.2167  0.4638 -0.3403
  190SLPC  H14R21981   2.526   0.178   7.782  1.7968 -0.6523  1.0963
  190SLPC  H14S21982   2.382   0.247   7.873  0.3815  1.6673  3.0860
  190SLPC  C21521983   2.546   0.171   7.994 -0.1323  0.2081 -0.8572
  190SLPC  H15R21984   2.646   0.209   8.023 -0.3646  0.3250 -0.2026
  190SLPC  H15S21985   2.548   0.064   7.964 -2.4699  0.1625 -1.0625
  190SLPC  C21621986   2.446   0.176   8.114 -0.2161  0.0134  0.7553
  190SLPC  H16R21987   2.400   0.277   8.114  0.3486  0.2762  0.9471
  190SLPC  H16S21988   2.497   0.163   8.211  1.3499 -0.2279 -0.0683
  190SLPC  C21721989   2.338   0.065   8.109  0.3550  0.1513 -0.1061
  190SLPC  H17R21990   2.400  -0.027   8.100  2.3598  1.4860 -0.6434
  190SLPC  H17S21991   2.272   0.080   8.021 -0.3609 -0.5921  0.2846
  190SLPC  C21821992   2.258   0.050   8.243  1.1715  0.2269  0.1266
  190SLPC  H18R21993   2.200  -0.045   8.248  1.5717 -0.0255  0.0426
  190SLPC  H18S21994   2.189   0.136   8.254 -0.3523 -1.0321  0.8321
  190SLPC  H18T21995   2.320   0.055   8.335 -1.1629 -0.2221  1.7998
  190SLPC   C3321996   2.302  -0.118   6.736  1.6451  0.2291 -0.8882
  190SLPC   H3X21997   2.260  -0.072   6.644 -0.1977 -1.1506 -0.7961
  190SLPC   H3Y21998   2.345  -0.041   6.804 -1.6217  0.6283  0.9448
  190SLPC   C3421999   2.181  -0.176   6.815 -0.2106 -0.1966  0.2938
  190SLPC   H4X22000   2.156  -0.275   6.773 -3.7352 -0.1182  1.8410
  190SLPC   H4Y22001   2.094  -0.107   6.814 -0.7453 -0.8544  0.8750
  190SLPC   C3522002   2.211  -0.194   6.968  0.1924 -0.3508 -0.6429
  190SLPC   H5X22003   2.224  -0.090   7.005  1.4653  0.0565 -2.1116
  190SLPC   H5Y22004   2.310  -0.242   6.982  1.0627  1.7276  1.0082
  190SLPC   C3622005   2.101  -0.255   7.061 -0.2911  0.2659  0.6533
  190SLPC   H6X22006   2.097  -0.361   7.028 -1.7910  1.1826 -2.4405
  190SLPC   H6Y22007   2.005  -0.201   7.045 -1.1597 -1.7532 -1.5904
  190SLPC   C3722008   2.152  -0.245   7.202 -0.2330  0.6231  0.4288
  190SLPC   H7X22009   2.193  -0.142   7.216  0.6702  0.4207 -0.5987
  190SLPC   H7Y22010   2.235  -0.318   7.211 -1.1557 -0.9484 -2.4780
  190SLPC   C3822011   2.048  -0.275   7.312 -0.4395  0.1839  0.5507
  190SLPC   H8X22012   1.999  -0.369   7.278  1.7499 -1.5037  1.8558
  190SLPC   H8Y22013   1.963  -0.203   7.303  1.3204  2.1983 -1.0517
  190SLPC   C3922014   2.110  -0.280   7.447  0.1096  0.1737  0.1297
  190SLPC   H9X22015   2.143  -0.179   7.480  2.9320 -0.2596 -1.0583
  190SLPC   H9Y22016   2.203  -0.337   7.426  0.3950  1.0310 -1.0690
  190SLPC  C31022017   2.011  -0.331   7.540  0.0307 -0.4484 -0.0079
  190SLPC  H10X22018   1.964  -0.424   7.502 -0.1097 -0.3264 -0.1338
  190SLPC  H10Y22019   1.923  -0.263   7.544  0.2165 -0.1542 -0.8198
  190SLPC  C31122020   2.069  -0.343   7.685 -0.8683  0.2138  0.1843
  190SLPC  H11X22021   2.098  -0.242   7.721 -1.5746 -0.0503  1.5705
  190SLPC  H11Y22022   2.157  -0.410   7.674 -1.5251 -0.8306  0.9816
  190SLPC  C31222023   1.974  -0.421   7.779 -0.0794 -0.7420 -0.5345
  190SLPC  H12X22024   1.954  -0.522   7.738  1.2886 -0.9998 -0.6190
  190SLPC  H12Y22025   1.872  -0.378   7.786 -1.4797 -3.4472 -2.3464
  190SLPC  C31322026   2.027  -0.434   7.923  0.0780 -0.0200  0.1582
  190SLPC  H13X22027   2.137  -0.450   7.923 -0.1571 -1.8832 -0.9938
  190SLPC  H13Y22028   1.989  -0.528   7.968 -0.5828 -0.3100 -0.9533
  190SLPC  C31422029   1.993  -0.312   8.009  0.2717  0.0888 -0.3118
  190SLPC  H14X22030   1.882  -0.310   8.014  0.2181  1.3051 -1.4676
  190SLPC  H14Y22031   2.029  -0.222   7.956  2.6097  1.0534  2.6541
  190SLPC  C31522032   2.053  -0.314   8.150  0.0572 -0.3261 -0.4883
  190SLPC  H15X22033   2.062  -0.216   8.202  2.4584 -0.7682  0.0775
  190SLPC  H15Y22034   2.161  -0.343   8.144  0.0162 -0.6731  0.2755
  190SLPC  C31622035   1.990  -0.411   8.255  0.4400  0.0964  0.9184
  190SLPC  H16X22036   2.062  -0.450   8.329  0.7302  1.4501  1.3731
  190SLPC  H16Y22037   1.946  -0.498   8.202  2.0771  0.3778 -1.0161
  190SLPC  C31722038   1.876  -0.352   8.349 -0.7207  0.3700 -0.4010
  190SLPC  H17X22039   1.785  -0.337   8.288  0.4103  0.9390 -2.0016
  190SLPC  H17Y22040   1.913  -0.252   8.381  2.2414 -0.9007  0.5615
  190SLPC  C31822041   1.862  -0.440   8.468  0.4098 -0.1226  0.4202
  190SLPC  H18X22042   1.956  -0.452   8.526  1.3661  0.8813 -0.8964
  190SLPC  H18Y22043   1.837  -0.542   8.430  1.0127  0.7045 -2.4071
  190SLPC  H18Z22044   1.780  -0.397   8.531 -0.9948  1.0431 -2.0696
  191SLPC     N22045   3.051   2.329   5.718  0.3339  0.1985  0.1177
  191SLPC   C1322046   3.157   2.237   5.663  0.3255  0.2925  0.0124
  191SLPC  H13A22047   3.164   2.251   5.556 -1.4663 -0.7173 -0.2863
  191SLPC  H13B22048   3.251   2.257   5.712 -0.0079  1.3672  0.2592
  191SLPC  H13C22049   3.139   2.135   5.692  2.3591 -0.5553 -1.4702
  191SLPC   C1422050   3.068   2.461   5.646  0.2777  0.7769 -0.4822
  191SLPC  H14A22051   3.158   2.513   5.675  0.7190 -0.7113  0.9189
  191SLPC  H14B22052   3.052   2.463   5.539  1.8917 -1.1291 -0.8154
  191SLPC  H14C22053   2.991   2.529   5.681 -0.8733 -0.7808  0.1348
  191SLPC   C1522054   3.074   2.342   5.864 -0.0821 -0.4216  0.2571
  191SLPC  H15A22055   3.167   2.393   5.886 -0.7982  0.3562  1.6642
  191SLPC  H15B22056   3.007   2.417   5.903  1.0289  0.0145  1.3943
  191SLPC  H15C22057   3.055   2.248   5.913  0.2506 -1.0831 -0.8351
  191SLPC   C1222058   2.913   2.273   5.683 -0.1482 -0.7835 -0.2600
  191SLPC  H12A22059   2.896   2.188   5.748 -0.3069  0.6921  1.7083
  191SLPC  H12B22060   2.910   2.244   5.579  0.5889  1.6402 -1.0177
  191SLPC   C1122061   2.790   2.372   5.699 -0.5877  0.0667 -0.9208
  191SLPC  H11A22062   2.699   2.314   5.675 -0.2218 -0.3987 -1.2011
  191SLPC  H11B22063   2.800   2.440   5.612 -0.0042  0.7565 -0.3366
  191SLPC     P22064   2.793   2.583   5.853  0.3769 -0.0269  0.2114
  191SLPC   O1322065   2.929   2.631   5.811  0.5066  0.1241  0.3770
  191SLPC   O1422066   2.678   2.647   5.783 -0.1285 -0.3060  0.1390
  191SLPC   O1222067   2.783   2.423   5.834 -0.5183 -0.1550  0.3219
  191SLPC   O1122068   2.775   2.611   6.003 -0.1288  0.1215  0.2259
  191SLPC    C122069   2.838   2.527   6.100 -0.0453 -0.1850  0.3663
  191SLPC    HA22070   2.839   2.424   6.058  0.0110  0.0488 -0.2172
  191SLPC    HB22071   2.943   2.554   6.125  0.9738 -2.5926 -0.9569
  191SLPC    C222072   2.751   2.537   6.230 -0.3957  0.6651 -0.4548
  191SLPC    HS22073   2.650   2.506   6.196 -1.5904 -0.5355  3.6592
  191SLPC   O2122074   2.759   2.664   6.294 -0.6616  0.5494 -0.3263
  191SLPC   C2122075   2.651   2.740   6.293 -0.2674 -0.3972 -0.4384
  191SLPC   O2222076   2.539   2.706   6.259  0.2848  0.1230 -0.2975
  191SLPC   C2222077   2.680   2.870   6.367 -0.3307  0.4090 -0.0447
  191SLPC   H2R22078   2.782   2.861   6.411  1.3568  1.1800 -3.4154
  191SLPC   H2S22079   2.701   2.945   6.288  0.8324 -1.0769 -1.2022
  191SLPC    C322080   2.797   2.428   6.327 -0.1270  0.3699 -0.2811
  191SLPC    HX22081   2.900   2.444   6.364 -0.0392 -0.6673 -0.0428
  191SLPC    HY22082   2.815   2.340   6.261  1.3013  0.4322  0.0084
  191SLPC   O3122083   2.707   2.401   6.438 -0.4334  0.0613 -0.1851
  191SLPC   C3122084   2.733   2.444   6.557 -0.5767 -0.2804 -0.4322
  191SLPC   O3222085   2.840   2.491   6.599  0.1452  0.0339  0.2080
  191SLPC   C3222086   2.611   2.430   6.642 -0.4188  0.6455 -0.4902
  191SLPC   H2X22087   2.546   2.347   6.605 -2.5813  1.3390  1.4842
  191SLPC   H2Y22088   2.540   2.515   6.639 -2.7543 -0.7185  4.6284
  191SLPC   C2322089   2.568   2.902   6.466  0.1468  0.0740  0.0702
  191SLPC   H3R22090   2.478   2.949   6.421  0.7149 -0.7586 -2.0556
  191SLPC   H3S22091   2.604   2.983   6.533 -0.7004 -0.5631  1.3217
  191SLPC   C2422092   2.549   2.783   6.559  0.0116 -0.2476  0.2396
  191SLPC   H4R22093   2.641   2.738   6.604 -1.4288 -3.1338  0.5626
  191SLPC   H4S22094   2.501   2.691   6.519  1.5778 -2.3968  2.8777
  191SLPC   C2522095   2.454   2.820   6.674  0.5642  0.3727  0.4870
  191SLPC   H5R22096   2.407   2.733   6.725  0.3176  0.5074  0.4906
  191SLPC   H5S22097   2.371   2.877   6.627  1.5686  1.9594  0.5683
  191SLPC   C2622098   2.532   2.893   6.780 -0.2525 -0.6043  0.3164
  191SLPC   H6R22099   2.574   2.977   6.720 -0.1387  0.5311  1.9053
  191SLPC   H6S22100   2.617   2.844   6.833 -0.2790  0.8434  1.7806
  191SLPC   C2722101   2.452   2.949   6.898  0.3258 -0.6146 -0.5721
  191SLPC   H7R22102   2.424   2.862   6.962  0.6125 -0.1967  0.1293
  191SLPC   H7S22103   2.365   2.989   6.841  0.5392 -2.4676 -2.2987
  191SLPC   C2822104   2.505   3.069   6.982  0.4536  0.8406  0.3485
  191SLPC   H8R22105   2.598   3.032   7.032 -0.4876 -0.6198  1.0828
  191SLPC   H8S22106   2.428   3.097   7.056 -2.4194 -0.3101 -2.0119
  191SLPC   C2922107   2.542   3.186   6.895 -0.3846 -0.1936  0.0841
  191SLPC   H9R22108   2.579   3.167   6.793 -0.9085  1.6068 -0.4843
  191SLPC  C21022109   2.534   3.313   6.932 -0.0686  0.3590 -0.4764
  191SLPC  H10R22110   2.567   3.394   6.865 -0.0233  0.4529 -0.3407
  191SLPC  C21122111   2.484   3.366   7.065 -0.0074 -0.7690 -0.4822
  191SLPC  H11R22112   2.401   3.301   7.101 -0.5475  0.2585  0.1941
  191SLPC  H11S22113   2.431   3.463   7.048  0.7859 -0.1596  0.4114
  191SLPC  C21222114   2.580   3.366   7.185 -0.7249 -0.7070 -0.2752
  191SLPC  H12R22115   2.688   3.352   7.175 -0.4806  0.6161  0.2015
  191SLPC  C21322116   2.541   3.387   7.310  0.5995 -0.4225 -0.1129
  191SLPC  H13R22117   2.611   3.389   7.394  0.0184  0.2360  0.3670
  191SLPC  C21422118   2.394   3.421   7.347  0.0596 -0.0310  0.1697
  191SLPC  H14R22119   2.343   3.467   7.260  0.5648 -1.6152 -1.0206
  191SLPC  H14S22120   2.398   3.497   7.428  1.3981  1.4372 -1.1927
  191SLPC  C21522121   2.312   3.296   7.384 -0.6531  0.0288  0.0752
  191SLPC  H15R22122   2.332   3.217   7.308  3.3190  1.0742 -0.1885
  191SLPC  H15S22123   2.213   3.343   7.366 -1.4175 -2.0705 -1.7679
  191SLPC  C21622124   2.334   3.244   7.526  0.2629  0.8348 -0.4759
  191SLPC  H16R22125   2.300   3.324   7.595  1.8342  0.9760  0.1679
  191SLPC  H16S22126   2.445   3.244   7.532  0.2594  1.5916 -0.3160
  191SLPC  C21722127   2.261   3.112   7.550  0.0384 -0.3937 -0.3447
  191SLPC  H17R22128   2.302   3.035   7.481 -0.0765 -1.0823  0.3449
  191SLPC  H17S22129   2.153   3.126   7.530 -0.0323 -1.0179 -0.4376
  191SLPC  C21822130   2.283   3.060   7.694  0.5397  0.2330 -0.3483
  191SLPC  H18R22131   2.391   3.043   7.716  0.4088  0.1216  0.2497
  191SLPC  H18S22132   2.225   2.969   7.722  0.4913  0.4667  0.3343
  191SLPC  H18T22133   2.253   3.137   7.769  0.6998 -3.8569  4.5276
  191SLPC   C3322134   2.634   2.398   6.792 -0.1220 -0.4762  0.0798
  191SLPC   H3X22135   2.743   2.400   6.811  0.0790  1.3734 -0.9566
  191SLPC   H3Y22136   2.595   2.298   6.820 -3.4054  1.0261  1.3432
  191SLPC   C3422137   2.581   2.501   6.888  0.0334 -0.8049  0.5303
  191SLPC   H4X22138   2.476   2.528   6.865  0.7605  0.9521 -1.0039
  191SLPC   H4Y22139   2.638   2.594   6.866  0.3371 -1.1903 -0.3637
  191SLPC   C3522140   2.581   2.458   7.040 -0.9303 -1.1156 -0.0244
  191SLPC   H5X22141   2.562   2.553   7.095  0.3682 -0.7037 -0.2373
  191SLPC   H5Y22142   2.685   2.425   7.061 -0.8690 -0.6865  0.3588
  191SLPC   C3622143   2.494   2.335   7.077 -0.5116 -0.7694 -0.1372
  191SLPC   H6X22144   2.548   2.250   7.030  2.1988 -0.2627  1.8312
  191SLPC   H6Y22145   2.390   2.335   7.036 -0.2428 -2.5983 -0.9181
  191SLPC   C3722146   2.508   2.298   7.229  0.1821 -0.4165  0.2408
  191SLPC   H7X22147   2.455   2.384   7.274  0.1869  0.3843 -1.2405
  191SLPC   H7Y22148   2.609   2.305   7.274  0.0765 -1.2688  0.6333
  191SLPC   C3822149   2.453   2.161   7.268 -0.4120  0.5930  0.7286
  191SLPC   H8X22150   2.530   2.081   7.276 -0.3406  0.0864 -3.2518
  191SLPC   H8Y22151   2.384   2.130   7.187  2.0981 -2.9321 -0.2696
  191SLPC   C3922152   2.374   2.177   7.397 -0.3846 -0.2736  0.0349
  191SLPC   H9X22153   2.321   2.084   7.428 -0.7093  0.0967  0.6220
  191SLPC   H9Y22154   2.290   2.248   7.379 -1.5737 -1.3654  1.0572
  191SLPC  C31022155   2.470   2.213   7.511  0.4866  0.2557  0.2690
  191SLPC  H10X22156   2.564   2.257   7.473  0.2999  1.1714  0.8312
  191SLPC  H10Y22157   2.505   2.113   7.545 -0.7102  0.5483  2.5588
  191SLPC  C31122158   2.396   2.299   7.619 -0.3234  0.2376  0.1974
  191SLPC  H11X22159   2.325   2.375   7.580 -1.7892 -1.0407  0.2621
  191SLPC  H11Y22160   2.477   2.351   7.674  1.6105  0.0432 -2.3074
  191SLPC  C31222161   2.306   2.222   7.730  0.4085 -0.1118 -0.1713
  191SLPC  H12X22162   2.364   2.152   7.794  0.3598  0.4020  0.4529
  191SLPC  H12Y22163   2.238   2.151   7.678  0.8035  1.2426 -2.7279
  191SLPC  C31322164   2.245   2.321   7.829  0.2179  0.3508  0.0993
  191SLPC  H13X22165   2.178   2.270   7.902  1.3532 -1.3633  0.0131
  191SLPC  H13Y22166   2.195   2.406   7.778 -1.4785 -0.0147  1.1060
  191SLPC  C31422167   2.351   2.383   7.923 -0.0342  0.2700  0.4716
  191SLPC  H14X22168   2.407   2.466   7.876 -1.0074  1.3551  1.1771
  191SLPC  H14Y22169   2.416   2.300   7.958 -1.1792 -1.3696 -1.0438
  191SLPC  C31522170   2.287   2.439   8.046  0.3657  0.0995  0.3619
  191SLPC  H15X22171   2.200   2.379   8.083  0.4396  0.2085  0.7226
  191SLPC  H15Y22172   2.249   2.537   8.012  1.0868  0.9816  1.9553
  191SLPC  C31622173   2.388   2.463   8.161 -0.5865  0.0516 -0.9622
  191SLPC  H16X22174   2.408   2.369   8.217 -1.0367  1.3998  1.6145
  191SLPC  H16Y22175   2.330   2.514   8.240  0.7568  0.5066 -0.2404
  191SLPC  C31722176   2.530   2.512   8.120  0.6465  0.5055  0.5820
  191SLPC  H17X22177   2.524   2.605   8.060 -2.0171 -0.2253 -0.4271
  191SLPC  H17Y22178   2.591   2.444   8.057  0.6704  0.4628  0.6508
  191SLPC  C31822179   2.597   2.553   8.252  0.2468  0.5707  0.6851
  191SLPC  H18X22180   2.702   2.587   8.238 -0.4215  2.4808 -0.0170
  191SLPC  H18Y22181   2.579   2.477   8.331  1.1197  2.5596  2.9345
  191SLPC  H18Z22182   2.544   2.645   8.284  1.4391  1.8126 -0.7340
  192SLPC     N22183   3.214   3.316   6.307 -0.4359 -0.6046 -0.4626
  192SLPC   C1322184   3.165   3.297   6.168  0.2908  0.1896  0.4655
  192SLPC  H13A22185   3.079   3.232   6.166  0.8162 -0.5207  0.4485
  192SLPC  H13B22186   3.137   3.394   6.130 -1.5903 -0.6589 -0.4458
  192SLPC  H13C22187   3.246   3.267   6.103 -3.9297 -1.1642 -4.9377
  192SLPC   C1422188   3.253   3.181   6.360 -0.1543  0.2461 -0.3652
  192SLPC  H14A22189   3.179   3.104   6.341  0.6821 -0.4124 -1.0484
  192SLPC  H14B22190   3.342   3.142   6.313 -0.4965  0.5978 -1.3230
  192SLPC  H14C22191   3.279   3.182   6.465  0.5302  3.4387 -0.4761
  192SLPC   C1522192   3.094   3.358   6.388  0.4185 -0.5165  0.9412
  192SLPC  H15A22193   3.025   3.276   6.379  1.0736 -0.8374 -2.2259
  192SLPC  H15B22194   3.133   3.374   6.487  1.4955  1.0657  0.3091
  192SLPC  H15C22195   3.057   3.452   6.351 -0.2959 -1.0313  0.3263
  192SLPC   C1222196   3.331   3.412   6.310  0.2035  0.2207 -0.6380
  192SLPC  H12A22197   3.319   3.503   6.251  0.3178 -0.5840 -1.9496
  192SLPC  H12B22198   3.405   3.354   6.257  0.4799 -0.3954  0.4154
  192SLPC   C1122199   3.393   3.451   6.441  0.3486  0.4321  0.2176
  192SLPC  H11A22200   3.493   3.499   6.440  1.7167 -2.0654  2.3405
  192SLPC  H11B22201   3.412   3.354   6.493 -1.5131  0.6563  1.3944
  192SLPC     P22202   3.241   3.662   6.476 -0.7816 -0.1548 -0.5817
  192SLPC   O1322203   3.288   3.694   6.342 -0.2255  0.3679  0.8141
  192SLPC   O1422204   3.099   3.652   6.503 -0.3142 -0.0033 -0.0214
  192SLPC   O1222205   3.301   3.521   6.517 -0.9670 -0.3648  0.0955
  192SLPC   O1122206   3.313   3.766   6.569  0.3622 -1.1152 -0.3678
  192SLPC    C122207   3.352   3.725   6.703  0.5347 -0.0171 -0.2274
  192SLPC    HA22208   3.423   3.641   6.689 -1.3039 -1.7401  0.3479
  192SLPC    HB22209   3.400   3.815   6.748 -2.2458  1.0564  0.7795
  192SLPC    C222210   3.242   3.678   6.793 -0.7249 -0.3482 -0.0803
  192SLPC    HS22211   3.180   3.593   6.759 -2.0530  0.6682 -0.3076
  192SLPC   O2122212   3.151   3.787   6.804 -0.4631 -0.0147  0.0619
  192SLPC   C2122213   3.023   3.775   6.840  0.9363 -0.0375 -0.2222
  192SLPC   O2222214   2.961   3.666   6.839 -0.1339  0.5603  0.5499
  192SLPC   C2222215   2.969   3.908   6.869 -0.3933  0.4808 -0.0124
  192SLPC   H2R22216   3.050   3.980   6.896  0.5107  0.4738 -2.4599
  192SLPC   H2S22217   2.918   3.943   6.777  2.4087  0.5590 -1.6479
  192SLPC    C322218   3.310   3.646   6.929 -0.0962 -0.4876 -0.0838
  192SLPC    HX22219   3.367   3.736   6.958 -0.8626  1.2317 -3.3898
  192SLPC    HY22220   3.386   3.565   6.922  2.0134  1.3439  0.4635
  192SLPC   O3122221   3.215   3.612   7.039 -0.2185 -0.0023  0.0508
  192SLPC   C3122222   3.185   3.483   7.046  0.0549  0.7367 -0.0182
  192SLPC   O3222223   3.201   3.401   6.959  0.2546 -0.3459 -0.6221
  192SLPC   C3222224   3.110   3.463   7.168 -0.0672  0.5759  0.3173
  192SLPC   H2X22225   3.003   3.443   7.147  0.7038 -1.0151 -2.6833
  192SLPC   H2Y22226   3.115   3.557   7.227  2.8047  0.6882  0.0669
  192SLPC   C2322227   2.869   3.901   6.984 -0.6104  0.0965  0.1067
  192SLPC   H3R22228   2.779   3.841   6.958  0.8191 -2.5497  0.8647
  192SLPC   H3S22229   2.852   4.010   6.996  0.8776  0.4453 -0.7315
  192SLPC   C2422230   2.929   3.853   7.115  0.1769 -0.0997 -0.7545
  192SLPC   H4R22231   2.998   3.929   7.158 -0.9548 -0.0276  1.0415
  192SLPC   H4S22232   2.977   3.755   7.094 -3.1770 -1.6212 -2.1027
  192SLPC   C2522233   2.814   3.834   7.219  0.6855 -0.3703 -0.2429
  192SLPC   H5R22234   2.755   3.741   7.200 -1.7014  0.3842  2.6992
  192SLPC   H5S22235   2.748   3.921   7.239  0.5672 -0.8351  1.5363
  192SLPC   C2622236   2.879   3.807   7.362  0.1369 -0.0136  0.7685
  192SLPC   H6R22237   2.939   3.895   7.394  1.4888 -1.0794  1.2642
  192SLPC   H6S22238   2.940   3.716   7.344 -2.0040 -1.4661  0.4603
  192SLPC   C2722239   2.764   3.786   7.459  0.1020  0.1785  0.1219
  192SLPC   H7R22240   2.681   3.721   7.423  0.7405 -0.4258 -0.2902
  192SLPC   H7S22241   2.718   3.881   7.492 -2.0115 -0.1600 -1.6233
  192SLPC   C2822242   2.801   3.719   7.595 -0.3819  1.1984  0.0649
  192SLPC   H8R22243   2.718   3.746   7.663  0.5011 -1.4252  2.3936
  192SLPC   H8S22244   2.893   3.771   7.632  0.7451 -1.1494  0.7563
  192SLPC   C2922245   2.832   3.570   7.582  1.0537 -0.1228  0.1454
  192SLPC   H9R22246   2.877   3.551   7.484 -2.4137  0.5807 -1.7527
  192SLPC  C21022247   2.798   3.470   7.665  0.4419 -0.1134  0.2962
  192SLPC  H10R22248   2.836   3.369   7.640 -1.5404 -0.8888  0.2215
  192SLPC  C21122249   2.722   3.473   7.798  0.2922  0.3573  0.5657
  192SLPC  H11R22250   2.686   3.577   7.811 -0.9976 -0.1581  1.3208
  192SLPC  H11S22251   2.792   3.458   7.883  0.2475 -1.2887  0.3577
  192SLPC  C21222252   2.599   3.379   7.803 -1.2369  0.4739 -0.3944
  192SLPC  H12R22253   2.527   3.396   7.723 -1.4422 -1.1150 -0.5836
  192SLPC  C21322254   2.579   3.279   7.889 -0.3186  0.8725 -0.8862
  192SLPC  H13R22255   2.484   3.225   7.873  0.3196 -0.1507 -1.3494
  192SLPC  C21422256   2.666   3.222   8.001  0.3908 -0.6129  0.7284
  192SLPC  H14R22257   2.649   3.282   8.093 -0.7954  1.0103 -0.4734
  192SLPC  H14S22258   2.772   3.235   7.970  0.4043 -1.8961  0.1695
  192SLPC  C21522259   2.641   3.071   8.018 -0.2615 -0.2282 -0.2080
  192SLPC  H15R22260   2.722   3.026   8.079 -1.8242 -3.2143 -0.1367
  192SLPC  H15S22261   2.641   3.024   7.917  0.4994  1.5068 -1.0501
  192SLPC  C21622262   2.513   3.057   8.099  1.0175  0.2994 -0.6386
  192SLPC  H16R22263   2.432   3.106   8.042  0.2343 -0.0852  0.1291
  192SLPC  H16S22264   2.515   3.121   8.190 -3.4980 -0.5268  0.2801
  192SLPC  C21722265   2.473   2.915   8.132 -0.4668  0.5965 -0.8969
  192SLPC  H17R22266   2.472   2.860   8.035 -0.2285 -0.3007 -0.4019
  192SLPC  H17S22267   2.551   2.863   8.192  1.2608 -0.5488 -3.9180
  192SLPC  C21822268   2.340   2.915   8.198 -0.8677  0.1048  0.5005
  192SLPC  H18R22269   2.324   2.812   8.237  0.5717 -1.1759 -2.0520
  192SLPC  H18S22270   2.254   2.947   8.136 -0.0233 -0.2979 -0.9292
  192SLPC  H18T22271   2.342   2.982   8.287 -0.3135  1.2124 -0.3265
  192SLPC   C3322272   3.167   3.352   7.269 -0.6957 -0.1741 -0.0872
  192SLPC   H3X22273   3.269   3.381   7.300 -0.0653 -2.6368  0.3592
  192SLPC   H3Y22274   3.178   3.264   7.202  0.9404  0.2640 -0.4334
  192SLPC   C3422275   3.073   3.326   7.385 -0.2237  0.2801 -0.4510
  192SLPC   H4X22276   2.972   3.290   7.355  0.0221  0.3851 -1.4140
  192SLPC   H4Y22277   3.050   3.420   7.440 -1.1712 -1.0255  1.5157
  192SLPC   C3522278   3.125   3.211   7.479  0.0916 -0.8857 -0.5437
  192SLPC   H5X22279   3.114   3.113   7.429 -4.6636 -0.7106 -0.2973
  192SLPC   H5Y22280   3.047   3.223   7.557  1.2583  2.7942  0.2705
  192SLPC   C3622281   3.256   3.243   7.552 -0.1730  0.1916  0.9682
  192SLPC   H6X22282   3.272   3.352   7.540 -1.2135  0.5287  2.3362
  192SLPC   H6Y22283   3.328   3.178   7.498 -1.3029 -1.1197  0.9755
  192SLPC   C3722284   3.261   3.205   7.696  0.6579  0.0732  0.6101
  192SLPC   H7X22285   3.368   3.201   7.726  0.4647  0.8931  1.4821
  192SLPC   H7Y22286   3.233   3.098   7.708 -0.5346  0.1259 -1.2377
  192SLPC   C3822287   3.179   3.296   7.790 -0.4172 -0.3907  1.1891
  192SLPC   H8X22288   3.086   3.338   7.748 -0.2799 -1.1046  0.1258
  192SLPC   H8Y22289   3.243   3.384   7.811  0.6754 -0.5997 -0.9494
  192SLPC   C3922290   3.131   3.216   7.914 -0.5859 -0.9542  0.2611
  192SLPC   H9X22291   3.229   3.180   7.953 -0.0069 -1.4708 -1.5730
  192SLPC   H9Y22292   3.080   3.120   7.891 -1.7695  0.0404 -1.4719
  192SLPC  C31022293   3.070   3.294   8.034 -0.1753  0.1685  0.0170
  192SLPC  H10X22294   2.980   3.347   7.995 -0.2716 -0.5718 -0.8030
  192SLPC  H10Y22295   3.145   3.362   8.080 -0.2064 -1.1855  2.2090
  192SLPC  C31122296   3.022   3.201   8.149 -0.1242 -0.5400 -0.5198
  192SLPC  H11X22297   3.109   3.143   8.186  0.1910  1.7459  2.7445
  192SLPC  H11Y22298   2.945   3.135   8.103  0.0131 -1.2432  0.2468
  192SLPC  C31222299   2.958   3.290   8.264 -0.2353  0.2047  0.4279
  192SLPC  H12X22300   2.877   3.348   8.216 -0.0889 -0.1278 -0.2316
  192SLPC  H12Y22301   3.032   3.357   8.314 -1.0816  0.3253  1.5592
  192SLPC  C31322302   2.906   3.202   8.372 -0.4508  0.6658  0.2381
  192SLPC  H13X22303   2.985   3.159   8.438  1.2949  1.9793 -0.9169
  192SLPC  H13Y22304   2.858   3.119   8.315  0.8220  1.2145 -1.7048
  192SLPC  C31422305   2.794   3.263   8.453  0.0892 -0.1091  0.2398
  192SLPC  H14X22306   2.731   3.185   8.501 -1.1272  1.3234  1.0435
  192SLPC  H14Y22307   2.726   3.320   8.386  1.3618 -0.2467 -1.2104
  192SLPC  C31522308   2.845   3.362   8.561  0.2160  0.0514 -0.1259
  192SLPC  H15X22309   2.916   3.436   8.518  0.2262 -1.3304 -2.7072
  192SLPC  H15Y22310   2.905   3.311   8.638  1.0932  0.8103 -0.2889
  192SLPC  C31622311   2.734   3.443   8.634  0.2633 -0.2111 -0.4038
  192SLPC  H16X22312   2.676   3.366   8.689  0.0049 -0.6416 -1.2648
  192SLPC  H16Y22313   2.684   3.488   8.545 -1.4075 -1.6719 -0.2708
  192SLPC  C31722314   2.791   3.560   8.719 -0.4892  0.1884 -0.0765
  192SLPC  H17X22315   2.701   3.603   8.768 -1.6940 -1.8366 -0.4028
  192SLPC  H17Y22316   2.825   3.643   8.652  1.9561 -1.4895 -1.0742
  192SLPC  C31822317   2.902   3.539   8.824  0.3157  0.0537  0.4635
  192SLPC  H18X22318   2.999   3.528   8.772 -0.6040 -4.1258 -0.7523
  192SLPC  H18Y22319   2.885   3.443   8.878  2.8603 -1.2350 -0.8266
  192SLPC  H18Z22320   2.894   3.625   8.895 -0.6838  1.5638 -1.3936
  193SOD    SOD22321   4.862   3.869   1.706  0.7089 -0.2545  0.0910
  194SOD    SOD22322   0.154   1.453   0.987  0.3854 -0.2826 -0.1343
  195SOD    SOD22323   6.368   5.909  10.976  0.3887 -0.3946  0.5362
  196SOD    SOD22324   1.583   3.707  10.829 -0.4725  0.0298 -0.1951
  197SOD    SOD22325   3.911   1.323  10.969 -0.2523 -0.7381 -0.0487
  198SOD    SOD22326   1.833   6.738   2.421  0.1262 -0.2945 -0.4917
  199SOD    SOD22327   3.597   2.307   4.731 -0.1830 -0.0422 -0.0882
  200SOD    SOD22328   1.777   4.728  15.194 -0.0534  0.7307 -0.2403
  201SOD    SOD22329   3.151   2.798   4.984 -0.1267 -0.1199  0.2222
  202SOD    SOD22330   2.958   2.909  14.956 -0.2015 -0.6506  0.3981
  203SOD    SOD22331   6.042   2.248  15.032 -0.1242 -0.1518 -0.1957
  204SOD    SOD22332   5.888   6.760   4.310 -0.2233 -0.4729  0.0957
  205SOD    SOD22333   6.378   0.372  14.405 -0.2199  0.5233 -0.2189
  206SOD    SOD22334   6.596   1.897  10.543 -0.0821  0.4313  0.0885
  207SOD    SOD22335   0.916   3.278   0.853  0.7033  0.3487 -0.1293
  208SOD    SOD22336   2.505   3.055  15.825  0.1788 -0.4720 -0.2334
  209SOD    SOD22337   0.129   1.689   5.816 -0.0496 -0.1378  0.4630
  210SOD    SOD22338   5.417   3.303  14.917  0.2008  0.1433  0.4243
  211SOD    SOD22339   0.473   6.117  15.260  0.4675 -0.1962 -0.2819
  212SOD    SOD22340   0.181   2.008  16.396 -0.3787  0.0382 -0.3834
  213SOD    SOD22341   4.116   4.865  11.024 -0.0389 -0.2262  0.2731
  214SOD    SOD22342   1.559   2.946   4.337  0.2489 -0.0535 -0.3589
  215SOD    SOD22343   3.370   6.478   0.971  0.4402 -0.0655  0.4682
  216SOD    SOD22344   4.117   4.618  16.289 -0.3871 -0.3964  0.0071
  217SOD    SOD22345   2.761   3.890   4.563  0.5664  0.4647  0.3844
  218SOD    SOD22346   1.796   6.453  11.758 -0.3883  0.6082 -0.5502
  219SOD    SOD22347   5.237   2.963  16.872  0.0741  0.5693  0.3198
  220SOD    SOD22348   4.046   5.566  16.803  0.0936  0.1554  0.1620
  221SOD    SOD22349   6.687   4.033   4.028  0.4407  0.0201  0.3628
  222SOD    SOD22350   0.828   4.340  14.520 -0.3646  0.2655  0.1079
  223SOD    SOD22351   2.228   1.636  16.027  0.0895  0.6314  0.0497
  224SOD    SOD22352   6.130   6.094   3.213  0.0119 -0.3666  0.1966
  225SOD    SOD22353   2.613   6.510  13.843  0.4668  0.2223 -0.0741
  226SOD    SOD22354   1.084   3.401  16.104  0.5732  0.4067  0.3568
  227SOD    SOD22355   4.481   4.288   3.096  0.2768 -0.5520 -0.2189
  228SOD    SOD22356   4.129   6.713  15.339  0.5610 -0.0897  0.4626
  229SOD    SOD22357   5.709   2.874  10.856  0.3403 -0.6139 -0.0409
  230SOD    SOD22358   0.165   6.112   4.905 -0.5732 -0.1300  0.3906
  231SOD    SOD22359   5.985   0.362   2.465  0.5787  0.1617  0.2479
  232SOD    SOD22360   3.415   4.936  14.463  0.2844 -0.0483  0.4000
  233SOD    SOD22361   4.456   3.171  10.855 -0.0896 -0.0637 -0.2125
  234SOD    SOD22362   5.132   6.185   1.527  0.0527 -0.2789 -0.5193
  235SOD    SOD22363   3.829   3.322  10.981  0.4175 -0.5719 -0.6377
  236SOD    SOD22364   5.031   2.479  12.666 -0.4364  0.0964 -0.3771
  237SOD    SOD22365   3.621   2.279   6.279  0.3831 -0.0637 -0.0420
  238SOD    SOD22366   3.626   4.510   0.747 -0.0488  0.1059 -0.2603
  239SOD    SOD22367   0.023   1.884  13.032 -0.1285 -0.1496  0.2764
  240SOD    SOD22368   0.090   2.301   5.871 -0.2258 -0.0630  0.1344
  241SOD    SOD22369   1.685   2.956  13.499  0.2474  0.1550 -0.5433
  242SOD    SOD22370   6.480   0.667   5.433 -0.2548 -0.1572  0.1531
  243SOD    SOD22371   1.605   2.441   6.108  0.3505 -0.2166  0.4808
  244SOD    SOD22372   3.433   5.287  13.515  0.1789 -0.5539  0.2721
  245SOD    SOD22373   0.886   2.298   5.069 -0.7077  0.2875  0.0168
  246SOD    SOD22374   4.504   1.659   3.967  0.6292 -0.0138 -0.0176
  247SOD    SOD22375   0.796   3.241  10.810 -0.1104 -0.0518 -0.1017
  248SOD    SOD22376   0.531   5.629   2.595  0.2841  0.8510 -0.2950
  249SOD    SOD22377   5.787   4.476  10.704 -0.8115  0.2286  0.1300
  250SOD    SOD22378   1.930   2.084   3.595 -0.0699 -0.0631  0.0792
  251SOD    SOD22379   1.584   0.857  16.249 -0.0207 -0.5019  0.4168
  252SOD    SOD22380   4.086   4.224  15.363 -0.1057  0.0224  0.6491
  253SOD    SOD22381   5.354   0.477   3.095 -0.4717 -0.2306  0.2664
  254SOD    SOD22382   6.343   6.194   4.917 -0.1046 -0.0949 -0.3917
  255SOD    SOD22383   1.425   4.357  12.794  0.1121  0.0291 -0.1277
  256SOD    SOD22384   4.342   3.674   5.043  0.3931  0.0738  0.0137
  257SOD    SOD22385   1.002   1.883   0.409 -0.4855 -0.2571 -0.2732
  258SOD    SOD22386   6.360   0.309  11.881 -0.3586 -0.6587 -0.1595
  259SOD    SOD22387   5.748   4.624  13.699  0.3256  0.2615  0.1593
  260SOD    SOD22388   2.207   6.318   4.562  0.2013 -0.5117 -0.2496
  261SOD    SOD22389   0.261   6.660  11.883  0.0113  0.1614 -0.2156
  262SOD    SOD22390   6.252   4.143   1.666  0.3122  0.1829  0.4518
  263SOD    SOD22391   1.362   1.125   4.603  0.0653  0.0850 -0.2375
  264SOD    SOD22392   6.704   6.767   5.838 -0.1683  0.3851 -0.1830
  265SOD    SOD22393   5.429   4.056  12.099 -0.1717 -0.1248  0.1537
  266CLA    CLA22394   3.808   4.882  15.554 -0.2208  0.1221 -0.0227
  267CLA    CLA22395   0.281   0.807  14.986 -0.1262  0.6260 -0.1543
  268CLA    CLA22396   1.434   0.290   1.834 -0.2154  0.3786 -0.3091
  269CLA    CLA22397   4.757   5.983   1.454 -0.0141 -0.7339  0.0331
  270CLA    CLA22398   2.211   0.861   0.852  0.3934 -0.0894 -0.2659
  271CLA    CLA22399   1.618   0.576   2.968  0.6313 -0.1295  0.0924
  272CLA    CLA22400   0.981   4.690  14.747  0.0531 -0.2701  0.1399
  273CLA    CLA22401   1.078   3.934  16.001  0.0770  0.1262 -0.3258
  274CLA    CLA22402   2.113   3.756  13.742 -0.1473 -0.2304  0.0278
  275CLA    CLA22403   4.587   0.930   2.582  0.1590  0.0581  0.1045
  276CLA    CLA22404   3.630   0.459  14.504 -0.2434 -0.1795  0.2171
  277CLA    CLA22405   5.927   2.042  16.825  0.2290 -0.4331 -0.1402
  278CLA    CLA22406   0.095   2.491  15.930 -0.0594 -0.1672  0.1938
  279CLA    CLA22407   1.714   2.287  16.634 -0.0133 -0.0845 -0.2928
  280CLA    CLA22408   0.771   5.527   2.688  0.0273  0.3076  0.3635
  281CLA    CLA22409   2.285   0.375  11.227 -0.4381 -0.1817 -0.2412
  282CLA    CLA22410   4.106   5.117   1.180 -0.3048 -0.0527  0.2477
  283CLA    CLA22411   0.103   5.023  12.145 -0.3275  0.1741 -0.2296
  284CLA    CLA22412   0.973   0.869  16.547  0.1521 -0.6674 -0.2804
  285CLA    CLA22413   4.115   6.656  13.282  0.0755 -0.0468  0.4835
  286CLA    CLA22414   3.383   0.959   1.106  0.3073 -0.5694  0.2156
  287CLA    CLA22415   3.395   3.104   3.820 -0.0744  0.2413 -0.1483
  288CLA    CLA22416   3.142   5.132  14.823  0.5441  0.2398  0.0496
  289CLA    CLA22417   6.605   3.594  15.104  0.0453 -0.0094  0.3560
  290CLA    CLA22418   5.437   1.170   3.898  0.0905  0.2019  0.1102
  291CLA    CLA22419   0.325   6.142   4.214  0.1388  0.0963 -0.0629
  292CLA    CLA22420   2.096   5.378   1.963 -0.2086 -0.0585  0.2488
  293CLA    CLA22421   5.763   0.387   2.832 -0.0910  0.2022  0.1342
  294CLA    CLA22422   5.274   5.159  12.548  0.1244 -0.1259 -0.1588
  295CLA    CLA22423   1.265   0.573   3.971 -0.0790  0.3509  0.2326
  296CLA    CLA22424   6.013   0.990   4.358 -0.1198 -0.1728 -0.0682
  297CLA    CLA22425   0.132   0.047   5.089 -0.2674 -0.1681 -0.2105
  298CLA    CLA22426   6.351   4.012  11.821 -0.0578 -0.1463 -0.1182
  299CLA    CLA22427   1.093   5.125   1.295 -0.1511  0.4172  0.1983
  300CLA    CLA22428   3.071   3.666   5.295  0.0325 -0.0362 -0.1866
  301CLA    CLA22429   5.873   0.476   0.684 -0.2554  0.1138 -0.2790
  302CLA    CLA22430   0.843   1.303   4.475  0.2413  0.2465 -0.1798
  303CLA    CLA22431   4.217   0.222  15.651  0.2707  0.1204 -0.3653
  304CLA    CLA22432   6.675   2.815   1.823  0.2566 -0.3220  0.2650
  305CLA    CLA22433   6.609   3.356   0.051 -0.1091  0.0319 -0.3554
  306CLA    CLA22434   2.899   2.517  14.774  0.3366  0.2974  0.3555
  307CLA    CLA22435   6.606   0.276  11.770  0.2219 -0.0672 -0.1826
  308CLA    CLA22436   4.328   6.750   5.656  0.4510  0.0091  0.0772
  309CLA    CLA22437   3.761   6.790   4.134  0.0384  0.4907  0.1360
  310CLA    CLA22438   0.791   5.508  15.330 -0.0338 -0.1917  0.0663
  311CLA    CLA22439   2.790   3.004  13.515  0.0518 -0.2376 -0.0677
  312CLA    CLA22440   5.211   3.459   4.769  0.3495  0.0695 -0.0876
  313CLA    CLA22441   4.571   4.321  16.128 -0.1865  0.0894  0.3097
  314CLA    CLA22442   3.858   6.319   0.979  0.0062  0.3254  0.4988
  315CLA    CLA22443   0.001   2.014  14.802 -0.0936  0.3435 -0.3006
  316CLA    CLA22444   2.438   5.708  15.315 -0.0213  0.2388 -0.0120
  317CLA    CLA22445   1.958   0.081  15.805 -0.0021 -0.2021  0.4167
  318CLA    CLA22446   1.848   6.204  14.076  0.4693 -0.0651  0.0107
  319TIP3   OH222447   2.036   1.271  16.125  0.3444  0.2907  0.1119
  319TIP3    H122448   2.034   1.367  16.129 -0.4127  0.2470  1.2027
  319TIP3    H222449   1.959   1.247  16.074  0.2860  0.2503  0.2183
  320TIP3   OH222450   3.139   2.224   1.110  0.0279 -0.4070  0.4745
  320TIP3    H122451   3.098   2.307   1.131 -0.1580 -0.5234  0.5730
  320TIP3    H222452   3.131   2.216   1.015 -0.0393 -0.3578  0.4766
  321TIP3   OH222453   4.994   2.186  11.199  0.1094  0.1411  0.1125
  321TIP3    H122454   5.009   2.116  11.262  0.9880  0.4254  0.2238
  321TIP3    H222455   4.982   2.142  11.115  0.1577 -0.1670  0.2684
  322TIP3   OH222456   6.582   5.161  13.870 -0.0777 -0.3210 -0.5760
  322TIP3    H122457   6.501   5.115  13.853  1.1476 -2.4740 -0.9443
  322TIP3    H222458   6.558   5.254  13.869 -2.2859 -0.8470 -1.8039
  323TIP3   OH222459   2.358   3.787   0.628 -0.6253 -0.3049  0.0395
  323TIP3    H122460   2.292   3.836   0.578 -0.3362  0.8826  0.7651
  323TIP3    H222461   2.418   3.753   0.562 -1.0861 -0.0438 -0.5273
  324TIP3   OH222462   4.708   5.607  10.516  0.1038 -0.8818  0.2941
  324TIP3    H122463   4.638   5.644  10.464  0.0889 -1.6459 -0.2381
  324TIP3    H222464   4.677   5.614  10.606  0.0580  0.2841  0.2123
  325TIP3   OH222465   1.539   2.660  15.833  0.2120 -0.2337  0.2359
  325TIP3    H122466   1.615   2.623  15.788  0.3825 -0.1742  0.4807
  325TIP3    H222467   1.548   2.755  15.823 -1.0955 -0.2409 -1.8815
  326TIP3   OH222468   0.506   2.392  13.588  0.2661  0.1858 -0.0335
  326TIP3    H122469   0.425   2.358  13.626  1.9642 -3.8321  0.5096
  326TIP3    H222470   0.565   2.402  13.663  0.0573  4.4686 -0.2046
  327TIP3   OH222471   2.396   2.308  14.241 -0.0828  0.2613 -0.5872
  327TIP3    H122472   2.375   2.218  14.215  1.6215 -0.5584  0.5920
  327TIP3    H222473   2.384   2.309  14.336  0.3324  1.1360 -0.5300
  328TIP3   OH222474   4.004   2.190   4.163 -0.1844  0.2865 -0.1219
  328TIP3    H122475   3.935   2.256   4.170  0.5077  0.8530  2.5629
  328TIP3    H222476   4.085   2.238   4.181  0.8636 -0.5245 -2.3834
  329TIP3   OH222477   5.453   4.022  14.611 -0.1870  0.1850  0.8336
  329TIP3    H122478   5.431   4.011  14.518 -0.6734  1.8079  0.7123
  329TIP3    H222479   5.548   4.026  14.612 -0.1584 -0.3037  0.4594
  330TIP3   OH222480   4.804   6.784  16.232  0.3103  0.3098 -0.2485
  330TIP3    H122481   4.788   6.811  16.322 -1.3227  2.2869 -1.0551
  330TIP3    H222482   4.847   6.859  16.192 -0.3040  0.0237 -1.4827
  331TIP3   OH222483   4.623   2.509   1.433  0.3872 -0.3018 -0.1038
  331TIP3    H122484   4.612   2.547   1.346 -1.3576  1.3164  0.7813
  331TIP3    H222485   4.582   2.422   1.427 -1.3227  0.4933 -0.4585
  332TIP3   OH222486   6.447   1.827  11.594  0.1316 -0.1196  0.0842
  332TIP3    H122487   6.451   1.858  11.684 -1.0623 -0.0823  0.1427
  332TIP3    H222488   6.486   1.739  11.597 -1.4888 -0.8526  1.0089
  333TIP3   OH222489   0.079   3.151  11.936 -0.2189 -0.0973 -0.0377
  333TIP3    H122490   0.051   3.151  12.028 -1.9234  0.3564 -0.5362
  333TIP3    H222491   0.159   3.204  11.936 -0.0520 -0.3099  1.2079
  334TIP3   OH222492   5.619   1.736  13.877  0.3617  0.0004  0.2873
  334TIP3    H122493   5.595   1.825  13.901 -1.9074 -0.8069  1.2828
  334TIP3    H222494   5.698   1.718  13.929 -0.7273  0.5310  2.2395
  335TIP3   OH222495   6.351   5.517  12.296  0.0640  0.3484 -0.2939
  335TIP3    H122496   6.374   5.429  12.326 -0.8257  0.7161  1.6067
  335TIP3    H222497   6.433   5.566  12.300  0.7030 -0.5113 -1.9778
  336TIP3   OH222498   6.609   2.508   3.011  0.4290 -0.0126 -0.1350
  336TIP3    H122499   6.527   2.538   2.972 -0.8914 -0.6621  1.9643
  336TIP3    H222500   6.621   2.420   2.977  0.8210  0.4482 -1.2306
  337TIP3   OH222501   5.192   2.349   1.420 -0.3896  0.7658  0.1683
  337TIP3    H122502   5.139   2.349   1.341  0.2766  0.1668 -0.2939
  337TIP3    H222503   5.142   2.298   1.484 -0.3295  0.1172 -0.2947
  338TIP3   OH222504   1.742   4.899   2.273  0.3859 -0.0055 -0.2703
  338TIP3    H122505   1.709   4.973   2.324 -0.9096 -1.9824  1.9700
  338TIP3    H222506   1.665   4.862   2.230  0.0466 -2.6410  2.2876
  339TIP3   OH222507   0.375   4.079   2.199  0.4839 -0.2084  0.7745
  339TIP3    H122508   0.463   4.045   2.183  0.9420 -0.0262  2.6774
  339TIP3    H222509   0.356   4.055   2.289 -0.7320  1.2604  0.9453
  340TIP3   OH222510   5.320   0.470  13.848  0.3396 -0.3614  0.1712
  340TIP3    H122511   5.246   0.409  13.862 -0.6573  0.4502 -1.3401
  340TIP3    H222512   5.280   0.556  13.847  1.2907  0.0908 -0.8160
  341TIP3   OH222513   4.086   4.107   2.776  0.2968 -0.6178  0.6297
  341TIP3    H122514   4.119   4.019   2.757  0.4270 -0.3525 -0.4623
  341TIP3    H222515   4.024   4.094   2.848 -0.4786 -1.7815 -0.1931
  342TIP3   OH222516   2.828   6.182   1.186 -0.0171 -0.2923 -0.3769
  342TIP3    H122517   2.851   6.147   1.100 -1.0749  2.8029 -2.0562
  342TIP3    H222518   2.793   6.269   1.169  0.4203  0.8021  3.2806
  343TIP3   OH222519   6.368   2.380   2.282 -0.4604  0.3037  0.4561
  343TIP3    H122520   6.437   2.350   2.341  0.4639  0.4486 -0.5234
  343TIP3    H222521   6.387   2.473   2.269  0.8773 -0.2250 -2.0086
  344TIP3   OH222522   3.456   3.092  13.076  0.0248  0.0243  0.2700
  344TIP3    H122523   3.401   3.089  13.155  0.3988 -2.5546  0.5355
  344TIP3    H222524   3.534   3.042  13.100  0.5387 -0.0598 -1.4638
  345TIP3   OH222525   4.330   4.117   5.168 -0.8343  0.5046 -0.2365
  345TIP3    H122526   4.411   4.135   5.216  1.0619 -4.1735 -1.0642
  345TIP3    H222527   4.264   4.106   5.235 -0.1828  1.8444  0.6624
  346TIP3   OH222528   3.006   3.168  15.518  0.6865  0.0141 -0.2945
  346TIP3    H122529   3.044   3.107  15.581 -0.1254  0.5707  0.7686
  346TIP3    H222530   2.944   3.115  15.467  1.3540 -0.4418 -0.6354
  347TIP3   OH222531   6.521   3.322   5.134  0.2617 -0.2604 -0.1714
  347TIP3    H122532   6.463   3.398   5.140  1.4448  0.6704 -0.1277
  347TIP3    H222533   6.474   3.252   5.179 -1.1721  0.2422 -0.8674
  348TIP3   OH222534   1.352   6.151  11.949  0.4842  0.0092 -0.4912
  348TIP3    H122535   1.333   6.074  12.003 -1.0405 -0.1803 -1.2442
  348TIP3    H222536   1.266   6.188  11.930  1.2226  2.3126  0.4032
  349TIP3   OH222537   0.138   3.506  14.099 -0.1989  0.1819 -0.5332
  349TIP3    H122538   0.166   3.592  14.068 -1.5877  1.1227  0.6987
  349TIP3    H222539   0.056   3.489  14.053  1.3052 -1.7543 -2.7785
  350TIP3   OH222540   6.312   3.043   3.248  0.1694 -0.1123 -0.1445
  350TIP3    H122541   6.236   2.987   3.237  1.2244 -1.2599 -2.2666
  350TIP3    H222542   6.369   3.021   3.174  1.9056  1.7526  0.5352
  351TIP3   OH222543   5.950   3.656   5.040 -0.2044  0.1922 -0.6094
  351TIP3    H122544   5.956   3.617   5.127  1.3935  1.4066 -0.1264
  351TIP3    H222545   5.858   3.649   5.016 -0.8002  0.4349  1.4621
  352TIP3   OH222546   2.451   3.615  16.244 -0.8950 -0.8820 -0.0964
  352TIP3    H122547   2.529   3.668  16.227 -1.1661 -0.3531  0.2893
  352TIP3    H222548   2.420   3.646  16.329  1.0772 -4.1590  2.0394
  353TIP3   OH222549   5.223   5.665  12.083 -0.0882  0.2388 -0.3756
  353TIP3    H122550   5.284   5.676  12.010 -0.1134 -1.0837 -0.6196
  353TIP3    H222551   5.150   5.616  12.046 -0.1680 -0.3317  0.4891
  354TIP3   OH222552   6.745   5.489   3.892 -0.4585 -0.6639 -0.1100
  354TIP3    H122553   6.739   5.495   3.987 -0.5406 -0.9102 -0.1004
  354TIP3    H222554   6.684   5.556   3.860 -1.1515 -1.2343  0.0050
  355TIP3   OH222555   2.671   1.943   5.155 -0.3625 -0.2076  0.3536
  355TIP3    H122556   2.620   1.963   5.233 -2.0381 -1.7153 -0.2972
  355TIP3    H222557   2.626   1.991   5.085  0.1217 -0.2156  0.0369
  356TIP3   OH222558   2.007   3.652   2.570  0.2378 -0.2008  0.0647
  356TIP3    H122559   2.068   3.718   2.603  0.2361 -0.4114  0.4818
  356TIP3    H222560   2.062   3.589   2.524  0.1157  0.8267 -1.5777
  357TIP3   OH222561   4.546   2.240   2.808  0.3424  0.4047  0.0589
  357TIP3    H122562   4.472   2.226   2.749  0.4782  0.4086 -0.1142
  357TIP3    H222563   4.611   2.286   2.754  1.2094 -1.2222 -0.3420
  358TIP3   OH222564   3.429   5.413   5.468  0.4781  0.7091  0.2033
  358TIP3    H122565   3.443   5.456   5.384  3.4791 -1.9783 -0.8727
  358TIP3    H222566   3.509   5.428   5.517  0.1427 -0.5825  1.2060
  359TIP3   OH222567   1.524   5.539   6.074  0.5253 -0.4272 -0.1030
  359TIP3    H122568   1.468   5.508   6.145  0.7855  0.2098  0.3930
  359TIP3    H222569   1.592   5.590   6.117 -0.8582  2.3609 -0.9494
  360TIP3   OH222570   0.993   4.015  13.110 -0.1560  0.0568  0.3565
  360TIP3    H122571   1.085   3.992  13.105 -0.3260 -0.3779 -0.9106
  360TIP3    H222572   0.992   4.110  13.118  0.4053  0.0189  0.9347
  361TIP3   OH222573   6.098   0.178  14.088  0.0114 -0.0623  0.1063
  361TIP3    H122574   6.072   0.268  14.103 -1.4869 -0.4378 -0.0792
  361TIP3    H222575   6.156   0.157  14.161 -2.0862  0.1050  1.9356
  362TIP3   OH222576   2.936   5.310   2.353  0.5552 -0.6277 -0.2238
  362TIP3    H122577   3.021   5.338   2.386 -0.3969 -0.7504  2.6067
  362TIP3    H222578   2.904   5.248   2.418 -1.1403 -1.6396 -1.9068
  363TIP3   OH222579   0.072   2.658   4.238 -0.3637 -0.1445 -0.8011
  363TIP3    H122580  -0.009   2.639   4.192  0.3385  0.9331 -2.5893
  363TIP3    H222581   0.085   2.752   4.227  1.2927 -0.3506 -0.8488
  364TIP3   OH222582   1.616   1.970  16.232  0.5214  0.1120 -0.0742
  364TIP3    H122583   1.687   1.923  16.275 -0.0095 -0.1755  0.5133
  364TIP3    H222584   1.574   2.019  16.302  0.2300  0.3929 -0.4423
  365TIP3   OH222585   2.116   4.264   3.643 -0.4442 -0.0668 -0.0968
  365TIP3    H122586   2.138   4.328   3.575 -1.9562  0.3436 -0.2438
  365TIP3    H222587   2.073   4.316   3.712 -0.8675 -0.7883  0.1900
  366TIP3   OH222588   2.049   5.766  13.528  0.3555  0.4296 -0.2345
  366TIP3    H122589   2.061   5.709  13.451  0.5517  0.1784 -0.0204
  366TIP3    H222590   1.955   5.761  13.547  0.7021 -1.8417  1.2980
  367TIP3   OH222591   6.788   0.862   2.239  0.1889  0.1303 -0.2933
  367TIP3    H122592   6.788   0.958   2.242  2.4140  0.1642  2.0460
  367TIP3    H222593   6.730   0.836   2.311  0.7042 -0.2307  0.0019
  368TIP3   OH222594   4.509   2.099   2.383  0.0020  0.0211  0.3098
  368TIP3    H122595   4.495   2.187   2.348  0.3038  0.0090  0.1534
  368TIP3    H222596   4.595   2.102   2.424  0.0044 -0.1945  0.3234
  369TIP3   OH222597   4.310   0.949   6.669 -0.1924 -0.2583  0.4243
  369TIP3    H122598   4.397   0.956   6.708  0.3140  0.5997 -0.8125
  369TIP3    H222599   4.326   0.921   6.579 -1.1354  0.6957 -0.0600
  370TIP3   OH222600   4.056   2.629   1.290  0.3718 -0.2110 -0.1101
  370TIP3    H122601   3.967   2.617   1.258  0.6737 -1.1670 -0.6225
  370TIP3    H222602   4.098   2.684   1.224 -0.2361  1.5202  0.8764
  371TIP3   OH222603   1.923   5.547  14.701  0.1049 -0.2841  0.0599
  371TIP3    H122604   1.865   5.529  14.628 -0.6997  0.9391  0.3665
  371TIP3    H222605   2.011   5.524  14.668 -0.2424  0.1800 -1.2591
  372TIP3   OH222606   4.669   0.708  13.408 -0.4831  0.0306  0.2153
  372TIP3    H122607   4.597   0.769  13.427 -0.6014 -0.2502  0.6741
  372TIP3    H222608   4.626   0.626  13.388 -0.4721  0.6576 -2.8683
  373TIP3   OH222609   5.899   4.626   5.934 -0.1574  0.2753 -0.3810
  373TIP3    H122610   5.823   4.645   5.879 -0.1207  0.4676 -0.3672
  373TIP3    H222611   5.918   4.709   5.977 -0.2703  0.0885  0.0270
  374TIP3   OH222612   4.481   2.714  13.905  0.0902 -0.3393  0.1528
  374TIP3    H122613   4.455   2.724  13.997 -0.1316  1.4281 -0.0774
  374TIP3    H222614   4.412   2.658  13.868 -0.7666  0.3401  0.6744
  375TIP3   OH222615   6.384   6.533  11.922  0.2335 -0.0018  0.0876
  375TIP3    H122616   6.347   6.468  11.982  0.0799  0.4327  0.4670
  375TIP3    H222617   6.326   6.530  11.846  0.4311 -0.5574 -0.0514
  376TIP3   OH222618   5.268   3.497   6.252  0.3923 -0.0939 -0.0825
  376TIP3    H122619   5.244   3.406   6.269  1.1160 -0.3125 -0.1886
  376TIP3    H222620   5.219   3.548   6.317  0.3198 -0.5974  0.2585
  377TIP3   OH222621   2.465   0.534   5.257 -0.3823 -0.1691 -0.4197
  377TIP3    H122622   2.452   0.611   5.311  0.3846 -1.5347  1.8332
  377TIP3    H222623   2.379   0.491   5.254 -0.5363  0.1575 -0.7013
  378TIP3   OH222624   0.019   3.122   0.064 -0.1816 -0.0410  0.0630
  378TIP3    H122625  -0.027   3.206   0.061 -0.1823 -0.0436 -0.0017
  378TIP3    H222626  -0.026   3.068  -0.001 -0.8083 -0.4115  0.7919
  379TIP3   OH222627   1.981   6.702  16.426  0.4552  0.5024 -0.2245
  379TIP3    H122628   1.992   6.672  16.517 -1.0227  0.5284 -0.0145
  379TIP3    H222629   2.062   6.675  16.382  1.8579  1.7994  1.4201
  380TIP3   OH222630   5.564   0.560   1.272 -0.5871 -0.2613 -0.4225
  380TIP3    H122631   5.506   0.521   1.207 -1.5037 -0.4130  0.4566
  380TIP3    H222632   5.641   0.504   1.272 -0.0865  0.3717 -2.1443
  381TIP3   OH222633   0.807   0.396   1.330 -0.2746 -0.3703  0.3089
  381TIP3    H122634   0.829   0.306   1.356 -0.0775  0.2294  2.3735
  381TIP3    H222635   0.712   0.393   1.317 -0.1364 -1.0966 -0.6920
  382TIP3   OH222636   1.190   3.654   0.213  0.0140  0.8096 -0.1182
  382TIP3    H122637   1.244   3.635   0.290 -0.0977  2.5455  0.4413
  382TIP3    H222638   1.215   3.588   0.149  1.9391  0.8387  0.5409
  383TIP3   OH222639   0.030   5.393   6.197  0.2276 -0.2339 -0.5110
  383TIP3    H122640   0.053   5.467   6.254  0.9971  0.0233 -1.1345
  383TIP3    H222641   0.103   5.332   6.207 -1.1532 -1.6917  1.2474
  384TIP3   OH222642   3.006   0.259  15.345 -0.0865  0.0593 -0.0880
  384TIP3    H122643   2.951   0.274  15.421 -1.1996  0.6671 -0.9714
  384TIP3    H222644   2.955   0.200  15.289  0.6911 -0.3477 -0.3836
  385TIP3   OH222645   0.599   1.679   0.567 -0.2879 -0.1253 -0.0893
  385TIP3    H122646   0.622   1.694   0.659  1.2404 -0.0810 -0.4547
  385TIP3    H222647   0.503   1.684   0.566 -0.3203  0.2881  1.4238
  386TIP3   OH222648   0.443   2.298   3.975 -0.0513  0.6967 -0.1274
  386TIP3    H122649   0.538   2.312   3.984 -0.1709  0.4983  1.9389
  386TIP3    H222650   0.406   2.333   4.056 -1.5876 -0.6414 -0.1975
  387TIP3   OH222651   3.464   2.357   2.142 -0.2828  0.2584 -0.2257
  387TIP3    H122652   3.371   2.335   2.138  0.7652 -5.5184 -2.1828
  387TIP3    H222653   3.497   2.305   2.216  1.5885  1.3855 -0.2176
  388TIP3   OH222654   6.642   4.629   2.269  0.1225 -0.1424  0.2644
  388TIP3    H122655   6.622   4.711   2.314  0.1888 -0.4334  0.8298
  388TIP3    H222656   6.567   4.614   2.212  1.5357  2.0506 -2.4350
  389TIP3   OH222657   4.832   6.357   4.854 -0.0064  0.1965 -0.2857
  389TIP3    H122658   4.851   6.421   4.786 -0.7209  1.0301  0.2727
  389TIP3    H222659   4.743   6.378   4.883 -0.5716 -1.5532 -0.6254
  390TIP3   OH222660   4.654   0.987  11.059  0.2293  0.2583 -0.9077
  390TIP3    H122661   4.622   0.902  11.028 -1.8776  0.4951  0.4562
  390TIP3    H222662   4.738   0.998  11.015 -0.1131 -1.8687 -2.2281
  391TIP3   OH222663   0.606   3.030   1.101  0.8355 -0.2756 -0.1567
  391TIP3    H122664   0.596   2.937   1.081  0.2923 -0.3302  0.3374
  391TIP3    H222665   0.610   3.033   1.197 -1.0346  0.3846 -0.0744
  392TIP3   OH222666   3.337   1.102   5.305 -0.2340 -0.1179 -0.5057
  392TIP3    H122667   3.322   1.196   5.305 -3.4608 -0.5056  1.1435
  392TIP3    H222668   3.404   1.088   5.372 -2.6858  0.8045  2.3686
  393TIP3   OH222669   4.967   0.123   6.310 -0.4967 -0.1916  0.0657
  393TIP3    H122670   4.898   0.132   6.375 -0.0691  1.2909  0.3372
  393TIP3    H222671   4.955   0.034   6.276  0.1518 -1.5949  3.1465
  394TIP3   OH222672   1.785   1.364  11.436  0.1512 -0.7503 -0.0119
  394TIP3    H122673   1.807   1.271  11.436  0.6117 -0.6478  0.7986
  394TIP3    H222674   1.867   1.408  11.456  0.2087 -0.0845 -1.5849
  395TIP3   OH222675   0.642   5.050  12.865 -0.1590  0.2253 -0.1945
  395TIP3    H122676   0.635   4.956  12.849  0.0580  0.0235  0.8180
  395TIP3    H222677   0.566   5.070  12.921 -0.3539  0.7067 -0.6257
  396TIP3   OH222678   4.486   0.869  14.150 -0.4255 -0.2328  0.1265
  396TIP3    H122679   4.567   0.906  14.187 -1.1461 -0.0022  1.5560
  396TIP3    H222680   4.515   0.817  14.076  0.9683  0.4400  0.1642
  397TIP3   OH222681   5.181   4.689  16.996  0.1213  0.0032  0.2566
  397TIP3    H122682   5.115   4.656  17.056 -0.6108  0.2097 -0.4244
  397TIP3    H222683   5.142   4.768  16.958  0.6024 -0.0785 -0.4267
  398TIP3   OH222684   1.036   2.238  12.610  0.1561 -0.4961 -0.1197
  398TIP3    H122685   0.951   2.230  12.652 -0.1660  1.5878 -0.3005
  398TIP3    H222686   1.022   2.206  12.520 -0.6082  0.4597 -0.3475
  399TIP3   OH222687   0.524   5.621   5.205 -0.1516 -0.4013  0.5536
  399TIP3    H122688   0.480   5.621   5.290  0.0109 -0.0245  0.6388
  399TIP3    H222689   0.616   5.637   5.225 -0.3883  1.7444  0.1840
  400TIP3   OH222690   0.255   4.394  10.641 -0.8172 -0.1899  0.1037
  400TIP3    H122691   0.232   4.487  10.637 -0.1368 -0.0082  0.1466
  400TIP3    H222692   0.333   4.387  10.586  0.3258 -0.3372  1.6630
  401TIP3   OH222693   0.213   2.678   1.717  0.4691  0.2928  0.4120
  401TIP3    H122694   0.293   2.654   1.765  1.1356 -0.3657 -0.9682
  401TIP3    H222695   0.158   2.721   1.783  1.6149  0.0305  1.5964
  402TIP3   OH222696   5.219   3.931  12.758 -0.2366  0.4281 -0.2236
  402TIP3    H122697   5.294   3.982  12.787 -0.2736 -0.2471  1.1068
  402TIP3    H222698   5.245   3.840  12.770 -0.7558  0.1494 -1.0924
  403TIP3   OH222699   5.403   4.760   6.520 -0.1823  0.5630 -0.1486
  403TIP3    H122700   5.429   4.852   6.523  0.0138  0.4893  1.1509
  403TIP3    H222701   5.483   4.712   6.538 -0.6701  0.2304  1.2610
  404TIP3   OH222702   5.844   4.221  14.296 -0.5633  0.0728  0.8732
  404TIP3    H122703   5.881   4.158  14.234 -0.1559 -0.4129  1.5948
  404TIP3    H222704   5.896   4.209  14.376 -1.0497  0.7201  1.2944
  405TIP3   OH222705   5.810   2.720   5.240 -0.2579  0.1188 -0.7603
  405TIP3    H122706   5.801   2.632   5.203 -1.1483  0.5525 -1.6552
  405TIP3    H222707   5.733   2.767   5.207  0.2384  1.2509 -0.3519
  406TIP3   OH222708   3.708   5.741   0.606  0.2274 -0.0533 -0.1296
  406TIP3    H122709   3.622   5.749   0.646  0.0205  0.8816 -0.7534
  406TIP3    H222710   3.765   5.712   0.678 -0.6541 -0.9879  0.2129
  407TIP3   OH222711   4.332   1.938  11.352  0.2366  0.2193 -0.3550
  407TIP3    H122712   4.365   2.027  11.348  1.1065 -0.0781 -0.1321
  407TIP3    H222713   4.389   1.889  11.292 -1.7515  0.2467 -2.3984
  408TIP3   OH222714   3.156   3.096   2.875  0.2805 -0.2237 -0.1662
  408TIP3    H122715   3.219   3.078   2.806  0.2343 -0.9005 -0.0456
  408TIP3    H222716   3.100   3.165   2.840  0.6387 -0.1350 -0.5622
  409TIP3   OH222717   4.343   0.590  13.182  0.2440  1.1590 -0.8023
  409TIP3    H122718   4.374   0.567  13.095  0.9713  3.4648 -1.2133
  409TIP3    H222719   4.397   0.538  13.241  1.6384  1.5935 -1.6572
  410TIP3   OH222720   4.544   5.881  13.191  0.3527  0.4972  0.2327
  410TIP3    H122721   4.520   5.790  13.210  1.9768  0.0912  0.4276
  410TIP3    H222722   4.462   5.930  13.204 -0.3629 -0.8110  0.8852
  411TIP3   OH222723   3.475   5.328   2.794 -0.3305  0.4637  0.3408
  411TIP3    H122724   3.426   5.396   2.748 -0.9579  2.5609  3.7176
  411TIP3    H222725   3.417   5.302   2.866  1.6315 -0.5012  1.6535
  412TIP3   OH222726   5.129   4.926   6.402 -0.2680  0.4983  0.2152
  412TIP3    H122727   5.145   4.832   6.391  1.8814  0.7840  0.4023
  412TIP3    H222728   5.073   4.932   6.478 -0.3843 -0.6406  0.2426
  413TIP3   OH222729   2.505   6.729  13.851  0.1511 -0.5785  0.1843
  413TIP3    H122730   2.551   6.800  13.806  0.0545  0.1780  1.2508
  413TIP3    H222731   2.423   6.769  13.879 -0.2318 -1.3306  0.1495
  414TIP3   OH222732   3.909   3.230  11.194 -0.5316 -0.3537 -0.6921
  414TIP3    H122733   3.881   3.235  11.285  3.4566 -0.4546  0.7666
  414TIP3    H222734   3.916   3.137  11.176 -1.4419 -0.3360 -1.1999
  415TIP3   OH222735   1.344   4.876  13.509 -0.5580  0.0255  0.6483
  415TIP3    H122736   1.266   4.867  13.563  0.0757  0.1221  1.6042
  415TIP3    H222737   1.417   4.865  13.570  0.1778  0.2442 -0.1698
  416TIP3   OH222738   0.346   6.639  14.986 -0.4992  0.5679  0.0715
  416TIP3    H122739   0.386   6.567  14.936 -1.0074  2.0212 -2.5817
  416TIP3    H222740   0.420   6.682  15.029 -0.0032 -0.4785  0.3083
  417TIP3   OH222741   5.989   3.545  13.616  0.4479 -0.0412  0.1215
  417TIP3    H122742   5.922   3.477  13.619  1.2943 -1.2088 -2.9397
  417TIP3    H222743   6.033   3.540  13.700 -1.6749 -0.9523  1.2390
  418TIP3   OH222744   3.611   2.460  11.694  0.0428  0.3517  0.7876
  418TIP3    H122745   3.573   2.391  11.640 -0.3351 -1.1446  2.8295
  418TIP3    H222746   3.706   2.452  11.682 -0.0125 -0.3810  0.8447
  419TIP3   OH222747   0.695   6.516  16.065 -0.0936  0.2631  0.2431
  419TIP3    H122748   0.696   6.599  16.113  2.8094  0.2925  0.3240
  419TIP3    H222749   0.671   6.451  16.131  0.8247  0.6845  1.0237
  420TIP3   OH222750   0.907   6.435   1.601 -0.0725  0.1459 -0.3435
  420TIP3    H122751   0.986   6.397   1.564  0.0984  1.2558 -1.1858
  420TIP3    H222752   0.939   6.491   1.673  0.2156  2.3444 -2.0550
  421TIP3   OH222753   5.929   2.536   3.370 -0.1325 -0.2973 -0.8933
  421TIP3    H122754   5.917   2.515   3.278  1.0468 -3.7983 -0.3810
  421TIP3    H222755   5.851   2.502   3.413  0.5067 -1.1227 -0.3450
  422TIP3   OH222756   0.462   1.321  13.170 -0.3102  0.3593  0.6400
  422TIP3    H122757   0.469   1.379  13.095  0.6855 -0.7708 -0.1704
  422TIP3    H222758   0.367   1.313  13.186 -0.4770  1.5716  0.2971
  423TIP3   OH222759   2.531   1.878   2.589  0.1697  0.2300 -0.2184
  423TIP3    H122760   2.525   1.950   2.526 -0.7080  0.6174  0.2845
  423TIP3    H222761   2.446   1.877   2.632  0.4882 -0.5322  0.4169
  424TIP3   OH222762   1.459   4.653   1.097 -0.0009 -0.1490 -0.4972
  424TIP3    H122763   1.398   4.723   1.073  0.9417 -0.0858 -3.0056
  424TIP3    H222764   1.546   4.688   1.077  0.5945 -1.5374 -0.4714
  425TIP3   OH222765   4.740   0.118   6.486 -0.2725  0.4967  0.3936
  425TIP3    H122766   4.662   0.133   6.432  1.3399  1.5030 -1.7741
  425TIP3    H222767   4.726   0.030   6.522 -1.7301  0.0339 -1.1410
  426TIP3   OH222768   3.554   4.306   2.497  0.6992 -0.3461  0.3350
  426TIP3    H122769   3.643   4.289   2.466  1.0392  1.9835 -0.1413
  426TIP3    H222770   3.565   4.339   2.586  0.5622  1.9367 -0.4316
  427TIP3   OH222771   5.597   6.445  12.417  0.3213  0.0817  0.0283
  427TIP3    H122772   5.529   6.402  12.468  1.2313 -0.5430  0.7454
  427TIP3    H222773   5.580   6.418  12.327 -0.4087 -0.0094  0.1866
  428TIP3   OH222774   5.645   3.569  13.360 -0.4321  0.3789 -0.2744
  428TIP3    H122775   5.601   3.525  13.287 -0.1976 -1.2196  0.5171
  428TIP3    H222776   5.737   3.573  13.334 -0.6807  1.9133 -1.0470
  429TIP3   OH222777   4.354   1.731   6.320  0.6404 -0.2335 -0.1528
  429TIP3    H122778   4.437   1.684   6.332  0.7072 -0.1326 -0.2165
  429TIP3    H222779   4.376   1.823   6.330  0.4908 -0.2199  0.0689
  430TIP3   OH222780   1.692   3.487  16.696 -0.0389 -0.0470 -1.0508
  430TIP3    H122781   1.601   3.470  16.671 -0.5523  2.8449 -1.5352
  430TIP3    H222782   1.687   3.566  16.750  1.9306 -1.4478  1.3956
  431TIP3   OH222783   5.440   4.815  15.692 -0.7755 -0.1551  0.1269
  431TIP3    H122784   5.489   4.784  15.616 -1.4002  0.3344 -0.4873
  431TIP3    H222785   5.348   4.806  15.666 -1.0013  2.0390 -0.0355
  432TIP3   OH222786   3.925   5.268  16.627  0.2025  0.1391 -0.1162
  432TIP3    H122787   3.970   5.227  16.700  0.4437  0.6610  0.0295
  432TIP3    H222788   3.837   5.230  16.629  1.5248 -3.6099 -2.5313
  433TIP3   OH222789   1.245   0.298  12.113  0.4194  0.0969  0.1988
  433TIP3    H122790   1.221   0.211  12.083 -1.3859  0.9746 -1.0292
  433TIP3    H222791   1.218   0.300  12.205  0.6096 -0.6617  0.2781
  434TIP3   OH222792   5.043   0.508   2.708  0.8384  0.3887  0.1150
  434TIP3    H122793   5.086   0.423   2.723  0.6065  0.3351  0.4871
  434TIP3    H222794   5.078   0.538   2.624 -1.1965 -1.4186 -1.5013
  435TIP3   OH222795   4.891   1.525  15.759 -0.0019 -0.0440  0.0306
  435TIP3    H122796   4.905   1.617  15.783 -2.6863  0.4960 -0.1204
  435TIP3    H222797   4.861   1.484  15.840  2.4740 -1.2124  0.4578
  436TIP3   OH222798   4.011   2.923   3.395  0.1744  0.0785  0.6005
  436TIP3    H122799   4.050   3.008   3.379  1.1264 -0.0355  2.1538
  436TIP3    H222800   4.054   2.865   3.332  1.6546  0.2010  1.4566
  437TIP3   OH222801   2.469   4.245  15.628  0.4409 -0.2413  0.0780
  437TIP3    H122802   2.526   4.170  15.643  0.8097  0.0087 -0.0506
  437TIP3    H222803   2.481   4.300  15.706  1.0121  0.2077 -0.3181
  438TIP3   OH222804   1.684   3.082  13.095 -0.0141  0.5137  0.1422
  438TIP3    H122805   1.592   3.073  13.069  0.1962  0.9222 -0.7899
  438TIP3    H222806   1.681   3.094  13.190 -0.9221  0.5220  0.1221
  439TIP3   OH222807   5.756   2.628  13.152  0.2873  0.8670  0.1873
  439TIP3    H122808   5.761   2.613  13.058  0.5225 -1.8169  0.5527
  439TIP3    H222809   5.663   2.617  13.173  0.4520 -0.1551  0.4516
  440TIP3   OH222810   2.418   3.250   2.934  0.0939 -0.0862  0.3587
  440TIP3    H122811   2.490   3.279   2.878  1.2287 -0.9314  1.3165
  440TIP3    H222812   2.431   3.297   3.016  0.3934 -1.2813  1.0149
  441TIP3   OH222813   0.081   2.784  12.909 -0.5679  0.0105 -0.7984
  441TIP3    H122814   0.151   2.783  12.974 -2.6061 -0.8445  1.5004
  441TIP3    H222815   0.059   2.877  12.899  0.0803  0.1866 -0.6343
  442TIP3   OH222816   6.633   5.798  14.560  0.3044 -0.1387  0.2685
  442TIP3    H122817   6.654   5.721  14.613 -1.2031  0.0654  1.2329
  442TIP3    H222818   6.693   5.866  14.592  0.8940 -0.6046  0.1726
  443TIP3   OH222819   2.629   5.686  16.603 -0.3774 -0.3155  0.1157
  443TIP3    H122820   2.542   5.681  16.642 -0.9373  0.5764 -0.9774
  443TIP3    H222821   2.667   5.765  16.642 -0.3369 -0.3035  0.0510
  444TIP3   OH222822   3.607   0.921   5.744 -0.2113 -0.6353  0.6848
  444TIP3    H122823   3.542   0.886   5.806  1.7267 -3.5561  1.2653
  444TIP3    H222824   3.685   0.935   5.797  0.2787  0.8918 -0.3730
  445TIP3   OH222825   3.702   6.730   5.045  0.4830  0.4346 -0.2666
  445TIP3    H122826   3.608   6.740   5.057  0.4673  0.0468 -0.0807
  445TIP3    H222827   3.733   6.690   5.126  0.6714 -0.2865 -0.6945
  446TIP3   OH222828   4.095   2.432   3.621  0.0697  0.7035  0.6096
  446TIP3    H122829   4.080   2.526   3.613  0.3825  0.7738  0.8347
  446TIP3    H222830   4.182   2.419   3.582  0.4060  0.6395  1.3613
  447TIP3   OH222831   5.865   4.414  11.925  0.0776 -0.3278  0.3816
  447TIP3    H122832   5.831   4.448  12.008  1.9146  0.5389  0.8504
  447TIP3    H222833   5.918   4.339  11.951  1.7692  0.7482  0.2131
  448TIP3   OH222834   5.090   4.062   1.559 -0.0770 -0.5289  0.6138
  448TIP3    H122835   5.063   4.048   1.650 -1.4860 -1.6722  0.0607
  448TIP3    H222836   5.155   3.994   1.543  1.6124  0.8456  1.2805
  449TIP3   OH222837   1.660   0.720  14.353 -0.0784 -0.1238 -0.1882
  449TIP3    H122838   1.641   0.679  14.437  0.3884  2.3400  1.2412
  449TIP3    H222839   1.748   0.756  14.363  0.5247 -0.8694 -2.2471
  450TIP3   OH222840   3.869   5.308  13.475 -0.1153 -0.1543  0.7018
  450TIP3    H122841   3.869   5.269  13.563  0.1393  0.0270  0.7824
  450TIP3    H222842   3.937   5.374  13.478 -2.6109  2.5809  1.5804
  451TIP3   OH222843   1.828   3.523  13.330  0.0837 -0.1469  0.6621
  451TIP3    H122844   1.813   3.576  13.252 -1.2809 -1.7219 -0.2189
  451TIP3    H222845   1.880   3.450  13.300  0.9783  0.0824  1.6174
  452TIP3   OH222846   2.425   2.443  12.706 -0.9962 -0.2110  0.4802
  452TIP3    H122847   2.456   2.353  12.702 -0.0324  0.1475 -1.0747
  452TIP3    H222848   2.334   2.436  12.734 -1.2421 -1.7457 -0.5765
  453TIP3   OH222849   1.881   2.516  12.875 -0.1419  0.1788 -0.3220
  453TIP3    H122850   1.831   2.443  12.911  0.7022  0.7360  2.1121
  453TIP3    H222851   1.815   2.574  12.837 -0.7701 -2.2373 -3.2892
  454TIP3   OH222852   1.221   6.642  12.594 -0.4572  0.1005 -0.2490
  454TIP3    H122853   1.135   6.629  12.554  0.6823 -0.8243 -2.6057
  454TIP3    H222854   1.208   6.712  12.657 -2.5872  1.1697 -1.7543
  455TIP3   OH222855   0.246   2.125   4.916  0.4672  0.2653  0.1938
  455TIP3    H122856   0.222   2.102   4.827  1.5956 -0.3567  0.0341
  455TIP3    H222857   0.335   2.159   4.909  1.8866 -2.7825  1.4364
  456TIP3   OH222858   1.929   3.009  11.303  0.8032 -0.3564  0.1745
  456TIP3    H122859   1.977   3.089  11.281  2.6341 -1.5160 -0.2712
  456TIP3    H222860   1.920   3.013  11.399  1.0320  0.3034  0.1763
  457TIP3   OH222861   0.598   3.408  12.033  0.0093  0.1158 -0.8505
  457TIP3    H122862   0.509   3.373  12.037  1.0996 -3.2023 -2.2316
  457TIP3    H222863   0.611   3.450  12.118 -2.3753 -0.6029 -0.0406
  458TIP3   OH222864   5.390   1.511   4.339  0.1907 -0.3246 -0.3958
  458TIP3    H122865   5.478   1.512   4.377  0.1283 -0.9437 -0.2182
  458TIP3    H222866   5.402   1.467   4.254 -0.1694 -1.6531  0.2253
  459TIP3   OH222867   1.537   4.281  16.893 -0.5752  0.0337  0.0807
  459TIP3    H122868   1.625   4.297  16.858 -0.0808  1.4592  1.8143
  459TIP3    H222869   1.543   4.194  16.934  0.0069  0.1008  0.1436
  460TIP3   OH222870   1.019   0.494   0.055 -0.0211  0.2546 -0.4569
  460TIP3    H122871   1.113   0.500   0.072  0.2438  0.4264 -1.8581
  460TIP3    H222872   1.006   0.544  -0.025 -1.2515 -0.0660 -0.4736
  461TIP3   OH222873   1.054   3.110  14.233  0.1536  0.1464  0.1918
  461TIP3    H122874   1.018   3.195  14.258  1.1735  0.3879  0.8756
  461TIP3    H222875   1.113   3.086  14.305  0.9432 -0.4840 -0.6367
  462TIP3   OH222876   6.446   2.326  15.801  0.5551 -0.5770 -0.0379
  462TIP3    H122877   6.479   2.331  15.891 -1.8977  0.9370  0.8604
  462TIP3    H222878   6.464   2.412  15.764 -0.3257 -0.4896 -0.2791
  463TIP3   OH222879   5.436   2.175   2.388 -0.3137 -0.1390  0.1212
  463TIP3    H122880   5.351   2.207   2.417 -1.1360 -1.0063 -1.2099
  463TIP3    H222881   5.445   2.208   2.299  1.0225  0.4258  0.4443
  464TIP3   OH222882   6.528   4.439   4.947 -0.4602 -0.1712 -0.3162
  464TIP3    H122883   6.489   4.502   5.008 -0.6640 -1.1218  0.5757
  464TIP3    H222884   6.622   4.440   4.968 -0.5746 -0.7294  0.2500
  465TIP3   OH222885   1.221   1.641   0.572 -0.5603  0.1109  0.0725
  465TIP3    H122886   1.267   1.725   0.580 -2.2493  1.0862  0.2630
  465TIP3    H222887   1.271   1.581   0.627  1.4163  0.6406 -1.0717
  466TIP3   OH222888   2.757   2.448   2.639  0.4050  0.0704  0.3519
  466TIP3    H122889   2.771   2.500   2.560  0.1412 -0.9225 -0.3626
  466TIP3    H222890   2.845   2.435   2.675  0.7320 -0.9496 -0.7564
  467TIP3   OH222891   0.493   2.096  16.689 -0.3980 -0.2856 -0.4504
  467TIP3    H122892   0.526   2.134  16.771 -1.7086  4.6660 -1.8900
  467TIP3    H222893   0.561   2.033  16.664  1.4336  0.0242  2.9808
  468TIP3   OH222894   4.837   4.618  15.977  0.1836 -0.5385 -0.1497
  468TIP3    H122895   4.744   4.618  15.952 -0.1023 -0.0222  0.8283
  468TIP3    H222896   4.874   4.694  15.931  0.1297 -0.7592 -0.5606
  469TIP3   OH222897   2.482   4.549  15.421  0.7644 -0.2506  0.1807
  469TIP3    H122898   2.556   4.542  15.481 -0.0153 -2.4618  0.9889
  469TIP3    H222899   2.414   4.592  15.473  0.8351 -0.0367  0.0971
  470TIP3   OH222900   1.221   3.035  15.164  0.3228 -0.1147  0.2621
  470TIP3    H122901   1.314   3.055  15.178  0.1335 -0.3516  2.1330
  470TIP3    H222902   1.218   2.939  15.157  0.4423 -0.0157 -2.1225
  471TIP3   OH222903   4.081   2.685  14.133 -0.8834  0.1262 -0.4353
  471TIP3    H122904   4.039   2.660  14.215 -0.3369  0.4845 -0.0415
  471TIP3    H222905   4.059   2.614  14.072 -0.5359 -0.6122  0.2711
  472TIP3   OH222906   3.556   6.019   1.082 -0.0806 -0.2740 -0.1028
  472TIP3    H122907   3.581   6.109   1.100 -0.6841 -0.0538 -0.3238
  472TIP3    H222908   3.633   5.980   1.041 -0.1982  0.4650 -1.0515
  473TIP3   OH222909   6.776   3.892   2.243  0.3908  0.1241  0.9171
  473TIP3    H122910   6.861   3.891   2.286  1.0932 -0.1120 -0.4191
  473TIP3    H222911   6.732   3.970   2.277  0.8153 -0.1912  2.2158
  474TIP3   OH222912   4.277   0.608  12.322  0.1403 -0.1098 -0.5781
  474TIP3    H122913   4.249   0.652  12.241 -0.7275  0.3213 -0.0525
  474TIP3    H222914   4.359   0.651  12.345  0.6143 -0.5182 -1.4478
  475TIP3   OH222915   1.782   3.883  15.118  0.1127 -0.7906  0.1048
  475TIP3    H122916   1.807   3.793  15.102  3.1217 -0.2766  1.3480
  475TIP3    H222917   1.814   3.931  15.042  0.7445 -0.4406  0.5850
  476TIP3   OH222918   3.318   4.247  13.087  0.4856  1.0389 -0.1700
  476TIP3    H122919   3.237   4.198  13.084  0.2659  1.3134  0.9104
  476TIP3    H222920   3.327   4.284  12.999  1.6450 -2.4139 -1.6553
  477TIP3   OH222921   3.302   5.957   3.016  0.0389  0.4469 -0.1474
  477TIP3    H122922   3.332   5.959   2.925  0.3686  1.4162 -0.0337
  477TIP3    H222923   3.333   6.040   3.052 -3.4236  1.9132 -0.2236
  478TIP3   OH222924   3.181   3.029  11.528 -0.4171 -0.2290 -0.2559
  478TIP3    H122925   3.245   3.099  11.514 -1.3172  0.5562 -0.5774
  478TIP3    H222926   3.099   3.074  11.548 -1.1167 -1.1664 -0.8581
  479TIP3   OH222927   0.534   6.511  11.502  0.3385  0.1059 -0.6437
  479TIP3    H122928   0.498   6.551  11.423 -0.2513 -1.5060 -1.2395
  479TIP3    H222929   0.577   6.431  11.471  1.1252  0.0365  0.5386
  480TIP3   OH222930   1.922   4.144   3.164  0.1999  0.5740 -0.3127
  480TIP3    H122931   1.831   4.152   3.194 -0.2356 -1.3914 -0.9708
  480TIP3    H222932   1.974   4.148   3.244 -0.5831  0.2351  0.2297
  481TIP3   OH222933   1.122   2.703   1.784  0.2714  0.4802  0.5169
  481TIP3    H122934   1.050   2.694   1.721 -1.3786  1.0083  2.2235
  481TIP3    H222935   1.200   2.716   1.730 -0.7360 -1.0881 -1.4360
  482TIP3   OH222936   3.736   1.566   1.473 -0.1269 -0.1720 -0.6069
  482TIP3    H122937   3.705   1.656   1.482  1.9656  0.5168  0.1932
  482TIP3    H222938   3.819   1.574   1.427 -0.0009 -1.7341 -0.7015
  483TIP3   OH222939   5.470   0.500   2.882  0.3858  0.3693  0.7178
  483TIP3    H122940   5.448   0.472   2.794 -0.7154  0.5830  0.9080
  483TIP3    H222941   5.559   0.468   2.896  0.5911  0.3656 -0.4738
  484TIP3   OH222942   5.069   4.615  17.227 -0.4059 -0.4442  0.1097
  484TIP3    H122943   5.139   4.556  17.256 -0.7243 -0.2671  1.2708
  484TIP3    H222944   5.018   4.633  17.306 -0.3969  1.2859 -0.2449
  485TIP3   OH222945   4.292   4.581  13.025  0.4431  1.0112 -0.2586
  485TIP3    H122946   4.213   4.630  13.003 -0.0918  0.9924  1.4982
  485TIP3    H222947   4.360   4.648  13.031  0.4539  1.0952 -1.2523
  486TIP3   OH222948   0.273   6.148   3.297 -0.1467 -0.3097  0.1848
  486TIP3    H122949   0.258   6.054   3.289 -1.2610 -0.3076  1.6394
  486TIP3    H222950   0.200   6.179   3.351 -1.1118  1.8019 -2.1306
  487TIP3   OH222951   4.607   3.182  16.289  0.0105 -0.0551  0.1767
  487TIP3    H122952   4.543   3.122  16.251 -0.7024  0.2343  0.8962
  487TIP3    H222953   4.596   3.173  16.384  0.7551  0.2981  0.3049
  488TIP3   OH222954   5.194   6.662  16.812 -0.2496  0.1651 -0.0044
  488TIP3    H122955   5.185   6.745  16.859  1.3048  0.9380 -0.9870
  488TIP3    H222956   5.178   6.595  16.879 -2.2356  1.2038  0.6608
  489TIP3   OH222957   4.786   5.884  12.597  0.0364  0.6683 -0.5452
  489TIP3    H122958   4.776   5.953  12.532 -0.0732  1.9793  0.7949
  489TIP3    H222959   4.877   5.856  12.589  0.1923  1.2477 -0.8506
  490TIP3   OH222960   5.373   4.239   2.016  0.2731  0.2883  0.4428
  490TIP3    H122961   5.420   4.311   2.060 -0.4388  1.5978 -0.8609
  490TIP3    H222962   5.417   4.160   2.046  2.8490  1.4066 -0.1387
  491TIP3   OH222963   0.540   2.687   6.612  0.1138 -0.6312 -0.2173
  491TIP3    H122964   0.473   2.619   6.620 -0.3639 -0.1767 -0.2613
  491TIP3    H222965   0.490   2.769   6.610  0.6191 -0.3271 -1.0162
  492TIP3   OH222966   2.498   6.272  13.554 -0.5850 -0.5480 -0.1334
  492TIP3    H122967   2.492   6.293  13.461  0.1633 -1.0742 -0.3120
  492TIP3    H222968   2.412   6.235  13.575 -0.2422 -1.9237 -1.0167
  493TIP3   OH222969   6.542   6.091   0.386 -0.2753  0.1994  0.9580
  493TIP3    H122970   6.505   6.115   0.472 -5.9359 -0.4501 -0.8655
  493TIP3    H222971   6.477   6.123   0.323  2.3591 -1.5196 -2.9858
  494TIP3   OH222972   4.430   2.487   1.118 -0.1678 -0.2103  0.7847
  494TIP3    H122973   4.389   2.574   1.112  1.0773  0.3171 -1.9556
  494TIP3    H222974   4.361   2.431   1.153 -2.0349  1.3482 -0.1483
  495TIP3   OH222975   5.714   5.101  16.135  0.3256  0.3177  0.4557
  495TIP3    H122976   5.619   5.091  16.128  0.4407 -0.6979  0.1381
  495TIP3    H222977   5.747   5.076  16.049  0.8813  0.8413  0.5038
  496TIP3   OH222978   0.311   3.713   3.588 -0.6726  0.4848 -0.0087
  496TIP3    H122979   0.278   3.774   3.522 -2.4293 -0.8331 -0.4457
  496TIP3    H222980   0.383   3.666   3.545 -0.3228  1.1884 -0.1946
  497TIP3   OH222981   3.972   5.755   0.297 -0.2924  0.1981 -0.1327
  497TIP3    H122982   4.033   5.712   0.357  1.3392  1.1714 -1.0375
  497TIP3    H222983   3.979   5.848   0.319 -0.8750  0.4037 -0.7880
  498TIP3   OH222984   2.214   1.090  12.712 -1.0822  0.3618  0.1209
  498TIP3    H122985   2.154   1.059  12.780 -0.1499 -0.0332  0.7960
  498TIP3    H222986   2.229   1.182  12.734 -1.5808  0.5150 -0.1639
  499TIP3   OH222987   2.302   3.130  13.050 -0.3275  0.0950 -0.0512
  499TIP3    H122988   2.255   3.047  13.036 -1.4655  0.5960  0.7292
  499TIP3    H222989   2.358   3.113  13.125 -1.9448  0.5644  1.3161
  500TIP3   OH222990   4.345   4.158   3.737  0.2126  0.0469  0.1893
  500TIP3    H122991   4.269   4.180   3.684  2.4555 -1.2363 -4.0203
  500TIP3    H222992   4.348   4.062   3.736  1.2548  0.0441  1.2357
  501TIP3   OH222993   1.281   4.512   6.080  0.7472  0.0770  0.3895
  501TIP3    H122994   1.258   4.460   6.157  1.3455 -1.1282 -0.2239
  501TIP3    H222995   1.304   4.598   6.116  2.4498 -0.8780  1.7392
  502TIP3   OH222996   5.235   3.546  16.166  0.6971 -1.1522  0.1072
  502TIP3    H122997   5.212   3.453  16.170  0.0446 -1.0648 -1.3187
  502TIP3    H222998   5.243   3.565  16.073 -1.7374  0.8307  0.2057
  503TIP3   OH222999   0.335   5.501   4.210 -0.1869  0.7656 -0.1462
  503TIP3    H123000   0.392   5.439   4.256  1.3265  1.6345 -0.7981
  503TIP3    H223001   0.340   5.474   4.118 -1.5449  0.3338 -0.1292
  504TIP3   OH223002   4.675   2.179  13.834  0.0857  0.0118  0.0197
  504TIP3    H123003   4.700   2.091  13.807  1.5633  0.7788 -1.2661
  504TIP3    H223004   4.704   2.235  13.762  1.3195  1.8070  1.8009
  505TIP3   OH223005   2.682   6.281  16.274  0.2379 -0.1309  0.5551
  505TIP3    H123006   2.614   6.349  16.280 -0.9100 -1.1215 -0.4173
  505TIP3    H223007   2.635   6.204  16.241  1.6026 -1.2456  1.1193
  506TIP3   OH223008   0.682   2.045  13.500 -0.4289 -0.3149 -0.3025
  506TIP3    H123009   0.674   2.017  13.591 -0.2758  3.1599  0.9158
  506TIP3    H223010   0.592   2.053  13.469 -0.6265  1.2507  0.5643
  507TIP3   OH223011   2.814   0.718  14.271 -0.1270 -0.2899 -0.4466
  507TIP3    H123012   2.718   0.718  14.275 -0.1038  0.1811  0.7842
  507TIP3    H223013   2.840   0.633  14.306 -0.0806  0.6038  1.8735
  508TIP3   OH223014   2.078   0.677   4.192  0.0684  0.3182  0.5136
  508TIP3    H123015   2.085   0.607   4.127 -1.0457  1.3475 -0.7789
  508TIP3    H223016   2.169   0.695   4.217  0.4410 -0.9308  0.1754
  509TIP3   OH223017   5.756   0.753  10.877 -0.4643  0.2473 -0.0147
  509TIP3    H123018   5.773   0.834  10.829 -2.0653 -0.6362 -2.2519
  509TIP3    H223019   5.722   0.782  10.961  0.6209  1.8816 -0.0884
  510TIP3   OH223020   0.147   4.496  16.903 -0.0774 -0.1130  0.6991
  510TIP3    H123021   0.198   4.507  16.823 -1.1249  0.1343  0.0387
  510TIP3    H223022   0.149   4.401  16.919  0.0157 -0.1849  0.2925
  511TIP3   OH223023   5.305   2.090   6.307  0.0484  0.0098  0.3055
  511TIP3    H123024   5.222   2.061   6.345 -0.5697 -0.5381 -1.3420
  511TIP3    H223025   5.367   2.021   6.329 -0.2215 -0.1450  0.5835
  512TIP3   OH223026   3.132   5.004   2.215  0.0585  0.2821  0.3471
  512TIP3    H123027   3.176   4.935   2.264 -0.7027 -0.6744 -0.2776
  512TIP3    H223028   3.040   4.994   2.236 -0.4775 -0.9601 -2.1142
  513TIP3   OH223029   2.985   6.014  14.164  0.2725 -0.1601  0.3247
  513TIP3    H123030   2.918   6.057  14.110 -1.2184  1.2746  3.0905
  513TIP3    H223031   3.044   6.086  14.188  0.9423 -0.7933  0.5804
  514TIP3   OH223032   3.386   0.353  11.362  0.3067 -0.0002 -0.7419
  514TIP3    H123033   3.377   0.429  11.305 -1.7783  0.2185 -0.2156
  514TIP3    H223034   3.297   0.321  11.374  0.7971 -0.7792  1.3873
  515TIP3   OH223035   2.176   2.758  12.769  0.5868  0.0461 -0.1609
  515TIP3    H123036   2.209   2.771  12.680  1.7312  0.6593  0.3325
  515TIP3    H223037   2.146   2.667  12.770 -1.0300  0.5206 -1.6479
  516TIP3   OH223038   6.672   0.325   0.351  0.2792  0.1903 -0.1205
  516TIP3    H123039   6.675   0.358   0.261  0.5401 -1.8616 -0.9043
  516TIP3    H223040   6.605   0.256   0.349 -0.3465  0.7074  1.4874
  517TIP3   OH223041   3.120   5.690   3.569 -0.3975  0.6246 -1.2380
  517TIP3    H123042   3.080   5.765   3.526 -3.5928  1.5223  2.6053
  517TIP3    H223043   3.051   5.624   3.569 -0.1679  0.2935  1.2462
  518TIP3   OH223044   6.759   0.802   2.874 -0.0171 -0.7031  0.5962
  518TIP3    H123045   6.743   0.718   2.915 -2.3751 -2.4819 -3.3572
  518TIP3    H223046   6.690   0.859   2.907 -1.5119 -1.9099 -0.3152
  519TIP3   OH223047   2.846   1.154  14.383  0.0925  0.1158  0.2115
  519TIP3    H123048   2.858   1.219  14.452 -1.2186  0.9787 -0.3399
  519TIP3    H223049   2.923   1.097  14.390  0.0033  0.1859  2.3447
  520TIP3   OH223050   5.037   5.574  14.677 -0.6717 -0.4346  0.3951
  520TIP3    H123051   5.066   5.485  14.698 -0.0183 -0.1511  0.7356
  520TIP3    H223052   5.109   5.630  14.707 -1.9217  0.3777  1.9580
  521TIP3   OH223053   0.542   1.461  16.375 -0.4535  0.0627  0.1519
  521TIP3    H123054   0.558   1.392  16.311 -0.7399  1.1786 -1.1647
  521TIP3    H223055   0.447   1.473  16.374 -0.2417  2.3252 -1.7322
  522TIP3   OH223056   5.646   5.763   2.720  0.1652  0.2119 -0.0180
  522TIP3    H123057   5.653   5.859   2.718  0.1436  0.4002  3.6370
  522TIP3    H223058   5.725   5.733   2.676  0.9174  1.9271  0.0723
  523TIP3   OH223059   2.737   5.877  14.284  0.7417  0.1364  0.3920
  523TIP3    H123060   2.793   5.943  14.243  0.4485 -1.2560 -2.5132
  523TIP3    H223061   2.797   5.808  14.311  0.7190 -0.0397  0.0007
  524TIP3   OH223062   0.928   4.118   3.169 -0.3003 -0.2068  0.4650
  524TIP3    H123063   0.938   4.051   3.101  1.7399 -0.9971  1.4693
  524TIP3    H223064   0.953   4.200   3.127 -2.2930 -0.0955 -0.6262
  525TIP3   OH223065   6.334   5.584  15.753  0.0368  0.1388  0.5532
  525TIP3    H123066   6.275   5.655  15.728  0.0323 -0.4028 -1.0632
  525TIP3    H223067   6.393   5.623  15.818 -0.5388  1.3503  0.3635
  526TIP3   OH223068   3.314   4.047   5.467  0.3158  0.3273 -0.3147
  526TIP3    H123069   3.229   4.090   5.457 -0.0509 -0.5594 -1.2345
  526TIP3    H223070   3.377   4.116   5.445 -0.2650  0.3720 -2.0547
  527TIP3   OH223071   2.419   1.100  11.668 -0.4601  0.4234 -0.6407
  527TIP3    H123072   2.395   1.133  11.754  0.5604  0.3597 -0.3217
  527TIP3    H223073   2.366   1.020  11.657 -0.9382  0.6866 -0.2870
  528TIP3   OH223074   0.491   4.264   0.348  0.0186 -0.2005  0.3306
  528TIP3    H123075   0.485   4.250   0.253  0.5147  0.3053  0.2154
  528TIP3    H223076   0.501   4.359   0.357 -1.3252 -0.1124  0.9691
  529TIP3   OH223077   0.156   4.083   2.384  0.0744 -0.1688 -0.8508
  529TIP3    H123078   0.105   4.139   2.443  0.4950 -0.3687 -0.3011
  529TIP3    H223079   0.149   4.127   2.299 -0.4396  0.1788 -0.6382
  530TIP3   OH223080   2.949   0.732  16.234 -0.6697  0.5534 -0.6267
  530TIP3    H123081   2.930   0.698  16.322  1.6868  1.5352  0.3275
  530TIP3    H223082   2.988   0.657  16.188 -1.3675  0.2055 -0.6711
  531TIP3   OH223083   5.773   6.764   3.499 -0.1487  0.4892  0.1611
  531TIP3    H123084   5.726   6.845   3.475 -0.6912 -0.2672 -1.5171
  531TIP3    H223085   5.812   6.735   3.417 -1.2897 -1.7891  0.3501
  532TIP3   OH223086   5.986   1.547   3.693 -0.0543  0.3419  0.6123
  532TIP3    H123087   5.958   1.630   3.655  1.3390  0.3046 -0.6033
  532TIP3    H223088   6.081   1.547   3.682  0.1208 -0.8107  1.8716
  533TIP3   OH223089   3.657   1.242   3.003 -0.0715 -0.1163 -0.3354
  533TIP3    H123090   3.561   1.242   3.007 -0.2134  1.7699 -1.8722
  533TIP3    H223091   3.682   1.328   3.037  0.9044  0.2170 -1.7940
  534TIP3   OH223092   3.735   0.009   2.929 -0.4935  0.1755 -0.5081
  534TIP3    H123093   3.658  -0.045   2.910  0.1254 -0.6718 -0.6676
  534TIP3    H223094   3.706   0.070   2.997 -1.2592 -0.2466 -0.4494
  535TIP3   OH223095   0.436   5.646  16.211 -0.1895  0.0218  0.4984
  535TIP3    H123096   0.352   5.683  16.239  0.4050  0.5286  1.7024
  535TIP3    H223097   0.415   5.558  16.182 -1.9549  1.6318 -4.0510
  536TIP3   OH223098   4.470   4.882  13.472 -0.2348 -0.1660  0.1300
  536TIP3    H123099   4.439   4.907  13.559 -0.4402  0.4153 -0.1010
  536TIP3    H223100   4.392   4.886  13.417 -0.6800 -3.0850  0.4015
  537TIP3   OH223101   3.296   3.760  14.738  0.0806  0.2592  0.6622
  537TIP3    H123102   3.377   3.709  14.740  0.2985  0.4849 -0.7287
  537TIP3    H223103   3.294   3.797  14.649 -2.1494 -0.7128  0.2531
  538TIP3   OH223104   5.272   1.373   3.060 -0.1583  0.2586  0.3996
  538TIP3    H123105   5.180   1.362   3.037 -0.0581  1.2036 -0.5426
  538TIP3    H223106   5.299   1.288   3.094 -1.3032 -0.1084  0.4154
  539TIP3   OH223107   4.258   4.546   1.364 -0.2343  0.2761 -0.2780
  539TIP3    H123108   4.250   4.639   1.381  0.7669  0.5668 -1.2863
  539TIP3    H223109   4.234   4.504   1.447 -0.8049  1.4168  0.1406
  540TIP3   OH223110   1.420   4.052   1.621  0.1386  0.3591 -0.1074
  540TIP3    H123111   1.348   3.989   1.622  0.2694  0.1472 -1.7126
  540TIP3    H223112   1.492   4.008   1.666 -0.1887 -0.1109 -0.0404
  541TIP3   OH223113   5.553   0.070  11.684  0.0365  0.2872 -0.2390
  541TIP3    H123114   5.489   0.000  11.669  0.1172  0.4624 -1.5191
  541TIP3    H223115   5.544   0.091  11.777 -0.1373 -1.2719  0.1298
  542TIP3   OH223116   3.360   0.665  15.498 -0.6880 -0.2682 -0.5166
  542TIP3    H123117   3.432   0.664  15.436  2.2261 -0.5040  2.6122
  542TIP3    H223118   3.310   0.586  15.477  1.8712 -1.9325 -0.7955
  543TIP3   OH223119   5.187   4.644   6.426  0.4959  0.0351  0.4240
  543TIP3    H123120   5.190   4.554   6.393 -0.4601 -0.3606  1.3537
  543TIP3    H223121   5.276   4.662   6.455  1.0601 -0.0576 -1.1179
  544TIP3   OH223122   5.921   4.657   5.048  0.2450  0.4090 -0.2510
  544TIP3    H123123   5.867   4.578   5.047  1.8451 -0.7551  0.8529
  544TIP3    H223124   5.908   4.694   5.135 -0.4150  1.3516 -0.7279
  545TIP3   OH223125   2.528   2.297   2.661 -0.1158 -1.1952 -0.2059
  545TIP3    H123126   2.528   2.280   2.567  0.5806  0.2088 -0.4856
  545TIP3    H223127   2.608   2.347   2.677 -0.4405 -1.0334  1.0691
  546TIP3   OH223128   2.562   4.982   3.187  0.3936 -0.6300 -0.4443
  546TIP3    H123129   2.560   4.891   3.217 -0.4745  0.1562  2.2426
  546TIP3    H223130   2.473   5.000   3.157  0.7466 -0.8318 -1.6658
  547TIP3   OH223131   0.085   2.877   1.017 -0.0844  0.1635  0.3831
  547TIP3    H123132   0.138   2.928   1.078  0.3580  1.2165 -0.8166
  547TIP3    H223133   0.098   2.921   0.933  0.0093 -1.7250 -0.6447
  548TIP3   OH223134   3.462   5.281  15.893  0.3418  0.5430  0.1318
  548TIP3    H123135   3.497   5.210  15.839  2.0624  2.1488 -0.9739
  548TIP3    H223136   3.369   5.284  15.871 -0.0910 -2.1052  1.1466
  549TIP3   OH223137   4.754   1.419   6.446 -0.4173  0.0193  0.0871
  549TIP3    H123138   4.794   1.390   6.364 -0.1060 -0.1023  0.2775
  549TIP3    H223139   4.759   1.342   6.503 -0.4893  0.1496  0.2693
  550TIP3   OH223140   3.391   6.025   0.275 -0.2919  0.2359 -0.4059
  550TIP3    H123141   3.350   5.961   0.333 -1.8539  0.6054 -1.0406
  550TIP3    H223142   3.429   6.091   0.333 -0.1038 -0.4029  0.2094
  551TIP3   OH223143   1.318   6.428  16.713  0.1947 -0.0861  0.6773
  551TIP3    H123144   1.315   6.435  16.809 -0.3767  1.5524  0.5662
  551TIP3    H223145   1.404   6.462  16.689 -0.8658  2.6683  0.4415
  552TIP3   OH223146   4.675   5.880   1.842 -0.0245  0.1685  0.4984
  552TIP3    H123147   4.633   5.964   1.862  0.4755  0.8633 -1.1738
  552TIP3    H223148   4.617   5.839   1.778  0.7141  0.1170 -0.1411
  553TIP3   OH223149   3.844   5.255  12.525  0.2647 -0.2691 -0.2862
  553TIP3    H123150   3.937   5.267  12.508  0.1467  1.9006  0.3015
  553TIP3    H223151   3.837   5.255  12.620 -0.5857  2.9960 -0.2093
  554TIP3   OH223152   1.175   2.009  12.258 -0.3665 -0.4310  0.1242
  554TIP3    H123153   1.158   2.010  12.352  0.2878 -1.4221  0.2632
  554TIP3    H223154   1.257   1.961  12.249  0.1796  0.6425 -0.8673
  555TIP3   OH223155   0.643   4.501   5.513 -0.0869 -0.3105  0.1380
  555TIP3    H123156   0.732   4.480   5.484  0.2186  2.7140 -1.5023
  555TIP3    H223157   0.640   4.597   5.515 -3.8245 -0.2264 -1.5566
  556TIP3   OH223158   3.289   4.504   4.836 -0.0674  0.1199  0.0484
  556TIP3    H123159   3.333   4.586   4.815  1.9987 -0.7564  0.7317
  556TIP3    H223160   3.294   4.497   4.931 -1.8077  0.0029  0.1732
  557TIP3   OH223161   6.175   1.479   4.713 -0.4579 -0.1415  0.0377
  557TIP3    H123162   6.088   1.445   4.732 -0.2249 -0.7818 -0.0262
  557TIP3    H223163   6.234   1.407   4.733 -0.0431 -0.1374 -1.1107
  558TIP3   OH223164   0.513   6.737  13.367 -0.2395 -0.4333  0.3328
  558TIP3    H123165   0.458   6.661  13.384 -0.9509  0.1890  0.8946
  558TIP3    H223166   0.512   6.748  13.272 -1.3343 -0.2466  0.3626
  559TIP3   OH223167   2.200   5.275  12.199 -0.2010  0.2956  0.6804
  559TIP3    H123168   2.255   5.242  12.128  0.1473  2.4046 -0.1115
  559TIP3    H223169   2.168   5.197  12.243  0.6993 -1.0516 -0.9398
  560TIP3   OH223170   5.227   5.942   5.561 -0.2210  0.6498 -0.6294
  560TIP3    H123171   5.223   6.037   5.554  1.0417  0.8413  0.7771
  560TIP3    H223172   5.161   5.920   5.627  0.0578  0.6511 -0.3453
  561TIP3   OH223173   2.904   3.488   4.419 -0.2709 -0.1332 -0.6330
  561TIP3    H123174   2.871   3.416   4.365  1.5563 -1.1883 -0.4018
  561TIP3    H223175   2.979   3.522   4.371 -0.8368  1.3827 -0.5178
  562TIP3   OH223176   2.655   2.561  15.823 -0.1392 -0.4876  0.1443
  562TIP3    H123177   2.748   2.564  15.847 -0.2614 -3.0891  1.2847
  562TIP3    H223178   2.630   2.469  15.835 -2.8348  0.1069 -0.2902
  563TIP3   OH223179   6.091   1.179  16.206 -0.1176 -0.4137  0.0223
  563TIP3    H123180   6.087   1.156  16.299 -1.4976  0.0969  0.1031
  563TIP3    H223181   6.100   1.274  16.205 -1.0687 -0.3224 -0.3735
  564TIP3   OH223182   3.972   1.624  10.604  0.1441 -0.0760 -0.3394
  564TIP3    H123183   3.877   1.612  10.593  0.4341 -2.2165 -0.8657
  564TIP3    H223184   3.986   1.717  10.586 -1.9940  0.5627  0.9268
  565TIP3   OH223185   1.952   1.175  15.810  0.1153 -0.3432  0.0011
  565TIP3    H123186   2.019   1.243  15.819  1.2222 -1.5579  1.2467
  565TIP3    H223187   1.994   1.095  15.840 -1.3848 -1.4764 -0.7790
  566TIP3   OH223188   3.604   3.219  15.748 -0.1465  0.1718  0.3880
  566TIP3    H123189   3.524   3.172  15.768 -1.6354  3.2885  2.5078
  566TIP3    H223190   3.627   3.191  15.659 -2.8137 -1.7880  0.2169
  567TIP3   OH223191   3.033   0.635   3.128  0.0970 -0.1602  0.0247
  567TIP3    H123192   3.051   0.691   3.203 -0.4784 -0.3201  0.2946
  567TIP3    H223193   2.943   0.604   3.143 -0.6503  1.1241 -1.5624
  568TIP3   OH223194   5.194   0.927   3.045  0.3434 -0.4638 -0.5593
  568TIP3    H123195   5.214   1.006   2.994  0.2839  0.3854  0.6562
  568TIP3    H223196   5.105   0.942   3.077  0.9611 -0.1614  1.1354
  569TIP3   OH223197   3.634   1.637   1.027  1.0349 -0.3580  1.0749
  569TIP3    H123198   3.651   1.717   0.977  1.2067 -0.2621  1.2841
  569TIP3    H223199   3.700   1.576   0.995  0.5868 -0.5812  0.5535
  570TIP3   OH223200   6.257   2.457   0.826 -0.3152 -0.4485  0.4632
  570TIP3    H123201   6.178   2.404   0.828 -0.3620 -0.3564  1.1230
  570TIP3    H223202   6.227   2.547   0.838 -0.0347 -0.5112  1.8160
  571TIP3   OH223203   6.042   4.926   1.140  0.5062 -0.0900  0.2286
  571TIP3    H123204   5.970   4.865   1.122  1.2900 -0.3887 -2.2785
  571TIP3    H223205   6.004   5.013   1.126  0.2344 -0.1574  0.5300
  572TIP3   OH223206   5.191   6.097   5.952  0.6036 -0.3369  0.4814
  572TIP3    H123207   5.276   6.128   5.983  0.9679 -2.1118  1.3368
  572TIP3    H223208   5.132   6.170   5.970  1.7446  0.5432  0.7845
  573TIP3   OH223209   5.151   2.823   2.040  0.5101  0.5540  0.3605
  573TIP3    H123210   5.073   2.772   2.061  0.9692 -0.2461  0.1401
  573TIP3    H223211   5.204   2.821   2.120  0.7475  0.2927  0.1945
  574TIP3   OH223212   1.553   4.430  13.209  0.2054 -0.0836  0.1797
  574TIP3    H123213   1.576   4.439  13.302 -2.4162 -0.5131  0.9703
  574TIP3    H223214   1.636   4.413  13.165  1.5941  0.5279  2.3736
  575TIP3   OH223215   4.502   4.803  15.938 -0.7775 -0.5865  0.7280
  575TIP3    H123216   4.445   4.818  15.863  0.9800 -0.4437 -0.6529
  575TIP3    H223217   4.541   4.717  15.922  0.1082 -0.2734  1.1047
  576TIP3   OH223218   4.225   4.488   4.899  0.4197 -0.0547  0.5366
  576TIP3    H123219   4.261   4.530   4.821 -0.2917 -1.2372 -0.4478
  576TIP3    H223220   4.299   4.486   4.961  1.1526  0.3518 -0.3024
  577TIP3   OH223221   5.475   4.619  15.482  0.3848  0.7875 -0.5839
  577TIP3    H123222   5.444   4.582  15.564 -0.2655  1.2228 -0.6267
  577TIP3    H223223   5.520   4.547  15.438  0.1861  0.3844 -0.1322
  578TIP3   OH223224   0.740   3.514   0.471  0.1745 -0.5650  0.6350
  578TIP3    H123225   0.652   3.544   0.495  0.4889  1.2494 -0.2467
  578TIP3    H223226   0.732   3.486   0.380  0.0100 -2.8263  1.2915
  579TIP3   OH223227   5.128   6.723  13.226  0.0663  0.5960 -0.5454
  579TIP3    H123228   5.197   6.744  13.163  0.8570 -1.6280 -0.5326
  579TIP3    H223229   5.047   6.738  13.179  0.5578  2.2432 -0.9257
  580TIP3   OH223230   6.573   6.146  16.086  0.7005  0.0887 -0.5228
  580TIP3    H123231   6.537   6.233  16.068 -0.7892  0.3377  2.7401
  580TIP3    H223232   6.625   6.158  16.166 -0.4157 -2.1322  0.6380
  581TIP3   OH223233   5.129   6.528  16.248  0.1234  0.4788  0.0958
  581TIP3    H123234   5.130   6.603  16.188 -1.3460  0.0076 -0.5634
  581TIP3    H223235   5.042   6.531  16.288  0.2658 -0.5441  0.5037
  582TIP3   OH223236   5.910   2.516  14.631  0.5416 -0.4151  0.1177
  582TIP3    H123237   5.884   2.587  14.690 -2.2889 -1.5452  0.3612
  582TIP3    H223238   5.916   2.557  14.545 -1.0247  0.1558  0.2578
  583TIP3   OH223239   4.407   5.723  10.279  0.0895 -0.4248  0.1052
  583TIP3    H123240   4.350   5.718  10.355  1.0023  0.1172  0.8442
  583TIP3    H223241   4.353   5.691  10.206 -2.2747  3.0726  0.1078
  584TIP3   OH223242   0.259   0.853   3.321 -0.0673  0.3057 -0.0770
  584TIP3    H123243   0.186   0.802   3.285 -0.3954  0.8151 -0.1371
  584TIP3    H223244   0.296   0.797   3.390 -0.1671 -0.1837 -0.4193
  585TIP3   OH223245   4.269   6.114   3.607 -0.4524 -0.3220  0.1657
  585TIP3    H123246   4.270   6.048   3.538  0.4465  1.1735 -1.3472
  585TIP3    H223247   4.211   6.183   3.573 -0.9471 -0.0742  1.4485
  586TIP3   OH223248   0.765   3.174  13.640 -0.5680  0.0092  0.3575
  586TIP3    H123249   0.691   3.234  13.629 -0.3167  0.0732 -1.1347
  586TIP3    H223250   0.735   3.092  13.602  0.2093  0.1047 -0.4911
  587TIP3   OH223251   4.836   3.320   2.750  0.5792  0.0789 -0.0007
  587TIP3    H123252   4.845   3.386   2.819  1.2706 -0.7607  0.7313
  587TIP3    H223253   4.920   3.276   2.748  0.3232 -0.3857 -0.9079
  588TIP3   OH223254   2.902   1.777   5.231  0.4352  0.0898  0.2345
  588TIP3    H123255   2.857   1.816   5.307  0.6236  0.0439  0.3696
  588TIP3    H223256   2.837   1.781   5.161  0.9439  2.0331 -0.1763
  589TIP3   OH223257   4.539   5.145  11.705  0.3549 -0.0447  0.3528
  589TIP3    H123258   4.519   5.119  11.615 -2.3557  0.1933  0.7902
  589TIP3    H223259   4.493   5.082  11.760  2.2899 -0.4380  1.6432
  590TIP3   OH223260   0.442   3.952   3.686  0.1761  0.0428  0.4471
  590TIP3    H123261   0.437   3.859   3.665 -1.1877  0.0698  0.5189
  590TIP3    H223262   0.351   3.977   3.705  0.8560  0.7514  3.2559
  591TIP3   OH223263   6.329   2.585   3.647 -0.1112  0.1065  0.2650
  591TIP3    H123264   6.292   2.664   3.606 -2.3511 -1.6835 -1.4309
  591TIP3    H223265   6.268   2.565   3.718  1.1015  0.5116  1.4455
  592TIP3   OH223266   3.311   3.573   5.637 -0.1071  0.2615  0.6573
  592TIP3    H123267   3.262   3.510   5.690 -0.6585  1.0265  1.0902
  592TIP3    H223268   3.247   3.642   5.618  0.7050  1.1207  0.9484
  593TIP3   OH223269   4.361   3.904   5.874 -0.0135 -0.3057  0.7655
  593TIP3    H123270   4.351   3.985   5.923  0.9829 -0.1808  0.7833
  593TIP3    H223271   4.387   3.839   5.939  0.1180 -0.4228  0.5973
  594TIP3   OH223272   1.397   3.220  12.367  0.8161  0.2470 -0.9372
  594TIP3    H123273   1.436   3.141  12.404  1.9056  0.6851 -1.1249
  594TIP3    H223274   1.468   3.284  12.365 -0.4955  1.8937  1.0546
  595TIP3   OH223275   1.663   3.157  12.231 -0.1042 -0.0026 -0.0597
  595TIP3    H123276   1.659   3.063  12.249  1.6554 -0.8647 -3.2820
  595TIP3    H223277   1.729   3.191  12.291  0.2066 -1.1289  0.2465
  596TIP3   OH223278   2.347   0.209  17.163 -0.1086  0.8712 -0.1767
  596TIP3    H123279   2.431   0.198  17.206  0.1313  2.0630 -0.3143
  596TIP3    H223280   2.304   0.280  17.210 -0.5268  1.0888 -0.8689
  597TIP3   OH223281   3.859   5.716  12.309 -0.6128  0.0942  0.3435
  597TIP3    H123282   3.835   5.711  12.217  2.1911 -0.2150 -0.4898
  597TIP3    H223283   3.788   5.672  12.355 -2.8665  1.6145 -1.4466
  598TIP3   OH223284   2.954   4.216  14.359 -0.6038  0.0517  0.3105
  598TIP3    H123285   2.958   4.311  14.368  0.0639  0.0591  0.0110
  598TIP3    H223286   2.966   4.183  14.447 -2.1575  0.2559  0.6332
  599TIP3   OH223287   6.021   6.423   5.267  0.4338  0.1160  0.3302
  599TIP3    H123288   6.059   6.415   5.354 -3.1887  2.3302  2.3454
  599TIP3    H223289   6.058   6.504   5.231  0.0132  0.6075  0.9776
  600TIP3   OH223290   1.824   4.828  15.980 -0.1580  0.3653 -0.2381
  600TIP3    H123291   1.768   4.827  16.058 -0.3736 -2.6953 -0.2809
  600TIP3    H223292   1.907   4.863  16.010 -0.4051 -0.2772  1.2820
  601TIP3   OH223293   4.130   3.603   4.987  0.2312 -0.1438 -0.5880
  601TIP3    H123294   4.065   3.611   5.057  1.2701  0.9864  0.3002
  601TIP3    H223295   4.078   3.600   4.906 -0.9275  0.3212  0.1120
  602TIP3   OH223296   0.107   6.326  13.871 -0.6723  0.4069 -0.3280
  602TIP3    H123297   0.049   6.372  13.931  0.5787 -0.9273  2.0668
  602TIP3    H223298   0.184   6.382  13.863 -0.4158  0.1286  0.1523
  603TIP3   OH223299   3.803   0.958  14.655 -0.5144 -0.9672 -0.0837
  603TIP3    H123300   3.772   0.886  14.711  1.7555 -1.1814  1.0029
  603TIP3    H223301   3.859   1.010  14.712 -0.7821  0.7666 -1.3123
  604TIP3   OH223302   1.966   3.943   0.107 -0.4665  0.2995 -0.2024
  604TIP3    H123303   2.054   3.972   0.132 -0.8828  0.5089  1.0642
  604TIP3    H223304   1.981   3.858   0.064  0.4431  0.8263 -0.9653
  605TIP3   OH223305   5.935   0.541  12.734  0.1500  0.0556  0.1755
  605TIP3    H123306   5.843   0.515  12.734  0.1348 -0.1259  2.6163
  605TIP3    H223307   5.982   0.463  12.764  0.7930  0.8563  1.3404
  606TIP3   OH223308   6.661   1.554   5.518 -0.0534 -0.3787  0.2382
  606TIP3    H123309   6.600   1.579   5.588 -0.8204 -0.7177 -0.2951
  606TIP3    H223310   6.618   1.480   5.475  1.3339 -1.4671  0.6600
  607TIP3   OH223311   6.096   2.167   0.851  0.6926 -0.5635 -0.8195
  607TIP3    H123312   6.136   2.081   0.838  0.1937 -0.8707 -0.3904
  607TIP3    H223313   6.087   2.175   0.946  0.1667 -0.3099 -0.8842
  608TIP3   OH223314   4.136   5.162   1.569  0.5706  0.3803  0.0160
  608TIP3    H123315   4.132   5.212   1.487  1.1815  0.0629 -0.2181
  608TIP3    H223316   4.200   5.209   1.622  0.3735  0.4354  0.2019
  609TIP3   OH223317   0.266   4.575   5.868  0.1440 -0.0017  0.4147
  609TIP3    H123318   0.339   4.551   5.925 -0.5165 -0.8211  0.9357
  609TIP3    H223319   0.191   4.585   5.927 -0.1751  0.8157 -0.1137
  610TIP3   OH223320   3.731   2.400   0.503 -0.0241 -0.2148 -0.2495
  610TIP3    H123321   3.669   2.418   0.433  0.1145  0.6070 -0.1708
  610TIP3    H223322   3.813   2.438   0.472  0.2948 -0.7541 -0.0851
  611TIP3   OH223323   4.584   1.485  15.973  0.4100 -0.1597 -0.2756
  611TIP3    H123324   4.506   1.433  15.950  0.5394 -1.4659  2.0113
  611TIP3    H223325   4.648   1.421  16.001  1.0120  1.1468  1.4887
  612TIP3   OH223326   5.349   2.146  14.861  0.0483 -0.0366  0.0124
  612TIP3    H123327   5.279   2.197  14.902 -0.0032 -1.7154  2.2011
  612TIP3    H223328   5.303   2.072  14.819  0.4013 -0.3730  0.2150
  613TIP3   OH223329   2.250   2.648  16.593 -0.7213 -0.1271 -0.9393
  613TIP3    H123330   2.183   2.717  16.589 -0.3560  0.2218 -1.1109
  613TIP3    H223331   2.200   2.567  16.591 -1.1794  0.1353 -0.3101
  614TIP3   OH223332   2.420   1.756  13.143  0.1527 -0.8359  0.2241
  614TIP3    H123333   2.462   1.835  13.179  0.3814 -0.5556 -0.6229
  614TIP3    H223334   2.490   1.711  13.096 -0.6464  0.1234 -2.0235
  615TIP3   OH223335   6.140   1.633  14.618 -0.4119  0.2392  0.0358
  615TIP3    H123336   6.083   1.690  14.670  0.0440 -0.1785  1.0151
  615TIP3    H223337   6.092   1.551  14.612 -0.7709  0.4972 -0.8132
  616TIP3   OH223338   2.988   5.973  13.213  0.4475 -0.3704 -0.2477
  616TIP3    H123339   3.004   6.067  13.225 -0.5861  0.3668 -3.5247
  616TIP3    H223340   2.896   5.968  13.184  0.5995 -2.3444 -0.5286
  617TIP3   OH223341   0.890   4.196  11.590 -0.1573  0.5669 -0.4773
  617TIP3    H123342   0.810   4.194  11.538  0.2167  1.0393 -1.0925
  617TIP3    H223343   0.915   4.104  11.599  0.3682  0.5126 -2.1065
  618TIP3   OH223344   4.510   1.278   2.892 -0.4193 -0.2280  0.7945
  618TIP3    H123345   4.484   1.370   2.888 -1.7660 -0.5269  1.8959
  618TIP3    H223346   4.454   1.235   2.828 -0.6735 -0.4603  1.1698
  619TIP3   OH223347   2.991   4.718   0.041 -0.4353  0.2413  0.8918
  619TIP3    H123348   3.042   4.653   0.090 -1.2872  0.2526  1.8376
  619TIP3    H223349   2.905   4.718   0.084 -0.8947  0.9787  0.0077
  620TIP3   OH223350   2.064   2.681   5.393  0.5397  0.0251  0.7848
  620TIP3    H123351   2.137   2.743   5.399  1.4554 -0.9861  0.4766
  620TIP3    H223352   2.106   2.595   5.383 -0.6197 -0.3202 -2.6361
  621TIP3   OH223353   4.370   2.600  12.262 -0.4761  0.0665  1.0099
  621TIP3    H123354   4.429   2.604  12.187  0.3707 -0.3824  1.6316
  621TIP3    H223355   4.368   2.690  12.295 -1.3760  0.4054  0.0713
  622TIP3   OH223356   0.946   5.240  15.432  0.6445 -0.4239 -0.6818
  622TIP3    H123357   1.032   5.252  15.473  1.3012 -1.3767 -1.7181
  622TIP3    H223358   0.919   5.328  15.406  1.6716 -0.2037 -1.0441
  623TIP3   OH223359   5.989   1.608  11.342 -0.7242 -0.2439  0.3414
  623TIP3    H123360   5.944   1.525  11.323 -0.3450 -0.0789 -1.4060
  623TIP3    H223361   6.071   1.581  11.383  1.2268 -1.0978 -3.6559
  624TIP3   OH223362   1.865   3.009   4.701 -0.0281 -0.2988 -0.2296
  624TIP3    H123363   1.803   2.939   4.724  0.1935 -0.2347  0.6014
  624TIP3    H223364   1.852   3.075   4.769  0.6564 -0.1023 -0.2852
  625TIP3   OH223365   6.220   0.394   2.997 -0.2850 -0.2471  0.4694
  625TIP3    H123366   6.127   0.376   3.005 -0.1080 -1.2718  0.4117
  625TIP3    H223367   6.225   0.479   2.953 -1.1846 -0.8419 -0.8337
  626TIP3   OH223368   1.996   4.471  11.915  0.1232 -0.5549  0.2331
  626TIP3    H123369   1.949   4.398  11.956 -0.7743 -0.5189 -0.6959
  626TIP3    H223370   2.063   4.494  11.979 -1.4214 -0.2749  1.8565
  627TIP3   OH223371   5.855   2.365  12.083  0.0087 -0.4362  0.2547
  627TIP3    H123372   5.787   2.422  12.120  0.4931 -0.0147  0.4954
  627TIP3    H223373   5.823   2.344  11.995  0.2289  0.9121 -0.1741
  628TIP3   OH223374   0.467   6.751  13.104 -0.0013  0.1011 -0.2004
  628TIP3    H123375   0.374   6.762  13.081 -0.0323 -0.7805 -0.5336
  628TIP3    H223376   0.496   6.677  13.050  0.9928  0.5962 -0.3613
  629TIP3   OH223377   3.398   3.061   5.929  0.5112 -0.7132  0.0413
  629TIP3    H123378   3.418   3.020   6.013  1.2993  0.7989  0.6376
  629TIP3    H223379   3.477   3.110   5.907 -0.3736  0.4598 -0.6375
  630TIP3   OH223380   2.309   3.608  13.293  0.1881 -0.8786 -0.0317
  630TIP3    H123381   2.248   3.649  13.232  0.0620 -1.1254 -0.0693
  630TIP3    H223382   2.323   3.674  13.361 -0.1145 -0.8222 -0.0251
  631TIP3   OH223383   0.097   0.372  10.151  0.3637  0.4280 -0.6096
  631TIP3    H123384   0.128   0.443  10.096  1.5457  0.1262 -0.3621
  631TIP3    H223385   0.160   0.368  10.223 -0.5195  0.0865  0.1658
  632TIP3   OH223386   1.676   2.219   1.101 -0.1587  0.1722  0.4735
  632TIP3    H123387   1.757   2.235   1.053 -1.0868  0.5068 -1.0793
  632TIP3    H223388   1.669   2.292   1.162 -0.3607  1.3957 -0.9477
  633TIP3   OH223389   5.312   4.488   5.553  0.2543  0.1464  0.2910
  633TIP3    H123390   5.266   4.510   5.472  0.2229  1.3921  0.6189
  633TIP3    H223391   5.254   4.518   5.623 -0.0491 -1.5751  0.8241
  634TIP3   OH223392   1.615   0.294   2.218 -0.6140 -0.0586  0.6682
  634TIP3    H123393   1.664   0.247   2.151  0.5879  1.5515  0.3540
  634TIP3    H223394   1.546   0.234   2.244 -0.1286 -1.3393 -0.8569
  635TIP3   OH223395   2.996   1.124  16.685  0.1552  0.5296  0.0458
  635TIP3    H123396   2.971   1.087  16.770 -2.1314  0.4628 -0.6117
  635TIP3    H223397   2.997   1.048  16.626 -2.2683  1.1029 -0.8135
  636TIP3   OH223398   3.932   6.095  14.360  0.7636  0.2194  0.2553
  636TIP3    H123399   4.006   6.135  14.405  0.2987  0.3598  0.9093
  636TIP3    H223400   3.906   6.159  14.293  0.2955  0.8274  1.0086
  637TIP3   OH223401   5.613   5.841   6.924  0.0750  0.4717  0.0422
  637TIP3    H123402   5.518   5.841   6.915  0.2174  0.5631 -1.8753
  637TIP3    H223403   5.637   5.933   6.930  0.0303  0.4374  0.7998
  638TIP3   OH223404   6.674   3.133  12.491  0.3783 -0.3721 -0.3303
  638TIP3    H123405   6.743   3.198  12.505  0.1236 -0.2444  0.3136
  638TIP3    H223406   6.710   3.075  12.423  0.8376  0.0959 -0.4903
  639TIP3   OH223407   5.570   3.301  16.278  0.1879 -0.0380 -0.1898
  639TIP3    H123408   5.540   3.262  16.360  0.8645 -2.2685 -0.9434
  639TIP3    H223409   5.542   3.240  16.211  1.0977  0.9100 -1.4769
  640TIP3   OH223410   0.658   5.075   3.287 -0.5980 -0.0889 -0.2653
  640TIP3    H123411   0.750   5.051   3.295 -0.1287  1.2392 -1.2411
  640TIP3    H223412   0.611   4.992   3.291  0.4625 -0.6563  2.0446
  641TIP3   OH223413   1.528   3.542  10.663  0.3321 -0.2407 -0.0626
  641TIP3    H123414   1.495   3.581  10.582 -0.2079 -1.3460 -0.4017
  641TIP3    H223415   1.481   3.459  10.670  0.1516 -0.0306  1.5492
  642TIP3   OH223416   5.151   4.036  11.655 -0.0536  0.1578  0.9345
  642TIP3    H123417   5.225   4.067  11.603  0.3608 -0.3726  1.1982
  642TIP3    H223418   5.074   4.061  11.603  0.3737 -1.8158 -0.7885
  643TIP3   OH223419   3.396   3.013  13.550 -0.0853 -0.1877  0.0476
  643TIP3    H123420   3.389   2.967  13.466  0.3298 -0.8013  0.3476
  643TIP3    H223421   3.429   3.100  13.526  0.2439 -0.4310 -0.4067
  644TIP3   OH223422   3.197   0.319  13.141  0.2589  0.5018  0.4083
  644TIP3    H123423   3.277   0.350  13.184 -0.5772  1.6179  1.2281
  644TIP3    H223424   3.128   0.339  13.204 -0.4538 -2.5489  0.7578
  645TIP3   OH223425   5.805   3.470  15.406  0.2211  0.2250 -0.1704
  645TIP3    H123426   5.756   3.477  15.488  1.8330  1.5530  0.7614
  645TIP3    H223427   5.862   3.547  15.406  0.0200  0.4436 -2.7366
  646TIP3   OH223428   1.152   5.565   4.764 -0.1686 -0.0718  0.0573
  646TIP3    H123429   1.232   5.520   4.736 -0.3519 -0.6340  0.4177
  646TIP3    H223430   1.167   5.657   4.744  1.1090  0.0265  1.3470
  647TIP3   OH223431   6.164   0.082   5.324 -0.5789  0.1032 -0.1489
  647TIP3    H123432   6.147   0.137   5.248 -1.4002  1.5497  1.0400
  647TIP3    H223433   6.256   0.098   5.344 -1.0848  1.9912  0.8652
  648TIP3   OH223434   6.149   6.599   6.459 -0.0951  0.5221  0.2258
  648TIP3    H123435   6.067   6.647   6.462 -0.8523 -0.6017 -1.0592
  648TIP3    H223436   6.217   6.666   6.464 -1.1031  1.6290 -0.3562
  649TIP3   OH223437   0.148   6.592   6.587  0.2132  0.1055  0.2936
  649TIP3    H123438   0.088   6.650   6.540  1.0942  0.9564  0.2066
  649TIP3    H223439   0.198   6.548   6.518  0.3333  0.0851  0.3943
  650TIP3   OH223440   0.687   1.524  15.320  0.3289 -0.4523  0.6519
  650TIP3    H123441   0.661   1.540  15.411 -1.6263 -0.6647  0.1718
  650TIP3    H223442   0.684   1.429  15.310 -1.7411 -0.3665 -0.1875
  651TIP3   OH223443   1.957   1.065  14.931 -0.2841 -0.0520  0.1134
  651TIP3    H123444   1.879   1.079  14.984 -0.5668 -1.4531  0.1072
  651TIP3    H223445   2.021   1.126  14.967 -1.2876  0.9475  0.2823
  652TIP3   OH223446   5.839   3.934   5.847  0.5316  0.0444  0.1088
  652TIP3    H123447   5.749   3.964   5.840  0.1248 -1.4447 -2.9584
  652TIP3    H223448   5.891   4.015   5.848 -0.7721  0.9021  0.7259
  653TIP3   OH223449   4.220   5.115  12.755 -0.0544 -0.3179 -0.2439
  653TIP3    H123450   4.125   5.111  12.747 -0.0056 -1.1102 -0.5814
  653TIP3    H223451   4.244   5.198  12.713 -0.4620 -0.9106 -1.7082
  654TIP3   OH223452   1.401   5.886   5.440 -0.0528 -0.1738 -0.2448
  654TIP3    H123453   1.323   5.840   5.410  0.4362 -1.5702  0.5360
  654TIP3    H223454   1.452   5.903   5.360  0.7424 -2.9000 -0.4311
  655TIP3   OH223455   4.894   5.152   5.510 -0.1273 -0.0127  0.8616
  655TIP3    H123456   4.905   5.137   5.416 -0.8368  1.7813  0.4432
  655TIP3    H223457   4.969   5.109   5.551 -0.0133 -1.1477 -0.4836
  656TIP3   OH223458   5.362   6.324   2.222 -0.1603 -0.0042 -0.1467
  656TIP3    H123459   5.273   6.306   2.190 -0.4246  1.2199 -0.1573
  656TIP3    H223460   5.363   6.418   2.238  0.5469 -0.2905  1.7245
  657TIP3   OH223461   4.909   2.813   1.348  0.0957 -0.5171 -0.1977
  657TIP3    H123462   4.931   2.889   1.294 -0.4331 -0.3139 -0.1310
  657TIP3    H223463   4.864   2.754   1.288  0.0934 -0.5785 -0.1357
  658TIP3   OH223464   4.974   5.629   4.337  0.2065  0.1668 -0.0719
  658TIP3    H123465   5.033   5.594   4.271 -0.5375 -0.7691 -0.2673
  658TIP3    H223466   5.027   5.691   4.387  0.9964  0.2893 -1.0277
  659TIP3   OH223467   3.248   6.806   5.377 -0.1578  0.1876  0.1386
  659TIP3    H123468   3.295   6.723   5.372 -0.3613  0.0486  0.5011
  659TIP3    H223469   3.191   6.806   5.300  0.9039  0.6534 -0.6698
  660TIP3   OH223470   4.351   5.458  14.878  0.0188  0.6434  0.3762
  660TIP3    H123471   4.390   5.500  14.955  2.6427 -1.9430  0.6296
  660TIP3    H223472   4.419   5.399  14.846 -1.9804 -0.3684 -2.3526
  661TIP3   OH223473   6.057   3.404  11.922 -0.0563 -0.3481  0.2099
  661TIP3    H123474   6.124   3.339  11.905  0.8575  0.5011  0.4846
  661TIP3    H223475   6.003   3.404  11.842  0.2847 -1.0088 -0.0262
  662TIP3   OH223476   0.863   0.761   0.252  0.1958 -0.4331  0.5697
  662TIP3    H123477   0.817   0.729   0.175  0.0700  0.2366  0.3538
  662TIP3    H223478   0.867   0.856   0.239  2.3698 -0.5372  0.1842
  663TIP3   OH223479   6.468   4.894   4.617  0.7783 -0.0661 -0.2345
  663TIP3    H123480   6.528   4.826   4.586  1.9070  0.9081 -0.2473
  663TIP3    H223481   6.516   4.939   4.686  0.2316  1.0193 -0.5417
  664TIP3   OH223482   2.890   6.310   0.312  0.2360  0.1741  0.2630
  664TIP3    H123483   2.833   6.318   0.388  1.2097 -2.1895  1.3573
  664TIP3    H223484   2.835   6.331   0.238 -1.9211 -1.3501  1.3215
  665TIP3   OH223485   3.903   4.599   0.206  0.0619 -0.2367 -0.2808
  665TIP3    H123486   3.830   4.639   0.253  0.8708 -0.0246  0.8609
  665TIP3    H223487   3.980   4.643   0.241  0.9356 -2.2495  0.4693
  666TIP3   OH223488   0.419   3.409   4.943  0.0285 -0.2289  0.0054
  666TIP3    H123489   0.469   3.480   4.983  0.6459 -0.0009 -1.1234
  666TIP3    H223490   0.469   3.330   4.963  0.4385 -0.0931 -0.4650
  667TIP3   OH223491   5.172   3.314  13.701 -0.0915 -0.6008  0.1450
  667TIP3    H123492   5.148   3.223  13.682 -0.5641 -0.4524  0.0262
  667TIP3    H223493   5.125   3.366  13.636  2.4794 -0.4465 -1.7199
  668TIP3   OH223494   5.612   4.439   3.068 -0.7166 -0.5920  0.8023
  668TIP3    H123495   5.697   4.398   3.051 -0.0439  0.4434  1.5674
  668TIP3    H223496   5.578   4.461   2.981  0.5209  0.3696  0.5269
  669TIP3   OH223497   4.462   2.271  16.981 -0.5545  0.5345  0.2561
  669TIP3    H123498   4.383   2.226  16.948 -1.0320 -0.0892  2.1244
  669TIP3    H223499   4.532   2.206  16.970 -0.3413  0.9397 -1.0184
  670TIP3   OH223500   6.235   3.971   3.887 -0.3113  0.1525  0.1996
  670TIP3    H123501   6.212   3.952   3.796  0.1833  1.3257 -0.1948
  670TIP3    H223502   6.155   3.952   3.936 -0.9778  0.6500 -0.6521
  671TIP3   OH223503   3.171   2.742   5.820  0.0481  0.1391  0.0705
  671TIP3    H123504   3.082   2.709   5.805  0.2690 -0.5564  0.2673
  671TIP3    H223505   3.178   2.745   5.916  0.0152  0.8077  0.0548
  672TIP3   OH223506   4.454   2.736  14.665  0.0902 -0.0727 -0.5418
  672TIP3    H123507   4.531   2.788  14.641 -0.7930  1.6102  0.0736
  672TIP3    H223508   4.467   2.716  14.758  0.9484 -1.9652 -1.0285
  673TIP3   OH223509   5.496   1.467   4.915 -0.4304 -0.1575  0.3772
  673TIP3    H123510   5.416   1.416   4.929 -0.2738 -0.2035  1.1220
  673TIP3    H223511   5.499   1.529   4.988 -0.3566  0.5925 -0.2429
  674TIP3   OH223512   4.735   3.750   2.423 -0.5165  0.9387 -0.1083
  674TIP3    H123513   4.799   3.679   2.419  0.2427  1.6325 -0.4844
  674TIP3    H223514   4.734   3.776   2.515 -1.0644  0.2192  0.1034
  675TIP3   OH223515   2.460   1.447  11.835 -0.2256 -0.3468 -0.3368
  675TIP3    H123516   2.434   1.451  11.744  0.1033 -0.2337 -0.4285
  675TIP3    H223517   2.551   1.476  11.835 -0.4502  0.3723  0.1279
  676TIP3   OH223518   2.159   5.166  13.277  0.5499  0.5463  0.1378
  676TIP3    H123519   2.095   5.236  13.296  1.2277  1.0000  0.8383
  676TIP3    H223520   2.170   5.169  13.182 -1.1377 -0.1499 -0.1191
  677TIP3   OH223521   2.143   2.558  15.027 -0.1507  0.2645  0.7037
  677TIP3    H123522   2.212   2.548  14.961 -1.3570  0.1324 -0.5723
  677TIP3    H223523   2.182   2.523  15.107  1.5331  0.9093  0.2024
  678TIP3   OH223524   0.561   4.372  15.113  0.1826  0.1856  0.7341
  678TIP3    H123525   0.581   4.317  15.037  1.9893  1.7070  0.0187
  678TIP3    H223526   0.466   4.378  15.114 -0.0405 -2.2780  0.4045
  679TIP3   OH223527   1.711   5.113  13.755 -0.0298 -0.0583  0.6341
  679TIP3    H123528   1.698   5.128  13.848 -1.4684  1.1612  0.2810
  679TIP3    H223529   1.802   5.084  13.748  0.7490  1.7838  2.2190
  680TIP3   OH223530   3.885   5.048   4.959 -0.0252 -0.3179 -0.0316
  680TIP3    H123531   3.951   5.107   4.921 -0.7835  0.4753 -0.1266
  680TIP3    H223532   3.906   4.962   4.922  0.2650  0.1400 -0.9510
  681TIP3   OH223533   6.602   6.091  12.301 -0.1463 -0.4637  0.2865
  681TIP3    H123534   6.685   6.122  12.263 -0.3547 -0.2342  0.0122
  681TIP3    H223535   6.595   6.140  12.384 -0.5248  0.3189 -0.1940
  682TIP3   OH223536   3.177   1.152   2.730 -0.9744  0.0099  0.1862
  682TIP3    H123537   3.109   1.205   2.771 -0.8000  0.5050 -0.1523
  682TIP3    H223538   3.133   1.106   2.658 -1.4416 -1.4072  1.3227
  683TIP3   OH223539   0.811   5.711  11.010  0.3479  0.6043 -0.1331
  683TIP3    H123540   0.821   5.678  11.099 -2.2297  1.4312  0.5774
  683TIP3    H223541   0.818   5.633  10.955 -2.7287 -0.8422  1.2514
  684TIP3   OH223542   5.613   2.187   0.950  0.4929 -0.5970 -0.3170
  684TIP3    H123543   5.551   2.115   0.955 -1.0137  0.5787 -1.1994
  684TIP3    H223544   5.601   2.236   1.032  1.7160 -1.4441  0.4120
  685TIP3   OH223545   2.017   3.296  16.462  0.0049 -0.1488  1.2186
  685TIP3    H123546   2.013   3.282  16.557  1.0470 -2.1774  1.0317
  685TIP3    H223547   1.949   3.360  16.444 -0.9832 -0.5578  3.2041
  686TIP3   OH223548   2.970   6.400  15.456 -0.4526  0.5391  0.1835
  686TIP3    H123549   2.881   6.426  15.479 -1.2895 -1.6213 -0.3497
  686TIP3    H223550   3.016   6.483  15.442 -2.3884  1.7227  0.3965
  687TIP3   OH223551   5.622   1.511   2.130  0.0075 -0.4851 -0.6148
  687TIP3    H123552   5.689   1.575   2.151 -1.8758  0.6295  2.5313
  687TIP3    H223553   5.561   1.557   2.073  0.4679 -0.6759 -1.2842
  688TIP3   OH223554   0.488   4.022  17.234 -0.5618  0.3100  0.3060
  688TIP3    H123555   0.448   4.098  17.190  0.0632  0.5778  0.1831
  688TIP3    H223556   0.559   4.059  17.286 -0.0588 -0.2190  0.0147
  689TIP3   OH223557   1.503   0.958   3.758  0.4693  0.0837  0.2660
  689TIP3    H123558   1.525   1.012   3.682  2.7525 -1.2349 -0.1346
  689TIP3    H223559   1.540   1.005   3.833  0.7061  0.0479  0.1739
  690TIP3   OH223560   4.001   5.596   5.007  0.0418  0.0615 -0.3445
  690TIP3    H123561   4.020   5.507   5.038 -0.0115  0.2619  0.2630
  690TIP3    H223562   4.016   5.652   5.083 -0.9189  0.4646 -0.4450
  691TIP3   OH223563   5.027   2.954   5.184  0.0683 -0.4320  0.4908
  691TIP3    H123564   5.044   2.889   5.252  0.8960 -0.7283  0.0094
  691TIP3    H223565   5.113   2.972   5.146 -0.4906 -0.8897 -1.0511
  692TIP3   OH223566   4.871   4.660  14.259 -0.1861 -0.0592  0.9891
  692TIP3    H123567   4.781   4.684  14.237 -0.2015 -0.9635 -0.0410
  692TIP3    H223568   4.923   4.738  14.241 -0.5632 -0.0148  0.0664
  693TIP3   OH223569   6.647   4.039  14.315 -0.1271  0.4996 -0.2232
  693TIP3    H123570   6.704   4.108  14.349 -0.3127  0.0635  1.0369
  693TIP3    H223571   6.610   3.997  14.393 -1.5462  0.2440 -0.9810
  694TIP3   OH223572   5.911   2.394   1.612  0.0656  0.2248  0.4189
  694TIP3    H123573   5.996   2.372   1.573 -0.3159  0.9113 -0.8494
  694TIP3    H223574   5.933   2.435   1.696  0.9823  0.2753  0.1703
  695TIP3   OH223575   1.466   2.491  12.594 -0.0472 -0.2889 -0.1997
  695TIP3    H123576   1.549   2.477  12.638 -0.0942 -1.7407 -0.5225
  695TIP3    H223577   1.466   2.584  12.572  0.8215  0.0451  1.1164
  696TIP3   OH223578   0.536   1.599   5.087  0.1783  0.3057  0.3140
  696TIP3    H123579   0.526   1.631   5.177 -0.9043  0.0714  0.2882
  696TIP3    H223580   0.449   1.569   5.063  0.3332  0.8554 -1.0043
  697TIP3   OH223581   1.140   0.675   2.712 -0.4134 -0.2253  0.0375
  697TIP3    H123582   1.182   0.604   2.664 -0.9330 -0.6042  0.1304
  697TIP3    H223583   1.079   0.631   2.771 -1.8612  0.3377 -0.9892
  698TIP3   OH223584   2.974   5.481   0.316  0.1349 -0.4024  0.6908
  698TIP3    H123585   3.039   5.436   0.371  1.5960  0.0110 -0.6410
  698TIP3    H223586   3.011   5.479   0.228 -1.4337  0.3162 -0.0226
  699TIP3   OH223587   1.748   6.329  16.264  0.3346  0.0847 -0.7556
  699TIP3    H123588   1.743   6.238  16.236  2.2330  0.1665 -1.5577
  699TIP3    H223589   1.685   6.336  16.336 -0.2550 -1.6944 -1.0441
  700TIP3   OH223590   3.442   4.342   5.280 -0.2547  0.6564  0.1297
  700TIP3    H123591   3.498   4.288   5.337  0.2528 -1.2059 -1.9924
  700TIP3    H223592   3.353   4.313   5.301 -0.0726 -0.0176  0.0141
  701TIP3   OH223593   6.266   0.176  16.038  0.0388  0.0514  0.1158
  701TIP3    H123594   6.354   0.184  16.075  0.4969 -0.4574 -0.8234
  701TIP3    H223595   6.229   0.097  16.078  1.3478 -1.7746 -2.0129
  702TIP3   OH223596   0.684   1.328   1.614  0.2207 -0.2188 -0.0338
  702TIP3    H123597   0.600   1.296   1.647 -0.4944  2.0155  0.4879
  702TIP3    H223598   0.668   1.345   1.521  0.1855 -0.1267 -0.0116
  703TIP3   OH223599   4.627   2.441   0.377 -0.3942  0.3447 -0.6524
  703TIP3    H123600   4.534   2.418   0.369 -0.4074  0.2472 -0.2455
  703TIP3    H223601   4.629   2.507   0.446  0.2750 -2.6504  2.4403
  704TIP3   OH223602   2.958   5.509  14.490 -0.0287 -0.0182 -1.0273
  704TIP3    H123603   3.035   5.484  14.440  1.4533  0.7217  0.7805
  704TIP3    H223604   2.891   5.445  14.465  1.2820 -0.9377 -2.3066
  705TIP3   OH223605   5.220   2.723   2.278 -0.2019  0.5915 -0.5892
  705TIP3    H123606   5.267   2.669   2.213 -0.5568 -0.1351 -0.2519
  705TIP3    H223607   5.288   2.779   2.316 -0.3470  2.7561 -3.2366
  706TIP3   OH223608   6.717   0.371  15.497  0.0717 -0.5314 -0.2766
  706TIP3    H123609   6.771   0.450  15.493 -3.0008  1.7790 -0.3690
  706TIP3    H223610   6.693   0.353  15.406 -1.1414 -0.0848 -0.0634
  707TIP3   OH223611   0.995   4.444  11.078  0.3258 -0.1096 -0.4682
  707TIP3    H123612   0.920   4.427  11.021 -1.4158  1.5814  1.1940
  707TIP3    H223613   1.071   4.418  11.025 -1.3216 -0.8475 -2.6325
  708TIP3   OH223614   6.386   5.227  17.014 -0.5030  0.0924  0.0597
  708TIP3    H123615   6.338   5.230  16.932 -0.4923 -1.5475 -0.0297
  708TIP3    H223616   6.427   5.313  17.021 -0.9594  0.4432 -1.3651
  709TIP3   OH223617   3.749   4.187   1.823 -0.0753  0.4752 -0.4512
  709TIP3    H123618   3.831   4.230   1.849 -0.2925  0.6598 -0.0619
  709TIP3    H223619   3.713   4.242   1.754  0.3251  0.1785 -0.9045
  710TIP3   OH223620   2.172   4.722   2.482  0.3715 -0.1562 -0.0521
  710TIP3    H123621   2.080   4.730   2.456 -0.3498 -0.3695  2.2145
  710TIP3    H223622   2.198   4.636   2.451  0.0021  0.1491 -1.2544
  711TIP3   OH223623   5.309   5.611   5.151  0.2233 -0.0173 -0.2600
  711TIP3    H123624   5.308   5.705   5.170 -1.0032  0.1579 -1.0726
  711TIP3    H223625   5.217   5.584   5.158  0.4041 -0.9112 -1.1700
  712TIP3   OH223626   0.850   3.972   0.934  0.8849  0.3861  0.0130
  712TIP3    H123627   0.817   3.922   0.860 -1.4426  1.9977 -0.1322
  712TIP3    H223628   0.915   4.032   0.897  0.3879  0.5629 -0.5732
  713TIP3   OH223629   5.143   0.711   5.881 -0.3043 -0.1142 -0.1377
  713TIP3    H123630   5.129   0.801   5.852 -1.7227  0.4578  2.1238
  713TIP3    H223631   5.215   0.717   5.945 -0.1574 -0.6579 -0.2438
  714TIP3   OH223632   3.816   0.336  13.037  0.1674 -0.1788  0.0215
  714TIP3    H123633   3.826   0.264  13.099 -1.3650 -0.6177 -0.2137
  714TIP3    H223634   3.729   0.324  13.000  0.6456  0.6815 -1.4589
  715TIP3   OH223635   4.770   6.470   3.507 -0.9015 -0.2168 -0.2205
  715TIP3    H123636   4.702   6.427   3.455 -1.9074 -0.6901  1.4202
  715TIP3    H223637   4.784   6.412   3.582 -0.4857  1.1009  0.7641
  716TIP3   OH223638   1.938   0.711   1.339 -0.0880 -0.4106  0.4280
  716TIP3    H123639   1.947   0.771   1.265  3.3693 -0.5890  0.5495
  716TIP3    H223640   1.883   0.758   1.402 -0.6315  0.9889 -1.0253
  717TIP3   OH223641   3.241   1.584   0.065  0.2637  0.1436  0.1989
  717TIP3    H123642   3.213   1.564   0.154 -1.2094 -2.8283 -0.8248
  717TIP3    H223643   3.320   1.532   0.053 -0.0961 -0.2306 -0.5550
  718TIP3   OH223644   4.353   1.759   2.572 -0.1524 -0.1146  0.2021
  718TIP3    H123645   4.353   1.677   2.522 -1.9330 -0.3281  0.5121
  718TIP3    H223646   4.326   1.825   2.508 -1.4819 -0.2334  0.6289
  719TIP3   OH223647   2.874   4.552  11.971  0.6401  0.6284  0.0444
  719TIP3    H123648   2.945   4.584  11.915  2.0811 -3.4193 -0.7760
  719TIP3    H223649   2.798   4.547  11.913  1.1426 -0.0415 -0.5684
  720TIP3   OH223650   1.619   0.981  14.879  0.2059  0.0072 -0.1123
  720TIP3    H123651   1.552   0.946  14.821  0.2384  0.5851 -0.5082
  720TIP3    H223652   1.581   1.062  14.913  0.8650  0.5635 -0.6760
  721TIP3   OH223653   0.249   3.157   0.975  0.4680  0.4712 -0.3104
  721TIP3    H123654   0.333   3.114   0.993 -0.3136 -0.3203  1.7979
  721TIP3    H223655   0.262   3.248   1.001  0.1335 -0.0993  2.0682
  722TIP3   OH223656   1.598   3.469   4.228  0.0682  0.1257 -1.0329
  722TIP3    H123657   1.653   3.446   4.153  1.1294 -0.1819 -0.1983
  722TIP3    H223658   1.569   3.558   4.211  0.7155  0.2376 -1.5746
  723TIP3   OH223659   5.112   2.830   0.747  0.2720  0.2454  0.1098
  723TIP3    H123660   5.188   2.863   0.796  0.7141  0.1886 -0.5290
  723TIP3    H223661   5.139   2.834   0.656 -0.4182  0.0079 -0.1086
  724TIP3   OH223662   4.242   1.892  16.578 -0.1781  0.3070 -0.0879
  724TIP3    H123663   4.217   1.878  16.486  1.8767 -0.0385 -0.6310
  724TIP3    H223664   4.253   1.804  16.614 -0.0869  0.4488  0.2337
  725TIP3   OH223665   6.256   5.758  10.831 -0.1346  0.7059 -0.5408
  725TIP3    H123666   6.187   5.699  10.861 -0.1801 -0.2970 -2.4888
  725TIP3    H223667   6.321   5.702  10.791  0.0990  1.9147 -1.9401
  726TIP3   OH223668   3.465   6.625   1.104  0.3962  0.1826  0.1599
  726TIP3    H123669   3.398   6.694   1.098 -0.8377 -1.0249 -0.5539
  726TIP3    H223670   3.530   6.660   1.164 -1.5206  0.8985  1.9331
  727TIP3   OH223671   0.683   6.058   2.040 -0.1094 -0.3656 -0.0112
  727TIP3    H123672   0.724   5.974   2.021  3.4374  0.9185  1.1373
  727TIP3    H223673   0.627   6.040   2.116 -0.4845 -1.9439 -0.6322
  728TIP3   OH223674   2.280   2.557   1.785 -0.3635  0.0502  0.2622
  728TIP3    H123675   2.232   2.636   1.809  0.3591  0.5824 -0.0077
  728TIP3    H223676   2.256   2.493   1.853 -0.7642  0.5696  0.6198
  729TIP3   OH223677   5.299   3.500   0.205 -0.3927 -0.7035 -0.0119
  729TIP3    H123678   5.385   3.539   0.188 -0.2123 -1.3178 -0.5537
  729TIP3    H223679   5.308   3.457   0.290 -0.7969  0.9699  0.9285
  730TIP3   OH223680   3.879   5.987   3.775  0.3874 -0.8713  0.4785
  730TIP3    H123681   3.863   5.986   3.870  0.9364  2.1467  0.7043
  730TIP3    H223682   3.819   6.053   3.742  0.4666 -1.6226 -1.2593
  731TIP3   OH223683   5.581   5.586   2.447  0.7474  0.0341 -0.0607
  731TIP3    H123684   5.592   5.640   2.525 -4.1441  0.5291  0.6058
  731TIP3    H223685   5.556   5.500   2.481  0.3528 -0.2576 -1.0514
  732TIP3   OH223686   1.875   4.294  14.673 -0.0576  0.2058  0.3570
  732TIP3    H123687   1.908   4.384  14.677 -0.5537  0.3424  1.9503
  732TIP3    H223688   1.886   4.269  14.581 -1.0233  2.3146 -0.3938
  733TIP3   OH223689   5.957   2.380   3.120 -0.2499 -0.4367 -0.3972
  733TIP3    H123690   5.975   2.303   3.173 -0.4203 -0.8685 -0.9572
  733TIP3    H223691   6.038   2.395   3.071  0.7511  1.3297  1.6162
  734TIP3   OH223692   2.946   5.429  13.810  0.1805 -0.7284 -0.5248
  734TIP3    H123693   2.922   5.399  13.722 -0.1380 -3.1554  0.2939
  734TIP3    H223694   2.976   5.519  13.798 -0.7154 -0.6806 -2.9625
  735TIP3   OH223695   5.604   4.271   2.187 -0.6276 -0.3495 -0.2606
  735TIP3    H123696   5.619   4.362   2.212 -0.4586 -0.5724  0.5068
  735TIP3    H223697   5.598   4.224   2.271  0.5123 -1.2366 -0.6494
  736TIP3   OH223698   6.219   3.971   5.246 -0.4365  0.4651  0.2993
  736TIP3    H123699   6.292   3.931   5.295 -1.3108 -1.7922 -0.0868
  736TIP3    H223700   6.143   3.957   5.302 -0.9806  0.4549 -0.4326
  737TIP3   OH223701   1.953   0.356   3.347 -0.4593  0.5364  0.2428
  737TIP3    H123702   1.911   0.406   3.417 -2.2599  0.0421 -0.4216
  737TIP3    H223703   1.891   0.359   3.274  0.3416 -0.8528 -0.5515
  738TIP3   OH223704   3.140   2.034   4.049 -0.1487  0.1382  0.2858
  738TIP3    H123705   3.144   2.003   4.139 -0.7022 -0.1771  0.2006
  738TIP3    H223706   3.136   2.129   4.057  1.9826  0.2637  0.5380
  739TIP3   OH223707   2.374   5.893   0.790 -0.0180 -0.0429  0.2513
  739TIP3    H123708   2.292   5.942   0.785  0.0476  0.0114 -0.2469
  739TIP3    H223709   2.366   5.825   0.724 -0.9393 -1.9656  2.1901
  740TIP3   OH223710   5.056   3.597   5.426 -0.0000  0.3950  0.3662
  740TIP3    H123711   5.010   3.658   5.369  0.5665  0.6423  0.1680
  740TIP3    H223712   5.090   3.530   5.367 -1.3378 -0.6078  0.6654
  741TIP3   OH223713   0.011   0.714  12.090  1.2178  0.3381  0.2897
  741TIP3    H123714   0.091   0.761  12.068  2.2453 -2.1407 -1.7900
  741TIP3    H223715  -0.059   0.765  12.051  2.0531  1.2148 -0.0858
  742TIP3   OH223716   6.593   3.483   1.262 -0.7450 -0.0299 -0.1423
  742TIP3    H123717   6.677   3.519   1.291  0.1988 -2.6212  0.6289
  742TIP3    H223718   6.531   3.505   1.331 -0.1552 -0.0547  0.3929
  743TIP3   OH223719   2.687   0.914  13.835  0.1388 -0.3914 -0.0749
  743TIP3    H123720   2.726   0.923  13.922 -1.2112  1.3930  0.4070
  743TIP3    H223721   2.722   0.987  13.785 -2.0907  1.0239  0.2519
  744TIP3   OH223722   0.150   3.081  11.360  0.3392  0.5180  0.3750
  744TIP3    H123723   0.165   3.104  11.451 -0.1226  1.2656  0.2724
  744TIP3    H223724   0.055   3.087  11.348  0.3338 -0.1806  0.0017
  745TIP3   OH223725   6.207   4.663   6.103  0.0006 -0.3527  0.2435
  745TIP3    H123726   6.175   4.581   6.066  0.7770 -0.2716 -0.6403
  745TIP3    H223727   6.266   4.636   6.174 -1.4827 -0.5084  1.4536
  746TIP3   OH223728   6.659   0.285  13.356 -0.0272 -0.3125  0.5806
  746TIP3    H123729   6.721   0.218  13.326 -0.6312 -0.3161 -0.7592
  746TIP3    H223730   6.612   0.244  13.428 -0.4735 -1.4084 -0.3029
  747TIP3   OH223731   0.176   2.362   0.149 -0.5191  1.1642 -0.0737
  747TIP3    H123732   0.133   2.404   0.224  2.0797  0.1102  2.1694
  747TIP3    H223733   0.251   2.418   0.130  0.8568 -0.4099  0.5128
  748TIP3   OH223734   0.899   0.238  13.746  0.0756 -0.1424  0.7191
  748TIP3    H123735   0.909   0.219  13.839  3.4139 -2.0607  0.1039
  748TIP3    H223736   0.978   0.286  13.722 -0.2467 -0.5266 -1.3382
  749TIP3   OH223737   4.748   0.532  16.625  0.2943 -0.0563 -0.4345
  749TIP3    H123738   4.661   0.493  16.617  0.6534 -1.2319  0.9299
  749TIP3    H223739   4.805   0.474  16.575  0.6673 -0.7467  0.7540
  750TIP3   OH223740   6.009   2.473   4.582 -0.4575  0.3866 -0.3689
  750TIP3    H123741   6.068   2.513   4.647 -1.3695  1.0618  0.0582
  750TIP3    H223742   6.011   2.380   4.603 -1.1799  0.6607  1.0220
  751TIP3   OH223743   2.063   2.885   4.409 -0.2321 -0.3113 -0.2823
  751TIP3    H123744   2.057   2.962   4.353  0.8407  0.4360  0.6035
  751TIP3    H223745   1.998   2.900   4.478  0.8797  0.4504  0.6292
  752TIP3   OH223746   0.171   6.095  11.056 -0.1747 -0.0944 -0.1859
  752TIP3    H123747   0.148   6.143  10.976  0.9032 -0.7346 -0.9133
  752TIP3    H223748   0.223   6.020  11.025  2.2850  0.8807  1.2330
  753TIP3   OH223749   6.528   3.570   0.608  0.5640 -0.0333  0.0600
  753TIP3    H123750   6.596   3.635   0.596 -0.9173  1.3765 -1.1973
  753TIP3    H223751   6.465   3.587   0.537 -1.7727 -0.3450  1.9071
  754TIP3   OH223752   1.279   0.091  15.395  0.4832  0.0936  0.2929
  754TIP3    H123753   1.215   0.062  15.329  0.6635 -0.6693  0.4522
  754TIP3    H223754   1.272   0.187  15.393  1.6753  0.2255 -2.0578
  755TIP3   OH223755   3.570   1.843  16.716  0.0658 -0.1517 -0.2959
  755TIP3    H123756   3.602   1.782  16.649 -0.3748 -0.4830 -0.2089
  755TIP3    H223757   3.599   1.804  16.799  0.3254  0.0874 -0.2730
  756TIP3   OH223758   3.294   1.110  14.285 -0.1484  0.3352  0.0013
  756TIP3    H123759   3.390   1.107  14.279 -0.0097  0.5577  1.6109
  756TIP3    H223760   3.274   1.204  14.284 -0.4925  0.2840 -1.6349
  757TIP3   OH223761   6.317   0.765   3.069  0.2438  0.1986  0.6485
  757TIP3    H123762   6.250   0.699   3.089  0.9836 -1.0342 -0.7633
  757TIP3    H223763   6.351   0.792   3.155 -0.6622 -0.6292  1.2868
  758TIP3   OH223764   6.155   4.434  11.606 -0.1264 -0.3803 -0.0021
  758TIP3    H123765   6.125   4.442  11.697  0.1746 -2.6657  0.3681
  758TIP3    H223766   6.217   4.361  11.608  2.4324  1.5727 -1.4839
  759TIP3   OH223767   5.505   6.474   6.425  0.0157 -0.5799  0.1210
  759TIP3    H123768   5.448   6.428   6.487  0.7161 -0.3101  0.9884
  759TIP3    H223769   5.587   6.426   6.428  0.1940 -0.2999 -0.2802
  760TIP3   OH223770   5.368   4.372  17.076  0.4358 -0.0013  0.0342
  760TIP3    H123771   5.282   4.331  17.074  0.5571 -0.3967  1.6042
  760TIP3    H223772   5.429   4.298  17.079  0.8146  0.2803 -0.5256
  761TIP3   OH223773   3.747   2.142  14.796 -0.3530 -0.3007  0.0361
  761TIP3    H123774   3.746   2.078  14.867 -3.0702 -0.5736 -0.1397
  761TIP3    H223775   3.674   2.200  14.815  1.7866  2.6200 -0.0380
  762TIP3   OH223776   0.680   5.617  12.294 -0.4502 -0.3902 -0.0635
  762TIP3    H123777   0.683   5.543  12.233  1.5724  0.6262 -1.3276
  762TIP3    H223778   0.752   5.601  12.355 -0.9486 -0.2078  0.5737
  763TIP3   OH223779   2.915   4.209  13.811  0.4200  0.5490  0.0952
  763TIP3    H123780   2.909   4.207  13.907 -0.9015 -0.9752  0.0442
  763TIP3    H223781   2.876   4.125  13.784 -0.2433  1.4175 -1.8153
  764TIP3   OH223782   5.487   5.238   4.374 -0.3238 -0.1255 -0.1531
  764TIP3    H123783   5.440   5.321   4.363  0.8255  0.2724 -2.9773
  764TIP3    H223784   5.425   5.171   4.345 -0.7666 -0.1088  0.7479
  765TIP3   OH223785   3.895   5.752   6.386 -0.2205  0.6322 -0.1770
  765TIP3    H123786   3.956   5.714   6.449 -0.4435  1.3091  0.4511
  765TIP3    H223787   3.848   5.677   6.350  1.4154  0.0033 -1.1619
  766TIP3   OH223788   2.082   1.499   2.850  0.2071  0.0401  0.2427
  766TIP3    H123789   2.043   1.539   2.928  1.7040 -0.6186  1.3699
  766TIP3    H223790   2.045   1.548   2.777 -1.7297  0.2701  1.3045
  767TIP3   OH223791   0.817   6.163   1.128 -0.3906 -0.3950  0.4720
  767TIP3    H123792   0.864   6.209   1.198 -2.1022  1.1008  0.7109
  767TIP3    H223793   0.884   6.142   1.064  0.6710  1.3930  0.9341
  768TIP3   OH223794   6.549   0.357  15.709  0.5126 -0.2351  0.2970
  768TIP3    H123795   6.590   0.347  15.795  1.9218  2.0268 -0.0390
  768TIP3    H223796   6.623   0.366  15.648 -0.3430  3.1548 -0.4479
  769TIP3   OH223797   4.202   6.666   2.602  0.2360 -0.1781  0.1993
  769TIP3    H123798   4.279   6.717   2.578  0.2761  0.1748  1.0568
  769TIP3    H223799   4.142   6.676   2.527  1.3206 -1.1102 -0.8365
  770TIP3   OH223800   5.814   3.251  16.152  0.3395  0.3777 -0.5921
  770TIP3    H123801   5.777   3.182  16.096 -0.3550 -0.1016  0.4308
  770TIP3    H223802   5.743   3.275  16.211  1.2274  0.4481  0.4734
  771TIP3   OH223803   5.684   0.287  10.693 -0.8832  0.1798  0.2746
  771TIP3    H123804   5.624   0.334  10.635 -0.8997 -1.5678 -1.2506
  771TIP3    H223805   5.765   0.280  10.642  0.3050  1.5998  1.8924
  772TIP3   OH223806   1.815   2.307   1.513  0.1622 -0.8642  0.2791
  772TIP3    H123807   1.881   2.370   1.541 -0.4538 -0.4825  0.9192
  772TIP3    H223808   1.779   2.344   1.433  0.8509 -1.1711 -0.1780
  773TIP3   OH223809   0.284   5.984   1.166  0.0032 -0.0044 -0.1029
  773TIP3    H123810   0.264   5.986   1.073  0.1893 -2.6425 -0.2753
  773TIP3    H223811   0.374   6.016   1.172  0.8025 -1.8749 -1.1638
  774TIP3   OH223812   0.601   3.599  13.537 -0.7839  0.2738  0.2078
  774TIP3    H123813   0.598   3.551  13.455  0.7187 -1.4205  1.0614
  774TIP3    H223814   0.653   3.677  13.518  0.9357 -0.9015 -0.1357
  775TIP3   OH223815   4.019   1.674  16.908 -0.0148 -1.2151 -0.2108
  775TIP3    H123816   4.074   1.674  16.830  1.1067 -2.3409  0.5558
  775TIP3    H223817   4.037   1.591  16.951 -2.7761 -1.9221 -0.2129
  776TIP3   OH223818   4.509   1.169   4.877 -0.2622 -0.2609 -0.0561
  776TIP3    H123819   4.504   1.075   4.889 -0.1780 -0.3137 -0.4040
  776TIP3    H223820   4.446   1.188   4.807  0.3855 -0.1886 -0.6366
  777TIP3   OH223821   4.224   2.349   2.446 -0.7909 -0.0263  0.2598
  777TIP3    H123822   4.157   2.321   2.384 -1.8781 -0.2171  1.5028
  777TIP3    H223823   4.193   2.433   2.480  0.9271  1.2491 -1.1043
  778TIP3   OH223824   6.453   2.346  12.432  0.0881 -0.1273 -0.1030
  778TIP3    H123825   6.512   2.411  12.471 -0.9110  0.2389  0.8489
  778TIP3    H223826   6.379   2.341  12.492 -0.6467 -0.9206 -1.0307
  779TIP3   OH223827   2.209   6.257  14.000  0.5080  0.8616  0.0023
  779TIP3    H123828   2.172   6.236  14.085 -2.7508  0.0159 -1.4496
  779TIP3    H223829   2.151   6.325  13.965 -1.0226 -1.7928 -3.1697
  780TIP3   OH223830   6.331   0.860  13.582  0.0487 -0.0376  0.1502
  780TIP3    H123831   6.413   0.821  13.554  1.2858  0.9751  2.0901
  780TIP3    H223832   6.275   0.786  13.605  0.3202 -0.7439 -1.4017
  781TIP3   OH223833   6.569   4.900   2.206  0.1724 -0.6348 -0.2070
  781TIP3    H123834   6.521   4.982   2.212  0.2569 -0.5606 -0.4987
  781TIP3    H223835   6.661   4.926   2.199  0.2821 -0.7843  0.6209
  782TIP3   OH223836   1.023   3.919   2.976 -0.1576 -0.5062  0.2963
  782TIP3    H123837   0.980   3.855   2.921  0.2837 -0.7050  0.1750
  782TIP3    H223838   1.114   3.920   2.946 -0.3785  0.9569 -0.4293
  783TIP3   OH223839   3.500   5.449  11.432  0.6057 -1.1460  0.9264
  783TIP3    H123840   3.455   5.382  11.483 -1.4272 -0.9832 -0.4975
  783TIP3    H223841   3.462   5.531  11.462  2.3397 -0.6704  1.9363
  784TIP3   OH223842   5.613   0.394   5.704 -0.0045  0.2075  0.4809
  784TIP3    H123843   5.627   0.484   5.733 -1.5824  1.2527 -1.6783
  784TIP3    H223844   5.554   0.356   5.769  0.7540  0.6757  1.4626
  785TIP3   OH223845   1.083   0.836  13.717  0.4126 -0.1301  0.0642
  785TIP3    H123846   1.177   0.825  13.728  0.8431  1.9932 -0.9369
  785TIP3    H223847   1.065   0.800  13.630  0.7269  1.3640 -0.6504
  786TIP3   OH223848   6.088   1.797   5.010 -0.5769  0.2368  0.2649
  786TIP3    H123849   6.175   1.767   4.985 -1.0126  0.0351 -1.1058
  786TIP3    H223850   6.028   1.737   4.965 -1.4840  2.9320 -2.4940
  787TIP3   OH223851   3.100   2.986  14.404  0.0935  0.0637 -0.3423
  787TIP3    H123852   3.135   2.987  14.493  0.8204  0.6083 -0.6230
  787TIP3    H223853   3.019   2.935  14.411  1.1040 -1.5244  0.2589
  788TIP3   OH223854   1.159   4.491  11.985  0.6062  0.5537 -0.3640
  788TIP3    H123855   1.108   4.479  12.064  1.0739  2.2238  0.2317
  788TIP3    H223856   1.101   4.461  11.914  0.9559 -3.0550  0.6699
  789TIP3   OH223857   4.022   6.675  15.126  0.3617 -0.0854  0.2717
  789TIP3    H123858   4.014   6.747  15.063  0.6148 -0.7444 -0.5345
  789TIP3    H223859   3.937   6.632  15.124  0.0821  0.4171  1.0485
  790TIP3   OH223860   1.594   1.596  10.301 -0.4745  0.1675  0.2710
  790TIP3    H123861   1.652   1.615  10.227 -0.0690 -0.4931  0.4096
  790TIP3    H223862   1.648   1.547  10.362 -0.5868  1.3458  1.3658
  791TIP3   OH223863   5.499   4.949   2.833 -0.7181 -0.2008 -0.0023
  791TIP3    H123864   5.450   4.988   2.760 -1.9557 -2.1056 -0.2703
  791TIP3    H223865   5.550   4.880   2.792  0.3765  0.2041  0.6471
  792TIP3   OH223866   6.335   2.849   5.983 -0.7547  0.2264 -0.5182
  792TIP3    H123867   6.405   2.878   6.042  0.9232  0.0531 -2.3095
  792TIP3    H223868   6.333   2.754   5.993 -0.8775  0.2549 -0.2897
  793TIP3   OH223869   5.865   0.555   5.990 -0.2691 -0.1383  0.4044
  793TIP3    H123870   5.785   0.526   5.946  0.2489  0.4887 -1.0086
  793TIP3    H223871   5.834   0.611   6.061 -1.0991 -0.1942  0.0964
  794TIP3   OH223872   2.194   3.365  12.316 -0.3084 -0.0259 -0.7514
  794TIP3    H123873   2.127   3.409  12.368 -1.4349 -0.9680 -1.3636
  794TIP3    H223874   2.271   3.363  12.373 -0.7069  1.3128 -0.1314
  795TIP3   OH223875   3.105   4.413  13.845  0.1652 -0.0754  0.5730
  795TIP3    H123876   3.085   4.329  13.887  0.1005  0.4949  1.7437
  795TIP3    H223877   3.033   4.470  13.872  1.1920  0.8718  1.4048
  796TIP3   OH223878   5.735   4.452   5.142  0.0386 -0.4235 -0.0497
  796TIP3    H123879   5.679   4.421   5.213  0.8991 -2.1372 -0.0704
  796TIP3    H223880   5.690   4.424   5.062  0.0294 -0.1992 -0.1246
  797TIP3   OH223881   4.336   5.437   3.312  0.2960  0.2263 -0.1600
  797TIP3    H123882   4.298   5.454   3.399 -1.4673  0.4875 -0.9235
  797TIP3    H223883   4.386   5.357   3.323  1.5914  1.1930  1.5037
  798TIP3   OH223884   1.104   3.513  16.305 -0.0475 -0.1519  0.0467
  798TIP3    H123885   1.096   3.609  16.305 -0.6002 -0.1899  0.6688
  798TIP3    H223886   1.109   3.490  16.398  1.1335 -0.6546 -0.1262
  799TIP3   OH223887   6.419   4.797   2.617  0.1641  0.1066  0.0345
  799TIP3    H123888   6.482   4.852   2.663 -0.9407  0.8982  0.6399
  799TIP3    H223889   6.355   4.773   2.684  0.6567 -2.0256 -0.1849
  800TIP3   OH223890   3.596   0.463   0.200 -0.2117 -0.6873  0.2592
  800TIP3    H123891   3.682   0.430   0.173 -0.0759  2.5332 -4.6004
  800TIP3    H223892   3.614   0.521   0.273  2.1035  0.7031 -1.2753
  801TIP3   OH223893   3.417   5.927  11.342 -0.5811  0.2526  0.1225
  801TIP3    H123894   3.445   6.015  11.366  0.6553 -0.1555  0.2231
  801TIP3    H223895   3.374   5.893  11.420  0.6574  0.0736  0.7527
  802TIP3   OH223896   1.131   0.457  11.923  0.1140 -0.2864  0.1959
  802TIP3    H123897   1.072   0.470  11.997  0.0536  1.2471 -0.0840
  802TIP3    H223898   1.185   0.382  11.948  0.4141  0.4771  2.0129
  803TIP3   OH223899   3.869   2.122   6.023 -0.3296 -0.4791  0.7366
  803TIP3    H123900   3.816   2.099   6.099 -2.2369 -0.8038 -0.6204
  803TIP3    H223901   3.807   2.128   5.951  1.3645  0.1340 -0.7607
  804TIP3   OH223902   0.607   1.282  15.349 -0.0582  0.0865 -0.5488
  804TIP3    H123903   0.583   1.203  15.301 -1.4560  1.0786 -1.5738
  804TIP3    H223904   0.534   1.296  15.409  0.2525  0.5280 -0.2714
  805TIP3   OH223905   3.054   2.602   1.985  0.4132  0.0560 -0.0142
  805TIP3    H123906   3.055   2.540   2.058  1.6423 -0.0148 -0.0728
  805TIP3    H223907   3.085   2.551   1.910 -2.8853 -0.4989 -1.1748
  806TIP3   OH223908   6.165   6.450  11.276 -0.2174  0.5004  0.7341
  806TIP3    H123909   6.147   6.402  11.357 -0.5877  1.6883  1.3751
  806TIP3    H223910   6.253   6.422  11.251 -0.5093 -0.6721  0.9585
  807TIP3   OH223911   6.357   1.396  12.850  0.1874 -0.1047  0.0706
  807TIP3    H123912   6.451   1.406  12.863  0.4629 -2.1212 -0.1456
  807TIP3    H223913   6.348   1.371  12.758 -0.2100 -3.1820  0.8414
  808TIP3   OH223914   0.120   2.780   4.539 -0.5079 -0.9017 -0.6093
  808TIP3    H123915   0.144   2.872   4.552 -2.5676 -0.2505 -1.0880
  808TIP3    H223916   0.119   2.743   4.628  2.8720 -1.2410 -0.5808
  809TIP3   OH223917   1.962   0.573  13.102  0.0345 -0.4556 -0.8337
  809TIP3    H123918   1.999   0.493  13.066  0.3124 -0.8859  0.3454
  809TIP3    H223919   2.009   0.586  13.184  0.2158  1.1114 -1.1671
  810TIP3   OH223920   4.282   0.945  13.698 -0.1900  0.7789  0.3122
  810TIP3    H123921   4.208   0.975  13.645  1.5724  3.5776 -0.7661
  810TIP3    H223922   4.241   0.899  13.772 -2.7851 -1.7891 -2.4594
  811TIP3   OH223923   5.037   1.343  16.841  0.0246 -0.0979  1.1667
  811TIP3    H123924   5.077   1.363  16.756  0.2960  1.1889  1.5720
  811TIP3    H223925   4.964   1.284  16.820  0.5739 -0.4325  0.1336
  812TIP3   OH223926   5.008   3.073   3.797 -0.1638 -0.3780  0.5102
  812TIP3    H123927   4.959   3.125   3.862 -0.4993 -0.8686  0.6598
  812TIP3    H223928   4.941   3.022   3.753  0.2252 -1.1504  0.7975
  813TIP3   OH223929   4.128   0.292   4.087 -0.4429 -0.1170 -0.2381
  813TIP3    H123930   4.039   0.310   4.059 -1.2185 -0.7530  1.6679
  813TIP3    H223931   4.146   0.204   4.056 -0.3394  0.1481 -0.9361
  814TIP3   OH223932   1.681   5.361  11.248 -0.0041 -0.0965  0.3294
  814TIP3    H123933   1.729   5.280  11.267 -0.1331  0.2540  2.3865
  814TIP3    H223934   1.681   5.367  11.153  1.2652 -1.7596  0.1751
  815TIP3   OH223935   4.779   1.513  12.010 -0.3247 -0.3913 -0.3455
  815TIP3    H123936   4.855   1.524  12.067 -0.4949  0.6273 -0.2968
  815TIP3    H223937   4.772   1.595  11.962  0.6806 -1.7151 -2.9523
  816TIP3   OH223938   0.645   3.649  14.972  0.0774 -0.0669 -0.2147
  816TIP3    H123939   0.687   3.731  14.999 -0.6722  0.2025  0.1717
  816TIP3    H223940   0.693   3.622  14.893 -0.3343  1.2882 -0.9546
  817TIP3   OH223941   6.084   5.188   2.827  0.2699  0.3094 -0.6693
  817TIP3    H123942   6.029   5.135   2.884  1.8012  0.7772  1.3381
  817TIP3    H223943   6.144   5.126   2.786 -0.4537  0.0512 -1.3752
  818TIP3   OH223944   2.504   2.840  12.728  0.2339  0.5769  0.1589
  818TIP3    H123945   2.434   2.809  12.671 -1.2284  3.2444  0.3607
  818TIP3    H223946   2.467   2.838  12.816  0.9185  0.6497  0.4598
  819TIP3   OH223947   0.723   0.493  12.180 -0.6383  0.0719  0.0712
  819TIP3    H123948   0.650   0.436  12.204 -0.4380 -0.5883 -0.8490
  819TIP3    H223949   0.709   0.513  12.088  0.7661 -0.7359 -0.3480
  820TIP3   OH223950   3.315   2.793  15.184 -0.6257  0.0314  0.9265
  820TIP3    H123951   3.241   2.764  15.129 -1.0457 -0.1422  1.5676
  820TIP3    H223952   3.325   2.723  15.248  1.2569 -0.7973 -0.2075
  821TIP3   OH223953   5.248   5.195  15.857 -0.2178 -0.5652  0.1318
  821TIP3    H123954   5.222   5.287  15.871 -1.6134 -0.9327  0.1451
  821TIP3    H223955   5.343   5.196  15.859 -0.2000  0.4327  3.1429
  822TIP3   OH223956   4.276   5.204  12.066 -0.2607  0.3691  0.0832
  822TIP3    H123957   4.365   5.208  12.030 -0.1115  0.7385  0.4876
  822TIP3    H223958   4.267   5.284  12.117 -0.7746  0.2591  0.1692
  823TIP3   OH223959   1.440   3.749  13.241  0.1334 -0.0281  0.1132
  823TIP3    H123960   1.363   3.805  13.233 -1.0185 -1.7025 -1.4500
  823TIP3    H223961   1.514   3.810  13.243 -0.8785  1.6086 -3.5264
  824TIP3   OH223962   5.874   6.216  16.179 -0.3157  1.1111  0.1044
  824TIP3    H123963   5.918   6.205  16.095 -0.0616 -1.5789  0.4799
  824TIP3    H223964   5.783   6.234  16.156 -0.1304  1.0108 -0.7564
  825TIP3   OH223965   6.050   0.663   5.481  0.4430 -0.2709 -0.1529
  825TIP3    H123966   6.004   0.745   5.499 -0.2136 -0.7362  0.3604
  825TIP3    H223967   6.067   0.665   5.387 -2.1947 -0.8224 -0.7348
  826TIP3   OH223968   5.584   0.239   5.482 -0.3703  0.4052  0.2405
  826TIP3    H123969   5.602   0.309   5.545  0.0282  2.0312 -1.5851
  826TIP3    H223970   5.661   0.238   5.425 -0.8709 -0.7617 -0.4484
  827TIP3   OH223971   3.636   1.329  12.480 -0.2666 -0.0609 -0.2345
  827TIP3    H123972   3.594   1.337  12.395  0.7980  1.8552 -0.6538
  827TIP3    H223973   3.724   1.297  12.460  0.0938  0.6998  0.0923
  828TIP3   OH223974   2.664   3.679  16.994 -0.2400 -0.0198  0.2990
  828TIP3    H123975   2.695   3.768  16.982  0.3259 -0.5720 -3.4961
  828TIP3    H223976   2.712   3.646  17.070  1.3252  2.1286  0.3174
  829TIP3   OH223977   2.717   1.103   2.076  0.5421  0.8337 -0.2790
  829TIP3    H123978   2.800   1.126   2.036  1.0500  0.2775  0.4385
  829TIP3    H223979   2.711   1.008   2.065 -0.7518  1.0418 -1.7432
  830TIP3   OH223980   5.432   2.039  12.522  0.2033  0.0570 -0.4827
  830TIP3    H123981   5.491   2.110  12.500  1.1738  0.1613  2.1345
  830TIP3    H223982   5.411   2.052  12.615 -2.1528 -1.2808 -0.7282
  831TIP3   OH223983   2.935   3.678  15.271  0.5812  0.4874  0.3864
  831TIP3    H123984   3.013   3.699  15.322  0.6122 -0.6081  0.8265
  831TIP3    H223985   2.907   3.761  15.233  1.8584  0.9264  0.3665
  832TIP3   OH223986   4.054   0.201   4.528 -0.1872 -0.0297 -0.0491
  832TIP3    H123987   4.142   0.175   4.500 -1.0742 -2.1034 -1.1513
  832TIP3    H223988   3.999   0.183   4.452 -1.4555  2.2000  0.2623
  833TIP3   OH223989   6.675   0.492   1.355 -0.0447  0.2678 -0.4050
  833TIP3    H123990   6.625   0.523   1.279 -0.4781 -0.5030 -0.4456
  833TIP3    H223991   6.750   0.447   1.317  0.6251  1.2864 -0.3447
  834TIP3   OH223992   4.158   4.089   1.686  0.6836  0.0243  0.0768
  834TIP3    H123993   4.178   4.003   1.650  0.8207 -0.0675  0.3675
  834TIP3    H223994   4.187   4.084   1.777  1.1629  0.5453 -0.0427
  835TIP3   OH223995   1.488   6.673  14.494  0.3224  0.1938 -0.4853
  835TIP3    H123996   1.567   6.684  14.442  1.1194 -1.6370  0.2620
  835TIP3    H223997   1.435   6.611  14.446 -0.8569  1.6291 -1.1296
  836TIP3   OH223998   1.909   2.248   0.559 -0.2317  0.5973 -0.0762
  836TIP3    H123999   1.973   2.251   0.629  1.4694  0.7154 -1.5525
  836TIP3    H224000   1.883   2.156   0.554  0.7845  0.3035 -0.2405
  837TIP3   OH224001   0.912   0.876  13.436 -0.3411 -0.3889 -0.1605
  837TIP3    H124002   0.892   0.810  13.502 -1.2713 -0.1524 -0.1834
  837TIP3    H224003   0.925   0.825  13.355  1.8756 -0.7676  0.3860
  838TIP3   OH224004   2.812   1.416  11.967 -0.0263 -0.2307 -0.2805
  838TIP3    H124005   2.808   1.337  11.913 -0.0460 -1.8609  1.9554
  838TIP3    H224006   2.859   1.480  11.913  0.5492 -1.9744 -1.9447
  839TIP3   OH224007   0.247   0.306   1.669  0.2558  0.0221  0.2430
  839TIP3    H124008   0.181   0.371   1.644  0.6106  0.1572 -0.3406
  839TIP3    H224009   0.329   0.339   1.632  1.3144  1.5267  3.5355
  840TIP3   OH224010   2.813   2.022   2.137  0.0498  0.1731  0.2033
  840TIP3    H124011   2.756   2.094   2.108 -0.7015 -0.6888 -0.5191
  840TIP3    H224012   2.805   1.956   2.068 -1.2655 -1.6556  1.9951
  841TIP3   OH224013   6.468   5.983  13.218 -0.1923 -0.0601 -0.0204
  841TIP3    H124014   6.454   5.898  13.260  0.9115 -0.7387 -0.9925
  841TIP3    H224015   6.532   5.967  13.149 -1.5087  1.1262 -1.6260
  842TIP3   OH224016   1.243   5.445   5.019  0.4676 -0.8747  0.0506
  842TIP3    H124017   1.324   5.422   4.974  0.6740 -0.2028  0.0613
  842TIP3    H224018   1.178   5.453   4.949  0.3976 -1.4588  0.0465
  843TIP3   OH224019   3.084   5.243  15.316 -0.2503  0.0344  0.2103
  843TIP3    H124020   3.106   5.278  15.230  0.9485 -2.3069 -0.5525
  843TIP3    H224021   2.988   5.242  15.319 -0.2959  0.8020 -0.8039
  844TIP3   OH224022   0.237   5.968   4.708 -0.4897 -0.3605  0.1790
  844TIP3    H124023   0.195   5.968   4.622  0.2149  1.8265 -0.2475
  844TIP3    H224024   0.314   5.913   4.697  0.7095  1.4809 -1.2649
  845TIP3   OH224025   5.050   0.790  11.094  0.2365  0.0722  0.2029
  845TIP3    H124026   5.087   0.859  11.040  0.1860 -0.2258 -0.2124
  845TIP3    H224027   5.119   0.724  11.099 -0.3098 -0.5913 -0.7702
  846TIP3   OH224028   1.897   3.509  15.736 -0.3695 -0.0168  0.4046
  846TIP3    H124029   1.837   3.579  15.763  0.2686  0.9824 -0.6582
  846TIP3    H224030   1.967   3.555  15.689 -0.4262 -1.4778 -1.1787
  847TIP3   OH224031   1.172   0.341   4.159  0.0208  0.3489  0.4431
  847TIP3    H124032   1.253   0.290   4.168  0.5452  1.3031  1.1867
  847TIP3    H224033   1.194   0.411   4.098  0.0127  1.1281  1.3241
  848TIP3   OH224034   1.278   6.114   2.630  0.2306  0.8181 -0.1763
  848TIP3    H124035   1.295   6.133   2.537  1.0228  0.5834 -0.0921
  848TIP3    H224036   1.194   6.155   2.648  0.0204  0.7816 -1.0289
  849TIP3   OH224037   0.280   5.501   4.997  0.1344  0.7085  0.5722
  849TIP3    H124038   0.271   5.525   4.905  0.3436  1.7849  0.8201
  849TIP3    H224039   0.213   5.552   5.042  0.5792  0.8149  1.1253
  850TIP3   OH224040   2.003   3.286  15.863  0.2162  0.0840 -0.6495
  850TIP3    H124041   2.080   3.273  15.809  0.0836 -0.2173 -0.7670
  850TIP3    H224042   1.969   3.371  15.836 -0.0566 -0.2239 -1.2994
  851TIP3   OH224043   2.172   0.729  15.236 -0.5297 -0.9050  0.1936
  851TIP3    H124044   2.170   0.634  15.223  0.0410 -0.8635 -0.2274
  851TIP3    H224045   2.093   0.760  15.192  0.7734 -0.8925 -2.3216
  852TIP3   OH224046   6.336   5.339   4.993 -0.0677  0.4960 -0.3209
  852TIP3    H124047   6.413   5.327   4.938 -0.2142 -2.6367 -0.0357
  852TIP3    H224048   6.264   5.298   4.944 -1.1408  1.5548  0.3066
  853TIP3   OH224049   1.905   2.781  15.435  0.3107 -0.4239  0.1320
  853TIP3    H124050   1.985   2.760  15.386 -0.2497  0.0635 -1.0357
  853TIP3    H224051   1.877   2.865  15.399 -0.5614 -0.4428  0.7550
  854TIP3   OH224052   1.435   3.224   4.033  0.0215 -0.4726  0.5867
  854TIP3    H124053   1.361   3.218   4.094  0.0920  0.9582  0.8474
  854TIP3    H224054   1.438   3.138   3.991 -0.1992 -1.4330  2.4034
  855TIP3   OH224055   5.260   4.268   4.473  0.3907  0.3600  0.2556
  855TIP3    H124056   5.177   4.226   4.449  0.2058  1.2430 -0.7090
  855TIP3    H224057   5.316   4.196   4.502 -1.0111 -0.1520  1.8300
  856TIP3   OH224058   4.511   4.629  14.449  0.5076 -0.4487 -0.0119
  856TIP3    H124059   4.485   4.548  14.493 -3.4657 -0.9152 -2.7643
  856TIP3    H224060   4.484   4.698  14.510 -1.8721 -1.1361 -0.1867
  857TIP3   OH224061   1.854   4.996   0.939  0.2622 -0.4217 -0.3288
  857TIP3    H124062   1.816   5.084   0.948 -1.5651 -1.2978  1.1293
  857TIP3    H224063   1.947   5.008   0.961  0.0659  1.1401 -0.2154
  858TIP3   OH224064   3.885   6.743  14.439 -0.2212 -0.1616  0.1185
  858TIP3    H124065   3.905   6.826  14.396 -1.8498 -0.4860 -1.3737
  858TIP3    H224066   3.800   6.757  14.481 -0.0241 -0.7616  0.7363
  859TIP3   OH224067   1.675   5.756  11.667 -0.5088  0.2770  0.2859
  859TIP3    H124068   1.676   5.684  11.605  2.8044  0.5307 -0.1427
  859TIP3    H224069   1.583   5.765  11.692 -1.4781 -2.0155 -1.9887
  860TIP3   OH224070   4.948   4.512  14.012  0.2088  0.1302 -0.1176
  860TIP3    H124071   4.895   4.529  14.089 -1.5411 -2.5424 -0.6116
  860TIP3    H224072   5.028   4.564  14.025 -0.5831  0.7473  2.8173
  861TIP3   OH224073   1.964   6.669   2.035  0.0571 -0.5034 -0.0219
  861TIP3    H124074   2.010   6.708   1.960  0.3548  1.2729  1.0295
  861TIP3    H224075   1.932   6.585   2.002  1.3705 -0.4005 -1.7233
  862TIP3   OH224076   0.184   0.665  11.843  0.0377  0.2838  0.1779
  862TIP3    H124077   0.248   0.710  11.787  0.7038 -1.9050 -0.9390
  862TIP3    H224078   0.204   0.696  11.932  1.5079  0.9482 -0.3526
  863TIP3   OH224079   3.427   5.483   5.172 -0.2107 -0.2074 -0.3216
  863TIP3    H124080   3.435   5.498   5.078  0.7968  2.9543  0.1403
  863TIP3    H224081   3.353   5.538   5.199 -0.3935 -0.9558  0.7653
  864TIP3   OH224082   6.455   2.506  13.182  0.0021 -0.0053  0.0020
  864TIP3    H124083   6.467   2.552  13.099  0.1713  0.4355  0.2722
  864TIP3    H224084   6.542   2.472  13.204 -0.0673 -0.2286 -0.0598
  865TIP3   OH224085   3.672   3.210   0.021 -0.2048 -0.0449 -0.5351
  865TIP3    H124086   3.682   3.290  -0.031 -0.1416  0.5556  0.3763
  865TIP3    H224087   3.588   3.222   0.066  0.1045 -0.1916  0.0922
  866TIP3   OH224088   3.200   5.428  14.757  0.1066 -0.2482  0.1760
  866TIP3    H124089   3.109   5.458  14.762 -0.2572 -1.4803  1.9424
  866TIP3    H224090   3.193   5.332  14.759  1.4285 -0.3625 -0.1772
  867TIP3   OH224091   5.453   0.098  15.442 -0.9993  0.1329  0.0165
  867TIP3    H124092   5.458   0.033  15.512 -0.1160  0.3905  0.1974
  867TIP3    H224093   5.427   0.179  15.487 -1.2081  0.1200 -0.0771
  868TIP3   OH224094   0.932   4.265   4.918 -0.2988 -0.1129  0.2557
  868TIP3    H124095   0.984   4.186   4.908  0.0264  0.0234  0.8012
  868TIP3    H224096   0.996   4.334   4.938 -0.6721  0.0684  0.8719
  869TIP3   OH224097   6.387   1.087  12.307 -0.2622 -0.5950 -0.3059
  869TIP3    H124098   6.447   1.129  12.245 -1.2003  0.4225 -0.5576
  869TIP3    H224099   6.443   1.057  12.378  0.6788 -0.6956 -1.0682
  870TIP3   OH224100   6.013   3.293   2.728 -0.5223  0.1943 -0.5384
  870TIP3    H124101   5.951   3.261   2.794 -0.8311  2.9547  0.6569
  870TIP3    H224102   6.091   3.316   2.778  0.4177 -0.5600 -1.6271
  871TIP3   OH224103   1.612   0.024  13.784 -0.0724 -0.1332 -0.1359
  871TIP3    H124104   1.538  -0.015  13.831  2.2660 -2.9795  1.5090
  871TIP3    H224105   1.605  -0.012  13.695 -0.0481 -1.3484  0.3348
  872TIP3   OH224106   6.791   5.621  14.417  0.6593 -0.1754 -0.3392
  872TIP3    H124107   6.738   5.697  14.437 -0.5083 -1.2655  0.9041
  872TIP3    H224108   6.728   5.552  14.395  1.7235 -0.3572 -3.2922
  873TIP3   OH224109   6.305   3.934   1.261 -0.2933  0.2690  0.3126
  873TIP3    H124110   6.319   4.029   1.253  1.9062  0.0476  0.9777
  873TIP3    H224111   6.357   3.897   1.190 -0.3436 -0.4893  0.6678
  874TIP3   OH224112   2.568   3.049  16.657  0.2234  0.5942 -0.4174
  874TIP3    H124113   2.597   3.135  16.687 -1.1625  1.3455 -1.1259
  874TIP3    H224114   2.589   3.048  16.563  1.8282 -0.5558 -0.0695
  875TIP3   OH224115   0.900   6.088   2.477  0.3513 -0.0073  0.2504
  875TIP3    H124116   0.974   6.027   2.471 -0.3881 -0.8292 -0.7852
  875TIP3    H224117   0.887   6.119   2.388 -0.1687  0.6295  0.5365
  876TIP3   OH224118   3.208   2.303   2.189 -0.0385 -0.0812 -0.2613
  876TIP3    H124119   3.186   2.210   2.180  2.8349 -0.7386 -1.5761
  876TIP3    H224120   3.212   2.317   2.283 -0.6850 -1.2420 -0.0328
  877TIP3   OH224121   4.568   0.522   5.229  0.0528 -0.1050  0.4088
  877TIP3    H124122   4.526   0.607   5.241  0.8930  0.0080  3.0533
  877TIP3    H224123   4.512   0.460   5.276 -1.0731 -1.2682 -2.2762
  878TIP3   OH224124   1.604   5.278   2.506  0.1692 -0.2628 -0.3124
  878TIP3    H124125   1.671   5.210   2.498  3.3705  2.2374  2.1465
  878TIP3    H224126   1.527   5.233   2.540  1.3901 -2.9583 -0.8762
  879TIP3   OH224127   5.100   0.430  11.067 -0.5542 -0.0765  0.2482
  879TIP3    H124128   5.060   0.360  11.015 -1.5737 -0.1679  1.1307
  879TIP3    H224129   5.151   0.480  11.004 -1.2362 -0.5674 -0.7233
  880TIP3   OH224130   5.601   4.847   4.908  0.4301 -0.4831  1.1934
  880TIP3    H124131   5.530   4.822   4.848  0.1048  1.7595  0.5677
  880TIP3    H224132   5.679   4.807   4.870  0.4304  1.7371 -1.4493
  881TIP3   OH224133   0.659   0.765  14.476 -0.0148  0.5188 -0.1928
  881TIP3    H124134   0.617   0.811  14.549 -0.8787 -0.2166 -0.2132
  881TIP3    H224135   0.732   0.719  14.516 -0.0555  0.6877  0.0825
  882TIP3   OH224136   6.466   2.520  17.231 -0.0232 -0.2914 -0.3584
  882TIP3    H124137   6.373   2.538  17.218 -0.2666 -2.0713 -1.3035
  882TIP3    H224138   6.481   2.536  17.325 -1.1818  0.3183 -0.2625
  883TIP3   OH224139   5.021   4.153   5.229  0.4462  0.7452 -0.3866
  883TIP3    H124140   5.048   4.120   5.314  3.8835  0.4949 -1.4522
  883TIP3    H224141   4.986   4.077   5.183  0.8488  0.3605 -0.0543
  884TIP3   OH224142   0.932   2.836  15.696  0.2048  0.7122 -0.2701
  884TIP3    H124143   0.886   2.817  15.778 -1.8136  2.2075 -0.9764
  884TIP3    H224144   1.023   2.852  15.723 -0.4085  1.2228  1.6860
  885TIP3   OH224145   3.561   0.830  14.119 -0.3698  0.1162 -0.2693
  885TIP3    H124146   3.559   0.904  14.179  3.2575 -0.9744  1.4564
  885TIP3    H224147   3.554   0.753  14.176  2.0205 -0.9356 -1.2755
  886TIP3   OH224148   5.988   3.740  16.045 -0.1683  0.0705  0.6419
  886TIP3    H124149   5.953   3.746  15.956 -0.2242  0.7082  0.7026
  886TIP3    H224150   6.003   3.646  16.058 -1.0349 -0.1363  0.2998
  887TIP3   OH224151   1.695   0.040   4.572 -0.3144 -0.1085  0.4724
  887TIP3    H124152   1.664  -0.011   4.647 -1.5036  0.2583  0.2511
  887TIP3    H224153   1.655  -0.001   4.496  2.7415 -1.9544 -0.3099
  888TIP3   OH224154   3.968   6.588   3.680  0.5303 -0.0161 -0.1026
  888TIP3    H124155   4.042   6.642   3.708  1.5522 -1.6002  0.3239
  888TIP3    H224156   3.897   6.614   3.739  0.9022  1.0661 -0.0985
  889TIP3   OH224157   5.122   3.971  16.223  0.8735 -0.3050 -0.0084
  889TIP3    H124158   5.026   3.979  16.224  0.8147 -0.9568  0.1649
  889TIP3    H224159   5.149   3.999  16.311  0.7528 -1.0356  0.2709
  890TIP3   OH224160   0.049   4.294   1.437  0.2170  0.3907 -0.1304
  890TIP3    H124161   0.066   4.289   1.531 -0.4042  1.6737  0.0752
  890TIP3    H224162  -0.002   4.215   1.418  2.2359 -1.0475  0.1328
  891TIP3   OH224163   4.886   1.221   4.825  0.3566  0.1515  0.0282
  891TIP3    H124164   4.874   1.199   4.917 -1.6838 -0.7400 -0.3880
  891TIP3    H224165   4.823   1.291   4.808  2.1347  1.7592 -0.2595
  892TIP3   OH224166   1.648   4.118   3.081 -0.3605  0.3578  0.0690
  892TIP3    H124167   1.694   4.060   3.020 -0.1329  1.4497 -0.8164
  892TIP3    H224168   1.577   4.063   3.116  0.2249 -0.6441 -0.2735
  893TIP3   OH224169   1.570   1.281  10.335  0.2726  0.5207 -0.4022
  893TIP3    H124170   1.539   1.336  10.263 -2.4458 -0.0889  0.1953
  893TIP3    H224171   1.639   1.228  10.296 -1.0988  0.2322 -2.6073
  894TIP3   OH224172   2.984   5.144   5.244 -0.0479 -0.6550  0.6982
  894TIP3    H124173   2.974   5.155   5.149 -2.7145 -1.1784  0.8537
  894TIP3    H224174   3.015   5.055   5.254 -0.6726 -0.9216  0.3338
  895TIP3   OH224175   6.447   1.571   2.036  0.6405  0.5830 -0.0863
  895TIP3    H124176   6.439   1.614   1.951 -0.0245 -1.4386 -1.0936
  895TIP3    H224177   6.526   1.517   2.028  0.3479  0.0707  0.4264
  896TIP3   OH224178   2.932   2.873   5.037  0.2955 -0.0676  0.1906
  896TIP3    H124179   2.872   2.822   5.091 -0.0322 -1.6841 -1.5948
  896TIP3    H224180   2.876   2.923   4.979  0.5100 -2.3111 -2.1522
  897TIP3   OH224181   5.168   3.285  11.833 -0.2322 -0.3224 -0.5853
  897TIP3    H124182   5.167   3.294  11.738  0.6511 -1.0823 -0.6756
  897TIP3    H224183   5.243   3.230  11.852  0.5241  1.0647  0.6881
  898TIP3   OH224184   2.904   1.280  12.992  0.1308  0.3573  0.1609
  898TIP3    H124185   2.905   1.191  12.956 -2.5757 -0.0767  0.9366
  898TIP3    H224186   2.872   1.270  13.082  0.1424  2.0902  0.4005
  899TIP3   OH224187   3.895   5.191  14.698  0.1971 -0.4186 -0.1695
  899TIP3    H124188   3.978   5.154  14.668 -0.2123 -1.1111 -0.4719
  899TIP3    H224189   3.836   5.116  14.704 -0.9523  0.2962 -1.7832
  900TIP3   OH224190   1.915   4.663  12.354  0.0784 -0.7502  0.6120
  900TIP3    H124191   1.969   4.585  12.357 -0.9349 -1.4546  1.1532
  900TIP3    H224192   1.857   4.650  12.279  0.6652  0.0324 -0.0085
  901TIP3   OH224193   5.467   5.523  15.256  0.0159 -0.6250  0.2408
  901TIP3    H124194   5.399   5.456  15.263 -2.5856  1.9565  2.3519
  901TIP3    H224195   5.453   5.563  15.170 -1.0307 -0.2666  0.5656
  902TIP3   OH224196   0.040   0.120  14.588  0.1881 -0.0982  0.0641
  902TIP3    H124197   0.085   0.137  14.671  0.2040  2.5299 -0.4100
  902TIP3    H224198  -0.052   0.110  14.613  0.5635 -2.7991  0.7154
  903TIP3   OH224199   6.456   5.569   1.945 -0.2469 -0.3506 -0.7596
  903TIP3    H124200   6.412   5.648   1.975 -2.7124 -1.4167 -1.2909
  903TIP3    H224201   6.511   5.543   2.018 -1.5010  0.3840  0.5042
  904TIP3   OH224202   1.621   6.590  15.208 -0.6102  0.5552 -0.6209
  904TIP3    H124203   1.557   6.529  15.171  0.5617 -0.8306 -0.4269
  904TIP3    H224204   1.659   6.633  15.131  0.1999 -0.6579 -0.9113
  905TIP3   OH224205   4.019   3.706   4.280  0.0121 -0.0867 -0.4086
  905TIP3    H124206   4.061   3.750   4.206 -1.1662 -0.4839 -1.3514
  905TIP3    H224207   3.926   3.724   4.268 -0.4326 -2.0388 -0.3283
  906TIP3   OH224208   4.598   2.709   3.671 -0.1817  0.1010 -0.0280
  906TIP3    H124209   4.512   2.724   3.633 -0.3397 -1.1498 -0.1957
  906TIP3    H224210   4.585   2.722   3.765 -1.1079 -2.1831  0.2340
  907TIP3   OH224211   4.522   5.430  12.781 -0.5757  0.1955  0.0270
  907TIP3    H124212   4.483   5.511  12.747 -0.6318 -0.0622 -0.5263
  907TIP3    H224213   4.508   5.365  12.712 -1.2712 -0.5056  0.7990
  908TIP3   OH224214   1.944   2.736  11.278  0.3197 -0.2254  0.1286
  908TIP3    H124215   1.941   2.831  11.271  2.1787 -0.1334  0.1402
  908TIP3    H224216   1.987   2.720  11.363 -0.3287 -1.0842  0.3091
  909TIP3   OH224217   1.767   5.590  13.934  0.1078 -0.0414  0.1053
  909TIP3    H124218   1.834   5.558  13.873 -0.4594  0.5633 -0.8639
  909TIP3    H224219   1.816   5.620  14.010  1.2163  2.6546 -1.5278
  910TIP3   OH224220   1.938   4.709   2.354 -0.3768 -0.6821 -0.1390
  910TIP3    H124221   1.890   4.792   2.359 -1.9129 -1.5526  0.1594
  910TIP3    H224222   1.871   4.642   2.365  1.0018 -1.9533  0.8243
  911TIP3   OH224223   1.600   0.544  17.032  0.3090 -0.4651 -0.2242
  911TIP3    H124224   1.544   0.480  17.076 -0.9450 -1.7636 -3.3658
  911TIP3    H224225   1.668   0.490  16.990  2.0814  0.7996  0.8744
  912TIP3   OH224226   0.962   3.548  13.531 -0.3176  0.5334 -0.1422
  912TIP3    H124227   0.869   3.542  13.509 -0.6448 -1.8359  1.4298
  912TIP3    H224228   1.007   3.516  13.453 -0.9186  0.3150 -0.4063
  913TIP3   OH224229   1.389   5.899   6.244  0.2652 -0.6077 -0.2857
  913TIP3    H124230   1.345   5.848   6.311 -1.4148  2.0084  0.7832
  913TIP3    H224231   1.323   5.911   6.175 -0.7258  2.7733  1.0181
  914TIP3   OH224232   1.401   1.076   2.961 -0.2075  0.0093  0.2702
  914TIP3    H124233   1.372   1.004   2.905  1.0813  1.2627 -2.1428
  914TIP3    H224234   1.496   1.065   2.967 -0.2875 -0.0069  2.1809
  915TIP3   OH224235   4.599   2.208   1.449 -0.4308  0.5812  0.1323
  915TIP3    H124236   4.521   2.204   1.393 -0.3831 -2.1980  0.0962
  915TIP3    H224237   4.671   2.185   1.390 -0.1611 -0.7651  0.9403
  916TIP3   OH224238   1.743   5.903  10.755 -0.2962 -0.0020 -0.1445
  916TIP3    H124239   1.803   5.977  10.744  0.0990 -0.4181 -0.8613
  916TIP3    H224240   1.796   5.835  10.797  0.1889 -0.8870 -2.0707
  917TIP3   OH224241   5.609   3.246  16.896  0.0078  0.1474  0.0899
  917TIP3    H124242   5.672   3.175  16.878  0.9978  1.2088 -0.7795
  917TIP3    H224243   5.662   3.315  16.935 -0.8928  0.5275  0.6531
  918TIP3   OH224244   2.802   5.735  13.169  0.0316 -0.1568  0.1573
  918TIP3    H124245   2.813   5.763  13.260 -1.1587 -1.4520  0.7316
  918TIP3    H224246   2.760   5.810  13.126 -0.1646  0.1624  0.8850
  919TIP3   OH224247   0.522   4.867   2.155 -0.1337 -0.8491 -0.6481
  919TIP3    H124248   0.528   4.863   2.060  1.6868  0.2824 -0.6134
  919TIP3    H224249   0.504   4.959   2.174  1.0499 -0.7607  0.1409
  920TIP3   OH224250   4.482   6.248  12.940 -0.8096 -0.1170  0.4895
  920TIP3    H124251   4.529   6.313  12.889 -0.9289 -1.0998 -0.9297
  920TIP3    H224252   4.512   6.262  13.030  1.3544  0.0220 -0.1912
  921TIP3   OH224253   5.789   6.776  13.497 -1.1207  0.3798  0.3311
  921TIP3    H124254   5.781   6.772  13.592  2.9932 -0.2811  0.8526
  921TIP3    H224255   5.782   6.869  13.476  0.3839  0.8571  1.7051
  922TIP3   OH224256   0.995   3.855   1.225 -0.4830 -0.0530 -0.1534
  922TIP3    H124257   0.939   3.901   1.287 -1.2724 -0.5854 -0.4524
  922TIP3    H224258   1.066   3.916   1.206  0.3881 -0.2658  2.0984
  923TIP3   OH224259   6.413   4.897   4.037 -0.0320  0.5069 -0.4343
  923TIP3    H124260   6.465   4.977   4.041  1.0675 -0.1572 -1.0041
  923TIP3    H224261   6.435   4.851   4.118 -1.4810  1.2408  0.4148
  924TIP3   OH224262   2.465   2.003   5.354 -0.2644 -0.5282  0.4844
  924TIP3    H124263   2.400   2.015   5.422  0.6164 -3.0568  1.8863
  924TIP3    H224264   2.442   1.921   5.311 -0.2108  0.4994 -1.6532
  925TIP3   OH224265   5.468   0.436   0.176  0.8551 -0.2975 -0.8009
  925TIP3    H124266   5.409   0.370   0.212 -0.3323  1.3454  0.3913
  925TIP3    H224267   5.553   0.415   0.213 -0.2343  1.1165  2.9202
  926TIP3   OH224268   4.632   0.886  12.590 -0.0269 -0.3347  0.4144
  926TIP3    H124269   4.704   0.836  12.628  0.0057 -1.1598 -0.6879
  926TIP3    H224270   4.675   0.956  12.540 -0.0841  1.4969  2.7743
  927TIP3   OH224271   0.143   4.731   0.970 -0.0085  0.2811 -0.4671
  927TIP3    H124272   0.227   4.686   0.961 -0.6031 -1.0643  0.2540
  927TIP3    H224273   0.127   4.732   1.064 -0.8537  0.3908 -0.6064
  928TIP3   OH224274   3.280   0.847   2.867  0.7156  0.1764 -0.0182
  928TIP3    H124275   3.206   0.825   2.811  0.4015  0.9826  0.0692
  928TIP3    H224276   3.352   0.794   2.833  0.4449  0.4027 -0.9781
  929TIP3   OH224277   6.804   5.921   1.188 -0.0191  0.5898  0.2503
  929TIP3    H124278   6.765   5.977   1.255  0.7391  0.7064  0.6057
  929TIP3    H224279   6.853   5.980   1.131  1.0296  0.2717  0.8011
  930TIP3   OH224280   2.512   0.800  14.572  0.1350 -0.2594  0.7180
  930TIP3    H124281   2.424   0.770  14.594 -0.3822  0.7889  0.1507
  930TIP3    H224282   2.519   0.886  14.613  1.4551 -0.9340  2.0044
  931TIP3   OH224283   2.145   3.227   5.168  0.0773  0.5954 -0.6751
  931TIP3    H124284   2.119   3.266   5.251 -1.8986  1.5673 -1.6850
  931TIP3    H224285   2.190   3.146   5.192 -0.8087  0.6504  1.3277
  932TIP3   OH224286   4.066   4.171   2.487 -0.5424  0.0140  0.2925
  932TIP3    H124287   4.058   4.266   2.478 -1.6422 -0.0485  0.5248
  932TIP3    H224288   4.071   4.156   2.581 -4.3797 -0.3867  0.5962
  933TIP3   OH224289   3.818   1.318  13.520 -0.5704  0.8576  0.0401
  933TIP3    H124290   3.813   1.295  13.427 -0.8263  1.7631 -0.1798
  933TIP3    H224291   3.907   1.295  13.546 -0.4377  0.7728 -0.4759
  934TIP3   OH224292   0.220   0.714   1.507  0.0212  0.2316 -0.3213
  934TIP3    H124293   0.283   0.719   1.579 -0.6981 -1.3049  0.4828
  934TIP3    H224294   0.155   0.782   1.526 -1.2522 -1.4165  1.6623
  935TIP3   OH224295   5.244   2.576  16.296 -0.5041  0.4039  0.1103
  935TIP3    H124296   5.306   2.521  16.249 -1.2938  0.1725 -0.6749
  935TIP3    H224297   5.208   2.520  16.364  0.8261  0.8108  1.2009
  936TIP3   OH224298   2.553   6.210  16.772  0.2274  0.1626 -0.0489
  936TIP3    H124299   2.619   6.144  16.749 -0.1494 -0.7779  1.4422
  936TIP3    H224300   2.511   6.175  16.850 -0.5415  1.8120  0.3049
  937TIP3   OH224301   6.077   4.480   0.565  0.1263  0.2327  0.3600
  937TIP3    H124302   5.986   4.472   0.536  0.9935 -0.6824 -2.4827
  937TIP3    H224303   6.111   4.556   0.519  0.7555  0.7105  1.5778
  938TIP3   OH224304   0.520   1.042  13.160 -1.1014  0.0225  0.1835
  938TIP3    H124305   0.514   1.137  13.165  0.7489  0.1172  2.6358
  938TIP3    H224306   0.531   1.013  13.251 -3.4245 -2.7370 -0.2677
  939TIP3   OH224307   4.923   1.630  11.332  0.3263  0.2953  0.6202
  939TIP3    H124308   4.957   1.541  11.345 -0.5136 -0.3422 -1.1519
  939TIP3    H224309   4.829   1.622  11.347  0.3693  1.1237  1.4199
  940TIP3   OH224310   6.684   1.220  11.407 -0.4482  0.6644 -0.4113
  940TIP3    H124311   6.619   1.185  11.345  0.7390 -1.5202 -0.5165
  940TIP3    H224312   6.662   1.179  11.490 -1.8014  3.2987  0.6630
  941TIP3   OH224313   6.051   3.320   1.978 -0.0827  0.5982  0.6072
  941TIP3    H124314   6.053   3.337   1.883 -0.6216  1.9330  0.8207
  941TIP3    H224315   6.051   3.224   1.984 -1.5122  0.4574 -0.7885
  942TIP3   OH224316   1.129   6.712  14.916  0.3585  0.6582  0.0717
  942TIP3    H124317   1.079   6.662  14.851 -3.0622  2.5844  0.9677
  942TIP3    H224318   1.134   6.800  14.879  1.5643  0.9522  0.8678
  943TIP3   OH224319   0.798   2.886  16.973 -0.2211 -0.0784  0.6496
  943TIP3    H124320   0.710   2.848  16.974  0.9514 -3.0421  1.4983
  943TIP3    H224321   0.838   2.853  16.893  0.2116  1.1257  0.3443
  944TIP3   OH224322   3.128   1.928   5.139 -0.3513  0.5321 -0.0673
  944TIP3    H124323   3.113   2.001   5.199 -1.1543 -1.4240  2.3142
  944TIP3    H224324   3.040   1.893   5.121 -0.0472  0.5901 -1.7713
  945TIP3   OH224325   6.247   1.616  13.708  0.4637 -0.0905 -0.1621
  945TIP3    H124326   6.260   1.527  13.741 -0.5894  0.2583  1.2656
  945TIP3    H224327   6.263   1.609  13.614  1.5816 -1.5361  0.0928
  946TIP3   OH224328   5.446   4.118  12.811 -0.4581  0.0349 -0.1093
  946TIP3    H124329   5.473   4.191  12.756 -0.0755 -0.2148 -0.2521
  946TIP3    H224330   5.527   4.079  12.843 -0.6736  0.5814  1.1856
  947TIP3   OH224331   4.095   5.386   2.849 -0.1633  0.2020 -0.3322
  947TIP3    H124332   4.140   5.410   2.931 -0.3196 -2.5692  0.6733
  947TIP3    H224333   4.163   5.395   2.782 -0.3729  3.8190 -0.2504
  948TIP3   OH224334   3.058   1.525   5.461  0.0245 -0.3259 -0.0461
  948TIP3    H124335   2.970   1.495   5.436 -0.0265 -0.7024  0.5588
  948TIP3    H224336   3.046   1.566   5.546  0.4080 -0.2207 -0.0407
  949TIP3   OH224337   2.779   1.221  15.448  0.6035  0.1724  0.5413
  949TIP3    H124338   2.740   1.254  15.367  0.6765 -0.5605  0.2041
  949TIP3    H224339   2.706   1.222  15.511  0.2068 -0.4912  0.1107
  950TIP3   OH224340   5.031   5.056   6.185  0.6172 -0.0881  0.3963
  950TIP3    H124341   5.036   4.994   6.257 -0.1833  0.4805  0.9633
  950TIP3    H224342   4.948   5.036   6.140  0.7452  0.0429  0.0938
  951TIP3   OH224343   4.065   3.230   1.929 -0.0307 -0.0828 -0.0767
  951TIP3    H124344   4.122   3.259   2.000  1.1181 -0.5514 -0.7758
  951TIP3    H224345   4.017   3.308   1.903  0.6780  0.4512  0.1918
  952TIP3   OH224346   2.870   4.243  14.097 -0.0659  0.1999  0.2702
  952TIP3    H124347   2.806   4.305  14.133  0.8731  1.6764 -0.4662
  952TIP3    H224348   2.903   4.196  14.174 -0.5811  0.8519  0.9090
  953TIP3   OH224349   5.052   6.751   2.659 -0.4175  0.2299 -0.0144
  953TIP3    H124350   5.027   6.768   2.568 -0.9458 -0.4021  0.0048
  953TIP3    H224351   5.148   6.753   2.659 -0.3836 -0.7879 -0.7953
  954TIP3   OH224352   2.178   3.469   2.434 -0.4205 -0.3662  0.4420
  954TIP3    H124353   2.254   3.413   2.452 -0.4425  0.2116  2.6427
  954TIP3    H224354   2.102   3.413   2.448 -0.4921  0.3518  3.9741
  955TIP3   OH224355   4.487   4.686   4.143  0.3951  0.0410 -0.0632
  955TIP3    H124356   4.518   4.777   4.150  0.1939  0.0513  0.8586
  955TIP3    H224357   4.524   4.654   4.061  0.3008  1.0221 -0.5075
  956TIP3   OH224358   5.166   1.863   1.039 -0.2815  0.2989  0.0314
  956TIP3    H124359   5.185   1.940   1.093 -1.8559  0.5923  0.2101
  956TIP3    H224360   5.252   1.825   1.021  0.3198 -0.0981  3.1486
  957TIP3   OH224361   1.361   4.017  16.719  0.0548 -0.2642  0.0046
  957TIP3    H124362   1.322   3.997  16.634 -0.5851 -0.7696  0.4044
  957TIP3    H224363   1.387   4.108  16.713  0.4275 -0.4219 -0.8900
  958TIP3   OH224364   4.007   4.705  13.325  0.0755 -0.1562  0.4163
  958TIP3    H124365   3.946   4.778  13.333  1.8715  1.4379  0.3317
  958TIP3    H224366   3.998   4.656  13.406 -2.3371 -0.8526 -0.2072
  959TIP3   OH224367   2.333   1.967  15.888 -0.6952  0.0648  0.0716
  959TIP3    H124368   2.316   1.909  15.962  0.3226  0.8544  0.9603
  959TIP3    H224369   2.246   1.997  15.860 -1.1415 -0.9091  0.3853
  960TIP3   OH224370   4.117   4.252   5.965 -0.1734 -0.5398 -0.2354
  960TIP3    H124371   4.145   4.272   6.055 -0.5027 -1.2229  0.0246
  960TIP3    H224372   4.120   4.157   5.960 -0.9587 -0.5478 -0.6924
  961TIP3   OH224373   0.188   6.245   2.467 -0.3053 -0.2339  0.4943
  961TIP3    H124374   0.242   6.247   2.388  0.5555 -0.2050  1.0771
  961TIP3    H224375   0.189   6.336   2.499  0.7171 -0.5623  1.4419
  962TIP3   OH224376   2.221   3.728   5.871  0.3425  0.2223 -0.4619
  962TIP3    H124377   2.291   3.793   5.880  2.5395 -2.1134  0.5657
  962TIP3    H224378   2.191   3.737   5.781  0.1608  2.9619 -0.2049
  963TIP3   OH224379   4.724   1.805   2.452 -0.9367 -0.1998  1.2232
  963TIP3    H124380   4.751   1.850   2.532  0.4350 -0.9904  1.2330
  963TIP3    H224381   4.716   1.713   2.478 -0.7885 -0.4091  0.5362
  964TIP3   OH224382   6.171   3.869   0.459 -0.3007 -0.0057 -0.1588
  964TIP3    H124383   6.263   3.881   0.439 -0.3390 -0.6987 -0.7750
  964TIP3    H224384   6.128   3.948   0.426  0.1500  0.6277  0.7382
  965TIP3   OH224385   0.499   0.667   4.984 -1.1806  0.2047 -0.1138
  965TIP3    H124386   0.544   0.599   5.035 -0.3820 -0.5202 -1.7012
  965TIP3    H224387   0.545   0.748   5.005  0.0983 -0.3257 -0.7668
  966TIP3   OH224388   3.096   0.658  11.394  0.1414  0.5667  1.1145
  966TIP3    H124389   3.015   0.630  11.351  1.4847 -0.2983 -1.0421
  966TIP3    H224390   3.163   0.602  11.355  1.8742  1.7033  2.3602
  967TIP3   OH224391   4.049   4.890   1.560  0.5505 -0.2448 -0.3906
  967TIP3    H124392   4.077   4.981   1.572  4.3831 -0.6680 -3.7638
  967TIP3    H224393   4.131   4.840   1.558 -1.3242 -3.6082 -0.0435
  968TIP3   OH224394   6.784   2.924  14.157  0.0017  0.0944  0.2415
  968TIP3    H124395   6.830   3.000  14.120  0.7411 -0.7701 -0.6764
  968TIP3    H224396   6.692   2.941  14.139 -0.0069  1.5039  1.4455
  969TIP3   OH224397   1.828   2.581   1.788  0.1024  0.0560  0.0312
  969TIP3    H124398   1.735   2.558   1.794  0.6152 -2.0099  0.9944
  969TIP3    H224399   1.834   2.636   1.710 -1.6820 -1.1512 -1.0376
  970TIP3   OH224400   2.032   4.075   5.530 -0.1554 -0.0216 -0.2137
  970TIP3    H124401   2.053   3.989   5.566 -0.5086 -0.0444 -0.0624
  970TIP3    H224402   2.016   4.130   5.607  0.9456  0.4098 -0.2753
  971TIP3   OH224403   6.485   5.982  14.413 -0.3795  0.2428 -0.6480
  971TIP3    H124404   6.471   6.055  14.472 -0.9571 -0.8313  0.5975
  971TIP3    H224405   6.562   5.937  14.447 -1.1269 -0.7885 -0.2653
  972TIP3   OH224406   2.932   2.835   1.411 -0.7410 -0.0670  0.0488
  972TIP3    H124407   2.965   2.844   1.500 -1.5743 -1.1862  0.4945
  972TIP3    H224408   2.873   2.909   1.399 -1.7900 -0.7096  0.9926
  973TIP3   OH224409   6.027   2.559  12.676 -0.3386 -0.2877 -0.1852
  973TIP3    H124410   6.088   2.500  12.631 -0.3512 -2.0035  1.9059
  973TIP3    H224411   6.072   2.582  12.757 -2.0263 -0.7469  0.9164
  974TIP3   OH224412   5.047   4.006   3.816 -0.1596  0.1055  0.2870
  974TIP3    H124413   4.964   3.971   3.848 -1.0228  1.1887 -0.6805
  974TIP3    H224414   5.029   4.030   3.725  1.3972 -0.2156 -0.1358
  975TIP3   OH224415   2.250   3.566   4.418 -0.0171  0.3285 -0.1295
  975TIP3    H124416   2.260   3.661   4.412  0.4524  0.2798 -0.1703
  975TIP3    H224417   2.279   3.545   4.507  1.0275  0.0858 -0.5237
  976TIP3   OH224418   4.825   1.309  16.464  0.1493  0.0303 -0.1475
  976TIP3    H124419   4.838   1.380  16.401 -0.7056  0.0259 -0.3482
  976TIP3    H224420   4.900   1.251  16.451  0.7678  0.8048 -0.0983
  977TIP3   OH224421   5.179   0.439  15.938  0.3845  0.2538  0.0727
  977TIP3    H124422   5.126   0.504  15.891  1.6252  1.8770  0.8216
  977TIP3    H224423   5.258   0.487  15.964  0.4662 -1.0092  2.4012
  978TIP3   OH224424   3.725   5.705  10.618  0.2286 -0.2921 -0.1183
  978TIP3    H124425   3.639   5.748  10.609  1.4208  2.0516 -1.1270
  978TIP3    H224426   3.736   5.657  10.537 -0.3004 -1.0108  0.2179
  979TIP3   OH224427   1.245   1.217   2.097  0.0966  0.1395  0.1591
  979TIP3    H124428   1.173   1.176   2.050  0.6761 -2.0885  1.0709
  979TIP3    H224429   1.214   1.225   2.188  1.3804 -2.1249  0.8756
  980TIP3   OH224430   2.665   6.659   5.611  0.4053 -0.5460 -0.3023
  980TIP3    H124431   2.594   6.601   5.584  1.2865 -0.8555 -2.1215
  980TIP3    H224432   2.650   6.674   5.705 -1.9174 -0.7483 -0.5820
  981TIP3   OH224433   1.652   3.700  11.059 -0.4160  0.0286  0.4550
  981TIP3    H124434   1.742   3.676  11.081  0.7504  0.4524 -3.0995
  981TIP3    H224435   1.622   3.751  11.134  2.6303  0.6422  1.4214
  982TIP3   OH224436   0.905   1.707  11.180 -0.0437 -0.7783  0.3154
  982TIP3    H124437   0.907   1.652  11.101  0.0241 -0.5700  0.1710
  982TIP3    H224438   0.994   1.740  11.188  0.3275 -1.9332  1.2914
  983TIP3   OH224439   5.126   2.674  17.167  0.3629  0.2685  0.2110
  983TIP3    H124440   5.197   2.635  17.117  0.4206  0.4823  0.1244
  983TIP3    H224441   5.095   2.604  17.224 -0.8000 -0.4902 -1.2787
  984TIP3   OH224442   1.569   3.798   3.484 -0.4571 -0.3116  0.1211
  984TIP3    H124443   1.559   3.759   3.397  0.2035  0.9970 -0.5741
  984TIP3    H224444   1.631   3.740   3.528  0.6536  0.0039 -0.9542
  985TIP3   OH224445   3.115   3.283   1.781  0.3584  0.2220  0.0024
  985TIP3    H124446   3.076   3.371   1.783 -0.7338 -0.1971 -1.5360
  985TIP3    H224447   3.066   3.237   1.713  1.7615 -1.2007 -0.0758
  986TIP3   OH224448   5.225   6.368  12.175 -0.4542 -0.0330  0.5621
  986TIP3    H124449   5.154   6.347  12.235 -0.0680 -0.4003  0.8966
  986TIP3    H224450   5.208   6.458  12.147 -1.0799 -0.1422  0.5961
  987TIP3   OH224451   1.961   1.890   2.170 -0.1564 -0.1249 -0.4646
  987TIP3    H124452   1.941   1.798   2.155  0.7134 -0.4364  0.2408
  987TIP3    H224453   1.961   1.900   2.265  3.4201 -0.2786 -0.3273
  988TIP3   OH224454   4.713   3.482   4.087  0.0413 -0.2039  0.0642
  988TIP3    H124455   4.732   3.539   4.161 -3.2457 -0.0343  0.9196
  988TIP3    H224456   4.776   3.410   4.095 -0.1424 -0.1523  3.0196
  989TIP3   OH224457   6.811   4.410  12.655 -0.1160  0.9524  0.4115
  989TIP3    H124458   6.831   4.428  12.747  0.1616  1.0613  0.3310
  989TIP3    H224459   6.840   4.488  12.608  2.0892 -0.0749 -0.0761
  990TIP3   OH224460   3.962   0.360   4.768  0.4588  0.0009 -0.5883
  990TIP3    H124461   3.959   0.320   4.681  0.6986  1.0337 -1.0920
  990TIP3    H224462   3.909   0.303   4.823  1.5554 -1.5351 -1.0409
  991TIP3   OH224463   2.007   0.482  10.678 -0.3703  0.6657  0.2794
  991TIP3    H124464   2.020   0.566  10.634 -0.7601  0.4295 -0.2880
  991TIP3    H224465   1.966   0.426  10.612  0.6155 -0.2196  0.3966
  992TIP3   OH224466   4.997   4.805  15.814  0.7386  0.3656 -0.2114
  992TIP3    H124467   5.089   4.794  15.838  1.1833  2.8480 -0.5265
  992TIP3    H224468   4.993   4.890  15.771 -1.8065  0.5369  0.1962
  993TIP3   OH224469   6.761   3.285   0.615 -0.3412  0.0392 -0.5313
  993TIP3    H124470   6.763   3.333   0.532 -1.1185 -0.4609 -0.8521
  993TIP3    H224471   6.849   3.297   0.652 -0.1385  0.6672 -1.1933
  994TIP3   OH224472   0.222   0.942  15.655  0.1679  1.0056 -0.2836
  994TIP3    H124473   0.182   0.966  15.572  0.5596  0.4681 -0.6368
  994TIP3    H224474   0.314   0.927  15.634  0.5612  2.1955  0.5099
  995TIP3   OH224475   1.802   5.356   5.070 -0.3810 -0.0161  0.0282
  995TIP3    H124476   1.854   5.435   5.084 -2.0892  1.3222 -0.7395
  995TIP3    H224477   1.805   5.311   5.154  2.6483 -0.4608 -0.2336
  996TIP3   OH224478   5.141   6.691   0.622 -0.1936  0.4336 -0.0350
  996TIP3    H124479   5.208   6.691   0.690  0.4080  0.1417 -0.6154
  996TIP3    H224480   5.154   6.609   0.575 -0.0230  1.0294 -1.0532
  997TIP3   OH224481   4.734   5.995  15.858  0.4297 -0.2945  0.5749
  997TIP3    H124482   4.715   6.069  15.915 -1.1961 -1.0061  1.0123
  997TIP3    H224483   4.657   5.989  15.800  1.2000 -0.7465 -0.4392
  998TIP3   OH224484   4.887   4.346  16.031 -0.0941  0.1103  0.0822
  998TIP3    H124485   4.804   4.304  16.052  0.2484 -0.8431 -0.4110
  998TIP3    H224486   4.868   4.440  16.034 -1.0700 -0.0878  0.4274
  999TIP3   OH224487   1.818   6.012   1.718  0.4283  0.0779  0.1752
  999TIP3    H124488   1.787   5.938   1.666  1.2140 -1.0095  1.1863
  999TIP3    H224489   1.845   5.972   1.801  1.9590  1.3424  0.3170
 1000TIP3   OH224490   6.371   2.265  15.219 -0.6316  0.0128 -0.4431
 1000TIP3    H124491   6.421   2.320  15.279 -0.9777 -0.6229  0.4548
 1000TIP3    H224492   6.284   2.305  15.217 -0.2879  0.7383 -1.4908
 1001TIP3   OH224493   2.891   6.736  15.592 -0.0182 -0.5052  0.2184
 1001TIP3    H124494   2.811   6.774  15.628 -0.6992 -0.8904 -0.8674
 1001TIP3    H224495   2.916   6.669  15.655 -2.0284 -2.2043 -0.6963
 1002TIP3   OH224496   4.174   5.029   4.343  0.1237 -0.0548  0.4630
 1002TIP3    H124497   4.089   5.012   4.384  0.5255  0.4132  1.5337
 1002TIP3    H224498   4.236   4.978   4.395  0.5802  0.0842  0.0643
 1003TIP3   OH224499   4.987   6.115   4.321 -0.0789 -0.2952  0.0686
 1003TIP3    H124500   4.899   6.081   4.336 -0.5498  1.5075  1.9157
 1003TIP3    H224501   4.981   6.159   4.236 -0.5604 -1.3530 -0.4614
 1004TIP3   OH224502   2.069   5.841  12.698  0.1582 -0.1288  0.7799
 1004TIP3    H124503   2.089   5.923  12.743  0.5291  0.5015 -0.4904
 1004TIP3    H224504   2.139   5.782  12.726  2.7200  1.3890 -1.8625
 1005TIP3   OH224505   6.494   3.511  16.804  0.4287 -0.6123  0.0405
 1005TIP3    H124506   6.446   3.470  16.731 -0.7750  1.8121 -0.6325
 1005TIP3    H224507   6.455   3.473  16.882 -0.7171 -0.6917 -0.5474
 1006TIP3   OH224508   0.360   0.404   3.826 -0.0281  0.0273  0.2939
 1006TIP3    H124509   0.377   0.497   3.817 -0.6018  0.1492  0.4749
 1006TIP3    H224510   0.407   0.379   3.906 -1.6607  0.6237  1.4890
 1007TIP3   OH224511   3.075   4.792   2.504  0.3945  0.2119  0.1467
 1007TIP3    H124512   3.138   4.857   2.473 -0.1859  1.8000  2.0944
 1007TIP3    H224513   3.126   4.731   2.556  0.7048 -0.0587 -0.4602
 1008TIP3   OH224514   2.826   1.437   5.007  0.6116  0.3474 -0.5879
 1008TIP3    H124515   2.734   1.438   4.980  0.5925 -1.1036 -0.6575
 1008TIP3    H224516   2.829   1.492   5.085 -0.4576 -0.1606 -0.1658
 1009TIP3   OH224517   5.931   1.617  13.649 -0.4438 -0.0376 -0.4434
 1009TIP3    H124518   5.999   1.623  13.582 -0.8435 -0.1737 -0.8704
 1009TIP3    H224519   5.937   1.700  13.697 -1.0358  0.6500 -1.5189
 1010TIP3   OH224520   6.514   1.073   5.872 -0.6740 -0.0513 -0.0886
 1010TIP3    H124521   6.451   1.016   5.829 -0.1946 -0.1271 -0.7077
 1010TIP3    H224522   6.536   1.139   5.806 -0.5598  0.3295  0.3245
 1011TIP3   OH224523   4.879   3.531   2.411 -0.3480 -0.2243  0.6057
 1011TIP3    H124524   4.802   3.482   2.441 -0.1475 -1.6918 -1.1151
 1011TIP3    H224525   4.910   3.483   2.334  0.6034  1.9572 -0.4653
 1012TIP3   OH224526   2.841   4.717  14.950  0.0055 -0.4363 -0.0240
 1012TIP3    H124527   2.904   4.741  14.882 -0.0406  0.0763  0.1112
 1012TIP3    H224528   2.764   4.771  14.931  0.1645  0.0531  0.7139
 1013TIP3   OH224529   0.047   1.873   3.684  0.1509 -0.7309 -0.3267
 1013TIP3    H124530   0.054   1.963   3.714  0.2730 -0.2486 -1.7103
 1013TIP3    H224531   0.100   1.823   3.746  0.3757  0.2007  0.2501
 1014TIP3   OH224532   2.148   3.440  13.752  0.4618  0.5352 -0.1670
 1014TIP3    H124533   2.238   3.444  13.721  0.0620  2.7364 -1.2277
 1014TIP3    H224534   2.112   3.527  13.733 -1.5946  0.0411  1.1347
 1015TIP3   OH224535   4.820   1.736  14.928 -0.0277  0.0627 -0.0862
 1015TIP3    H124536   4.764   1.766  15.000 -1.4377  1.3280 -1.6206
 1015TIP3    H224537   4.831   1.814  14.873  2.8160 -0.2969 -0.1679
 1016TIP3   OH224538   6.708   1.466  15.446 -0.1995  0.0914  0.3089
 1016TIP3    H124539   6.775   1.490  15.382  0.5377  1.6473  1.6031
 1016TIP3    H224540   6.625   1.482  15.401  0.3041  0.4878 -0.4962
 1017TIP3   OH224541   0.002   5.473  15.158 -0.7046 -0.3972 -0.2221
 1017TIP3    H124542   0.023   5.420  15.081  1.1297  0.5661 -0.4219
 1017TIP3    H224543  -0.057   5.541  15.125 -0.4060 -0.3397 -0.6359
 1018TIP3   OH224544   5.174   1.742  16.970  0.2176 -0.2515  0.2825
 1018TIP3    H124545   5.154   1.731  17.063 -3.2244  2.7333  0.1219
 1018TIP3    H224546   5.092   1.721  16.925  0.6916  1.7438 -1.7073
 1019TIP3   OH224547   0.268   0.331  15.096 -0.1573 -0.1343  0.1608
 1019TIP3    H124548   0.182   0.299  15.067 -0.6310 -2.1310  3.3284
 1019TIP3    H224549   0.321   0.252  15.105  0.4771  0.5039  2.7512
 1020TIP3   OH224550   5.421   3.490  10.856  0.5131 -0.2429  0.3523
 1020TIP3    H124551   5.415   3.503  10.762  1.9870 -1.1290  0.0986
 1020TIP3    H224552   5.333   3.462  10.882 -0.1346  0.8268 -0.5934
 1021TIP3   OH224553   2.964   1.515   3.436 -0.1219  0.3758 -0.6875
 1021TIP3    H124554   2.931   1.484   3.351  2.2188 -1.8800 -0.8833
 1021TIP3    H224555   3.025   1.447   3.464 -0.5316  1.2365  2.6738
 1022TIP3   OH224556   6.309   5.319   2.604 -0.2979  0.3047  0.0238
 1022TIP3    H124557   6.214   5.327   2.596 -0.0844  2.8888 -1.0923
 1022TIP3    H224558   6.335   5.391   2.662  1.1181  1.2190 -1.6048
 1023TIP3   OH224559   4.980   2.085   0.411  0.0940 -0.1012 -0.3823
 1023TIP3    H124560   4.888   2.098   0.431 -0.0550  1.3162 -1.8620
 1023TIP3    H224561   5.026   2.107   0.493 -0.7988  0.4520 -0.0207
 1024TIP3   OH224562   2.461   3.434   2.407  0.2896  0.4753  0.0778
 1024TIP3    H124563   2.467   3.497   2.335  1.8272 -0.4788 -0.6869
 1024TIP3    H224564   2.538   3.452   2.461  0.6694 -0.6163 -0.0708
 1025TIP3   OH224565   0.886   5.335  16.812 -0.0738 -0.2231  0.4048
 1025TIP3    H124566   0.855   5.282  16.886  0.4065 -1.7578 -0.4534
 1025TIP3    H224567   0.841   5.299  16.736  1.0656 -0.0924 -0.3531
 1026TIP3   OH224568   6.588   4.504   3.011  0.0260 -0.1926  1.0955
 1026TIP3    H124569   6.630   4.423   2.984  0.5874  0.5573 -0.3952
 1026TIP3    H224570   6.659   4.567   3.018 -0.4072  0.1980  2.2176
 1027TIP3   OH224571   5.883   6.287   2.496 -0.1339  0.4037 -0.0733
 1027TIP3    H124572   5.914   6.206   2.536 -1.4467 -0.6486 -1.0799
 1027TIP3    H224573   5.859   6.342   2.570 -1.6849 -1.1587  0.6749
 1028TIP3   OH224574   5.407   2.199  15.922  0.0052 -0.3187 -0.3243
 1028TIP3    H124575   5.313   2.213  15.928  0.1904  0.5797  1.0205
 1028TIP3    H224576   5.424   2.189  15.828 -1.4902 -1.1043 -0.5401
 1029TIP3   OH224577   4.086   6.043   0.419 -0.4056  0.3301 -0.0781
 1029TIP3    H124578   4.082   6.015   0.510  1.2871 -0.0930 -0.0927
 1029TIP3    H224579   4.162   5.996   0.383  0.6657  2.5933 -0.9487
 1030TIP3   OH224580   6.161   2.245   5.821  0.1487 -0.1362  0.0234
 1030TIP3    H124581   6.180   2.298   5.899  0.3473  0.3251 -0.3336
 1030TIP3    H224582   6.245   2.240   5.776 -0.3435  1.1106 -1.0865
 1031TIP3   OH224583   0.790   5.822   1.942  0.0318 -0.4065 -0.3181
 1031TIP3    H124584   0.813   5.744   1.992  0.1409 -0.2147 -0.0677
 1031TIP3    H224585   0.864   5.834   1.882  0.1637 -0.3150 -0.1391
 1032TIP3   OH224586   6.274   0.060  12.508  0.0157  0.2426  0.4867
 1032TIP3    H124587   6.316  -0.021  12.479  2.2806  0.6805  2.2575
 1032TIP3    H224588   6.307   0.073  12.597 -2.0260  1.9823  1.0612
 1033TIP3   OH224589   2.849   5.668   4.735  0.1427  0.0758  0.0665
 1033TIP3    H124590   2.848   5.755   4.776  0.0377  0.0321  0.1569
 1033TIP3    H224591   2.767   5.628   4.763 -0.8482  0.7573 -1.7341
 1034TIP3   OH224592   1.049   1.892   5.747 -0.3714  0.2397 -0.4532
 1034TIP3    H124593   1.042   1.962   5.811 -1.1591  1.0564 -1.4021
 1034TIP3    H224594   1.015   1.815   5.793 -1.7089  0.9836 -0.1343
 1035TIP3   OH224595   3.329   1.923   4.966  0.0779  0.1313 -0.2708
 1035TIP3    H124596   3.253   1.933   5.023 -0.0751  0.9138 -0.5984
 1035TIP3    H224597   3.301   1.860   4.900  0.0204 -0.2527  0.1125
 1036TIP3   OH224598   2.312   2.837  13.616  0.1642  0.0126  0.7480
 1036TIP3    H124599   2.239   2.890  13.583 -0.4341 -0.9765  0.4472
 1036TIP3    H224600   2.379   2.844  13.549 -0.5771 -0.9840 -0.1370
 1037TIP3   OH224601   2.545   2.029  15.731 -0.6002  0.3327 -0.1923
 1037TIP3    H124602   2.614   1.972  15.766 -0.4620 -0.3369 -1.5332
 1037TIP3    H224603   2.466   2.002  15.777 -0.5891 -1.1344 -1.0096
 1038TIP3   OH224604   5.833   6.148  12.563  0.0324 -1.1699 -0.2978
 1038TIP3    H124605   5.856   6.161  12.655  0.2580 -0.5512 -0.4406
 1038TIP3    H224606   5.905   6.189  12.514 -0.5075 -0.7551 -0.7522
 1039TIP3   OH224607   1.563   3.626  12.186  0.1192  0.3915  0.4617
 1039TIP3    H124608   1.549   3.575  12.106 -0.5375  0.5624  0.4548
 1039TIP3    H224609   1.626   3.576  12.237  0.0956 -0.0131  0.0958
 1040TIP3   OH224610   0.595   2.605  11.970  0.6049  0.1308 -0.1828
 1040TIP3    H124611   0.539   2.661  11.916 -1.2496  0.0286  1.5180
 1040TIP3    H224612   0.637   2.666  12.031  0.0994 -0.0846  0.3949
 1041TIP3   OH224613   1.989   0.149   5.747 -0.0842 -0.0998 -0.7689
 1041TIP3    H124614   2.084   0.160   5.758  0.0691 -0.1575 -1.8894
 1041TIP3    H224615   1.951   0.189   5.825  0.8532  0.2241 -0.4612
 1042TIP3   OH224616   0.022   0.941   1.814 -0.7705  0.3544 -0.2389
 1042TIP3    H124617   0.066   1.000   1.875 -0.3323  0.7364 -0.9186
 1042TIP3    H224618  -0.050   0.903   1.865  0.4334 -0.4034  0.9496
 1043TIP3   OH224619   6.564   0.857  11.500 -0.1452 -0.4057  0.2024
 1043TIP3    H124620   6.640   0.857  11.441 -1.6033  1.5372 -1.8096
 1043TIP3    H224621   6.495   0.814  11.450 -1.1370  0.3154  0.9348
 1044TIP3   OH224622   6.604   0.823   5.586  0.3264 -0.1450  0.0736
 1044TIP3    H124623   6.670   0.783   5.643  0.8738 -0.2283 -0.6000
 1044TIP3    H224624   6.627   0.916   5.585 -1.9395  0.6190  2.9908
 1045TIP3   OH224625   2.940   0.809   2.132  0.3370 -0.3375 -0.2026
 1045TIP3    H124626   2.847   0.811   2.152  0.2352 -0.5550 -0.6364
 1045TIP3    H224627   2.945   0.769   2.045  0.5939  2.5069 -1.6114
 1046TIP3   OH224628   5.821   0.099   0.661 -0.4203 -0.7046 -0.2023
 1046TIP3    H124629   5.780   0.154   0.728  0.9356  0.2244 -0.1057
 1046TIP3    H224630   5.821   0.011   0.699  1.9339  0.0737  1.8543
 1047TIP3   OH224631   5.991   1.552   4.946  0.1238 -0.3645 -0.0741
 1047TIP3    H124632   5.920   1.527   4.887 -0.7146  1.1417  0.2274
 1047TIP3    H224633   5.998   1.479   5.008 -0.1875 -1.1583 -0.9553
 1048TIP3   OH224634   6.674   2.456   5.195 -0.5102 -0.6069  0.2153
 1048TIP3    H124635   6.646   2.436   5.105  2.6377  0.0617 -1.0422
 1048TIP3    H224636   6.645   2.547   5.208 -0.2259 -0.4014 -0.4982
 1049TIP3   OH224637   1.430   4.621  13.922  0.4227 -0.2792  0.5986
 1049TIP3    H124638   1.511   4.578  13.896 -0.6252 -1.6793 -0.5279
 1049TIP3    H224639   1.380   4.630  13.841 -1.5353 -1.7037  1.5586
 1050TIP3   OH224640   1.550   5.044   3.399  0.2834 -0.1016  1.0089
 1050TIP3    H124641   1.630   5.052   3.451  1.4148 -2.9231 -0.0907
 1050TIP3    H224642   1.491   4.993   3.454  0.5048 -0.8532  0.5611
 1051TIP3   OH224643   2.212   3.278   1.137  0.0729 -0.2599 -0.1667
 1051TIP3    H124644   2.131   3.315   1.174  0.2053  0.9844 -1.0455
 1051TIP3    H224645   2.252   3.351   1.090  0.9252 -1.2724 -1.0639
 1052TIP3   OH224646   1.228   4.255  14.322  0.0835 -0.0601 -0.2621
 1052TIP3    H124647   1.293   4.189  14.345  1.1184  1.1557  0.5038
 1052TIP3    H224648   1.278   4.322  14.276 -1.0302 -0.0264 -1.4661
 1053TIP3   OH224649   4.979   0.583   4.114 -0.2509 -0.5978  0.0035
 1053TIP3    H124650   5.044   0.602   4.182  0.8432 -2.7034 -0.3648
 1053TIP3    H224651   4.971   0.665   4.065  0.4422  0.3666  1.4166
 1054TIP3   OH224652   6.272   0.006  16.487 -0.3067  0.6566 -0.0087
 1054TIP3    H124653   6.255  -0.071  16.433 -0.5306  0.9202 -0.3177
 1054TIP3    H224654   6.336  -0.024  16.552 -0.9042  0.0305  0.3030
 1055TIP3   OH224655   1.580   5.981  12.623 -0.5352  0.3656  0.0372
 1055TIP3    H124656   1.541   6.068  12.636 -1.5372  0.0185 -0.5035
 1055TIP3    H224657   1.514   5.920  12.657 -1.4702 -0.3479 -2.7699
 1056TIP3   OH224658   1.350   1.185   0.806 -0.2588 -0.7202  0.4125
 1056TIP3    H124659   1.283   1.176   0.738 -0.0051 -1.6061  0.2703
 1056TIP3    H224660   1.376   1.095   0.827 -0.1477 -0.4560  1.5062
 1057TIP3   OH224661   5.905   3.373   3.417 -0.6322  0.1198  0.6660
 1057TIP3    H124662   5.936   3.461   3.398 -2.4803  1.0126  1.5413
 1057TIP3    H224663   5.972   3.315   3.379  0.2447  1.8601 -0.5778
 1058TIP3   OH224664   1.474   1.330   4.631 -0.2081  0.1584  0.0678
 1058TIP3    H124665   1.466   1.422   4.605 -2.2456 -0.0326 -0.1690
 1058TIP3    H224666   1.567   1.311   4.623  0.2406  2.1581 -0.0142
 1059TIP3   OH224667   3.727   0.806  12.142 -0.3362  0.4951 -0.1644
 1059TIP3    H124668   3.697   0.795  12.232 -1.0406  1.2361 -0.2878
 1059TIP3    H224669   3.649   0.837  12.095  0.2207  0.8678 -0.8581
 1060TIP3   OH224670   1.378   6.801   3.969  0.2793 -0.4388  0.4667
 1060TIP3    H124671   1.409   6.763   3.886  1.9895 -0.1807  0.9380
 1060TIP3    H224672   1.299   6.848   3.946 -0.1012 -1.5958 -0.7417
 1061TIP3   OH224673   2.108   3.083   1.599  0.0220  0.8251 -0.1871
 1061TIP3    H124674   2.088   3.078   1.693 -0.4821  1.3187 -0.2644
 1061TIP3    H224675   2.124   2.992   1.574  0.0153  0.6702  0.3476
 1062TIP3   OH224676   6.464   1.638   5.746  0.3516 -0.3057  0.2160
 1062TIP3    H124677   6.390   1.680   5.703  1.2572  0.6231 -0.4867
 1062TIP3    H224678   6.471   1.681   5.831 -0.5938 -1.1852  0.7555
 1063TIP3   OH224679   4.431   2.187   1.909  0.5663  0.4366  0.2015
 1063TIP3    H124680   4.498   2.240   1.867  0.7779  0.2934  0.3545
 1063TIP3    H224681   4.473   2.102   1.923  0.7846  0.7459  1.4915
 1064TIP3   OH224682   2.344   1.823  13.753  0.1794  0.4089  0.4523
 1064TIP3    H124683   2.260   1.841  13.711 -0.5533  0.2960  1.8422
 1064TIP3    H224684   2.393   1.905  13.746 -0.4184  0.7690  0.4901
 1065TIP3   OH224685   0.728   6.125  14.181  0.0137 -0.8947 -0.0909
 1065TIP3    H124686   0.764   6.161  14.100  0.7063  1.6670  1.2415
 1065TIP3    H224687   0.803   6.083  14.224  0.7682  1.5928  1.1767
 1066TIP3   OH224688   4.779   0.311   2.305 -0.4654  0.2373 -0.8279
 1066TIP3    H124689   4.762   0.217   2.294 -0.2571  0.2094 -0.9350
 1066TIP3    H224690   4.707   0.354   2.260 -0.2363  0.1243 -1.3132
 1067TIP3   OH224691   0.758   1.926   2.256  0.1955 -0.6685 -0.5129
 1067TIP3    H124692   0.814   1.895   2.185  0.0297  0.6431 -1.2453
 1067TIP3    H224693   0.675   1.880   2.243 -0.1157  0.1917 -1.6990
 1068TIP3   OH224694   6.194   2.428   0.023  0.5596 -0.0977  0.6655
 1068TIP3    H124695   6.205   2.335   0.000  1.2612 -0.2292  1.4694
 1068TIP3    H224696   6.101   2.445   0.010  0.7940 -0.2998 -1.6996
 1069TIP3   OH224697   4.399   0.190   6.904 -0.2708  0.3191  0.0578
 1069TIP3    H124698   4.405   0.154   6.816  0.3635  1.4176 -0.3593
 1069TIP3    H224699   4.310   0.169   6.933 -1.3106  2.0136 -1.7497
 1070TIP3   OH224700   1.205   3.777   4.386 -0.2565  0.5613 -1.1684
 1070TIP3    H124701   1.178   3.734   4.306  1.5942 -1.4858 -0.7886
 1070TIP3    H224702   1.276   3.836   4.360 -0.8835  1.2781 -1.2783
 1071TIP3   OH224703   5.826   1.659  14.194  0.0143  0.6308  0.2316
 1071TIP3    H124704   5.819   1.566  14.213 -1.5361  0.3080 -1.5906
 1071TIP3    H224705   5.890   1.665  14.123  0.0168  0.9264  0.2582
 1072TIP3   OH224706   1.889   0.474   1.913  0.5422  0.6061  0.0519
 1072TIP3    H124707   1.894   0.551   1.856  0.3858  0.1020 -0.6519
 1072TIP3    H224708   1.800   0.477   1.949  0.2539  0.3103 -0.6189
 1073TIP3   OH224709   5.720   3.529   4.639  0.5178 -0.0246 -0.3066
 1073TIP3    H124710   5.805   3.570   4.652  0.4307  0.0510  0.0241
 1073TIP3    H224711   5.698   3.548   4.548  0.1650  1.2548  0.0289
 1074TIP3   OH224712   6.355   0.350   6.880 -0.0617 -0.4669 -0.6393
 1074TIP3    H124713   6.289   0.296   6.924 -0.6904 -0.7423 -1.8747
 1074TIP3    H224714   6.325   0.440   6.894 -1.1917 -0.6105 -1.8657
 1075TIP3   OH224715   1.111   6.732   2.069 -0.6296  0.3700 -0.1723
 1075TIP3    H124716   1.181   6.794   2.047 -0.8159  1.0056  0.8942
 1075TIP3    H224717   1.153   6.667   2.125 -0.3120 -0.8224 -1.7400
 1076TIP3   OH224718   3.358   2.325  16.876 -0.5050 -0.1635 -0.4261
 1076TIP3    H124719   3.273   2.292  16.847 -0.5467  1.7000 -2.7484
 1076TIP3    H224720   3.338   2.407  16.921  0.0579  0.3099 -1.0256
 1077TIP3   OH224721   5.381   0.599   4.908 -0.1915  0.5569 -0.0045
 1077TIP3    H124722   5.454   0.575   4.965  0.7890 -0.4625 -1.6018
 1077TIP3    H224723   5.416   0.668   4.852 -0.1619 -0.4424 -1.2752
 1078TIP3   OH224724   3.464   5.820   0.730  0.4018 -0.4907  0.2429
 1078TIP3    H124725   3.477   5.913   0.746 -0.0174 -0.4602  0.4056
 1078TIP3    H224726   3.421   5.787   0.808 -1.8124 -0.3000 -0.8291
 1079TIP3   OH224727   4.318   1.396   5.037  0.0870  0.4610 -0.0131
 1079TIP3    H124728   4.357   1.384   5.123 -0.0026  1.3781  0.1546
 1079TIP3    H224729   4.314   1.307   5.001  1.0076  0.1801  0.5354
 1080TIP3   OH224730   6.029   6.670   4.751  0.2834 -0.1879  0.2434
 1080TIP3    H124731   6.058   6.579   4.759 -1.7376 -0.8556  0.7206
 1080TIP3    H224732   6.023   6.685   4.657  2.0454 -0.0144  0.1213
 1081TIP3   OH224733   0.807   5.528  14.732  0.0178 -0.1089 -0.0940
 1081TIP3    H124734   0.784   5.496  14.645  1.1946 -0.1841 -0.3926
 1081TIP3    H224735   0.825   5.448  14.783  2.7182 -0.0341 -0.7736
 1082TIP3   OH224736   2.288   6.087   3.322  0.3432  0.0005  0.1524
 1082TIP3    H124737   2.313   6.040   3.402 -0.1584 -1.5445 -0.5622
 1082TIP3    H224738   2.371   6.116   3.284  0.6485 -0.0851  0.7430
 1083TIP3   OH224739   0.473   5.218  17.092 -0.6010 -0.2023  0.0308
 1083TIP3    H124740   0.478   5.230  17.187 -1.2958 -1.4564  0.2503
 1083TIP3    H224741   0.380   5.230  17.072 -0.2390  1.5873 -0.7453
 1084TIP3   OH224742   4.694   5.901   0.990 -0.3058  0.5489  0.0497
 1084TIP3    H124743   4.725   5.828   1.044  0.1980 -0.2456 -1.2719
 1084TIP3    H224744   4.649   5.959   1.052 -0.7962 -0.9116  1.1144
 1085TIP3   OH224745   2.129   3.953  15.474 -0.2258  0.4631 -0.0420
 1085TIP3    H124746   2.223   3.967  15.460 -0.3308  0.5326 -0.7100
 1085TIP3    H224747   2.117   3.966  15.569  0.5938 -0.5021  0.2126
 1086TIP3   OH224748   3.949   2.205   2.518  0.1500 -0.9039  0.2847
 1086TIP3    H124749   3.858   2.218   2.547  0.2035  1.6895 -0.4895
 1086TIP3    H224750   3.943   2.205   2.422  0.8156 -2.4714  0.2063
 1087TIP3   OH224751   3.470   0.111   5.097 -0.1314  0.1716 -0.0017
 1087TIP3    H124752   3.525   0.113   5.019 -0.4492 -1.3193 -0.3015
 1087TIP3    H224753   3.391   0.159   5.072  0.1898  0.5766 -0.2494
 1088TIP3   OH224754   1.445   6.810  12.002  0.5216 -0.5520 -0.2151
 1088TIP3    H124755   1.351   6.818  12.018  0.4401  0.3636 -1.0665
 1088TIP3    H224756   1.485   6.873  12.063  0.6530 -1.4615  0.6651
 1089TIP3   OH224757   2.570   4.722  13.477  0.3717  0.0146 -1.2045
 1089TIP3    H124758   2.577   4.658  13.407  1.4932 -0.7561 -0.4203
 1089TIP3    H224759   2.660   4.753  13.490  0.2146  0.0047  0.0077
 1090TIP3   OH224760   5.140   5.953   4.647 -0.7145  0.4749 -0.6690
 1090TIP3    H124761   5.194   5.973   4.725  1.2102  2.7487 -2.4064
 1090TIP3    H224762   5.055   5.992   4.667 -0.7998 -0.4211  0.9134
 1091TIP3   OH224763   1.824   3.316   0.657 -0.1883  0.2898  0.0529
 1091TIP3    H124764   1.898   3.297   0.715  0.2550  1.3365 -0.1309
 1091TIP3    H224765   1.756   3.254   0.682  0.9529 -1.0898 -0.1576
 1092TIP3   OH224766   4.039   1.519  12.457  0.3394  0.2380 -0.0861
 1092TIP3    H124767   4.093   1.463  12.401  1.4776  1.5014 -0.3018
 1092TIP3    H224768   4.000   1.459  12.520 -0.2716 -1.1047 -1.6690
 1093TIP3   OH224769   3.904   6.551  17.158 -0.4097  0.6223 -0.3864
 1093TIP3    H124770   3.845   6.584  17.090 -0.8348 -0.3056 -0.4863
 1093TIP3    H224771   3.923   6.461  17.131 -0.1251  0.4296  0.4253
 1094TIP3   OH224772   1.635   4.624   5.771  0.2070  0.5364  0.5711
 1094TIP3    H124773   1.712   4.617   5.715  0.6221  3.2433  0.6778
 1094TIP3    H224774   1.668   4.666   5.851 -1.3434  1.7218  0.6320
 1095TIP3   OH224775   5.081   6.025  13.444 -0.5021  0.4647  0.0587
 1095TIP3    H124776   5.042   6.067  13.367  1.0334  0.8908 -0.5098
 1095TIP3    H224777   5.169   6.062  13.450  0.2064 -1.2520  0.7043
 1096TIP3   OH224778   4.074   2.206  15.173 -0.4176  0.0265 -0.2776
 1096TIP3    H124779   4.063   2.296  15.142  1.1059  0.6822  0.9086
 1096TIP3    H224780   4.119   2.161  15.100  1.6091  1.0940  0.2320
 1097TIP3   OH224781   6.441   6.416  12.700 -0.3801  0.0557  0.4125
 1097TIP3    H124782   6.484   6.478  12.759 -0.0603 -1.0554  1.3878
 1097TIP3    H224783   6.361   6.390  12.747  0.0116 -1.0429  0.5032
 1098TIP3   OH224784   4.857   6.721  17.130 -0.0589  0.6095 -0.1282
 1098TIP3    H124785   4.764   6.730  17.151 -0.4563 -0.9067 -1.0068
 1098TIP3    H224786   4.857   6.684  17.042  1.4224  1.9392 -0.7314
 1099TIP3   OH224787   3.348   4.332   3.160 -0.4462 -0.2639  0.7331
 1099TIP3    H124788   3.408   4.355   3.231  0.1558  1.2006 -0.1939
 1099TIP3    H224789   3.263   4.363   3.191 -0.4031 -0.7041  1.3059
 1100TIP3   OH224790   0.476   5.330   4.415  0.4941 -0.6527  0.4975
 1100TIP3    H124791   0.428   5.249   4.397 -1.8245  0.5811  0.6730
 1100TIP3    H224792   0.465   5.345   4.509  1.2300 -0.3134  0.5392
 1101TIP3   OH224793   1.207   1.344   0.010 -0.4710 -0.4465 -0.5109
 1101TIP3    H124794   1.249   1.274   0.059 -0.4546  0.0329  0.1767
 1101TIP3    H224795   1.159   1.395   0.076  2.1186  2.1174 -0.4003
 1102TIP3   OH224796   0.186   0.684  10.544  0.0969 -0.1814 -0.0795
 1102TIP3    H124797   0.131   0.706  10.619 -0.8158 -1.0248 -0.4589
 1102TIP3    H224798   0.128   0.695  10.468  0.3257 -1.4366 -0.4638
 1103TIP3   OH224799   3.916   0.751   5.652 -0.2235 -0.0549  0.2135
 1103TIP3    H124800   3.965   0.792   5.581  1.3251 -1.8747  0.1300
 1103TIP3    H224801   3.851   0.696   5.608  1.0256 -1.5325  0.0842
 1104TIP3   OH224802   5.902   0.349  13.816  0.4710 -0.5078  0.4276
 1104TIP3    H124803   5.844   0.421  13.792  0.3124 -0.5655  0.6355
 1104TIP3    H224804   5.852   0.270  13.796 -0.5405 -0.5758  2.9670
 1105TIP3   OH224805   5.510   4.574  13.656 -0.5486  0.3934 -0.1131
 1105TIP3    H124806   5.495   4.536  13.569 -0.1921 -1.2061  0.4885
 1105TIP3    H224807   5.431   4.624  13.675 -1.8494 -1.5222 -0.2318
 1106TIP3   OH224808   3.614   1.295  11.605 -0.6202 -0.1956  0.7741
 1106TIP3    H124809   3.627   1.375  11.656 -1.8221  0.0535  0.7106
 1106TIP3    H224810   3.549   1.245  11.654 -0.5100 -0.7505  0.3694
 1107TIP3   OH224811   3.939   0.665   4.626 -0.7668  0.0499 -0.3786
 1107TIP3    H124812   3.929   0.615   4.545  0.6101 -1.4203  0.3174
 1107TIP3    H224813   3.872   0.630   4.684 -0.8428  0.1316 -0.4164
 1108TIP3   OH224814   0.343   2.222   2.517  0.5674 -0.1489 -0.2667
 1108TIP3    H124815   0.371   2.294   2.574  1.3896 -0.5807 -0.1080
 1108TIP3    H224816   0.422   2.170   2.502  0.3251 -0.1751 -1.6285
 1109TIP3   OH224817   4.902   1.299  14.698  0.2024  0.2121 -0.1686
 1109TIP3    H124818   4.978   1.346  14.664  0.9799 -0.5161  0.5096
 1109TIP3    H224819   4.869   1.354  14.769  0.1110  0.5235 -0.4545
 1110TIP3   OH224820   0.550   3.661   2.087  0.0577 -0.1779 -0.3643
 1110TIP3    H124821   0.478   3.724   2.090  0.3632  0.2054 -0.9867
 1110TIP3    H224822   0.543   3.621   2.000 -2.2857 -3.5516  1.1456
 1111TIP3   OH224823   0.099   6.661  12.049  0.1414 -0.1885  0.8207
 1111TIP3    H124824   0.018   6.620  12.019  1.5902 -3.0124  0.4616
 1111TIP3    H224825   0.091   6.663  12.144 -0.9283  0.9952  0.7431
 1112TIP3   OH224826   6.433   1.071  15.952  0.1935  0.3291  0.2341
 1112TIP3    H124827   6.373   1.007  15.990  1.5133  0.1492  2.1667
 1112TIP3    H224828   6.519   1.043  15.981  1.1520  1.1266 -1.6676
 1113TIP3   OH224829   6.171   5.367  15.706  0.1850  0.2353 -0.1881
 1113TIP3    H124830   6.189   5.329  15.620 -0.4657 -0.0157 -0.2213
 1113TIP3    H224831   6.227   5.444  15.711  1.6710 -0.8101 -0.0604
 1114TIP3   OH224832   0.662   3.610  14.297 -0.5460 -0.0622  0.2291
 1114TIP3    H124833   0.616   3.567  14.225  0.9526 -0.6123 -0.4460
 1114TIP3    H224834   0.736   3.654  14.255  0.4013 -0.4394  1.4301
 1115TIP3   OH224835   6.296   3.647   3.040 -0.0382  0.2302 -0.1850
 1115TIP3    H124836   6.258   3.678   3.122  0.6008 -0.8555  0.5459
 1115TIP3    H224837   6.232   3.673   2.973 -1.1956  0.0241  0.8031
 1116TIP3   OH224838   4.323   0.698  10.569 -0.3792  0.3809  0.1407
 1116TIP3    H124839   4.397   0.652  10.530 -0.0583  2.6422 -2.1600
 1116TIP3    H224840   4.351   0.715  10.659  0.9269 -0.7875 -0.0124
 1117TIP3   OH224841   3.308   5.528  16.054  0.7913  0.0123 -0.1879
 1117TIP3    H124842   3.365   5.604  16.044  0.8658 -0.0837 -0.5103
 1117TIP3    H224843   3.319   5.479  15.973 -1.1990  0.9778 -1.1020
 1118TIP3   OH224844   6.603   1.018   6.127  0.0638  0.3626 -0.0624
 1118TIP3    H124845   6.679   0.960   6.129  0.6788  1.0968 -0.9980
 1118TIP3    H224846   6.597   1.046   6.036 -2.2305 -0.8142 -0.3397
 1119TIP3   OH224847   1.364   3.507   0.778  0.5374 -0.5170 -0.0972
 1119TIP3    H124848   1.412   3.445   0.722  0.6916 -0.8303  0.3764
 1119TIP3    H224849   1.358   3.586   0.725  1.9839 -0.3155 -0.0011
 1120TIP3   OH224850   4.394   1.348   3.702 -0.2896 -0.1339 -0.3421
 1120TIP3    H124851   4.334   1.417   3.674 -1.1033 -0.0954  1.3171
 1120TIP3    H224852   4.339   1.290   3.755  0.9510 -0.6048  0.4663
 1121TIP3   OH224853   1.264   2.649  15.947  0.0496  0.1237 -0.5912
 1121TIP3    H124854   1.233   2.568  15.986  0.0416  0.7996  0.8959
 1121TIP3    H224855   1.342   2.672  15.998 -1.3552  2.3170  0.7709
 1122TIP3   OH224856   4.230   3.897  16.353 -0.4787  0.1668  0.0557
 1122TIP3    H124857   4.296   3.946  16.305 -1.3273  1.4540  0.1691
 1122TIP3    H224858   4.146   3.933  16.324 -1.1574 -1.3556 -0.0094
 1123TIP3   OH224859   4.039   5.920   5.038 -0.4459 -0.2666 -0.3623
 1123TIP3    H124860   4.065   5.853   5.102 -0.1314 -0.4634 -0.6961
 1123TIP3    H224861   4.063   6.003   5.080  0.7348 -0.4421 -0.6655
 1124TIP3   OH224862   4.907   3.259  17.122  0.2766 -0.2243  0.1627
 1124TIP3    H124863   4.968   3.279  17.193  0.2454  2.2628 -0.4268
 1124TIP3    H224864   4.959   3.268  17.042  0.1826 -2.4920 -0.2217
 1125TIP3   OH224865   4.918   2.355  14.006  0.7588 -0.4194 -0.3681
 1125TIP3    H124866   4.823   2.359  14.006  0.7604 -0.1889  0.8651
 1125TIP3    H224867   4.938   2.267  13.975  0.1234 -0.7151  0.0471
 1126TIP3   OH224868   2.410   5.982   1.046  0.5172 -0.1213  0.5878
 1126TIP3    H124869   2.364   5.940   0.974  1.9493 -2.1785  0.7588
 1126TIP3    H224870   2.348   5.982   1.118  0.0246 -0.7657  0.1742
 1127TIP3   OH224871   4.009   3.429   3.637  0.2658  0.0669 -0.2596
 1127TIP3    H124872   4.053   3.479   3.706 -0.9079 -1.2213  1.4876
 1127TIP3    H224873   3.937   3.485   3.609 -0.4285 -0.1846  0.9651
 1128TIP3   OH224874   3.782   0.694   6.381  0.2953 -0.1172 -0.1087
 1128TIP3    H124875   3.725   0.619   6.361  1.7262 -1.1172 -0.5853
 1128TIP3    H224876   3.780   0.747   6.302  0.7007 -0.6014 -0.4488
 1129TIP3   OH224877   4.122   1.870   1.245 -0.3644  0.3163 -0.2957
 1129TIP3    H124878   4.161   1.926   1.178  0.1606 -0.2841 -0.5026
 1129TIP3    H224879   4.088   1.931   1.311 -0.6687  0.9047 -0.9846
 1130TIP3   OH224880   2.972   0.688  15.646  0.2114 -0.4133 -0.5215
 1130TIP3    H124881   2.884   0.708  15.613  0.5064  0.5781 -0.7543
 1130TIP3    H224882   2.970   0.595  15.666 -0.1206 -1.0016 -2.9601
 1131TIP3   OH224883   0.413   1.446  14.150 -0.0123  0.4679  0.5426
 1131TIP3    H124884   0.428   1.472  14.241 -0.4967  1.6831  0.3101
 1131TIP3    H224885   0.467   1.369  14.137  0.0744  0.2852  1.8598
 1132TIP3   OH224886   4.018   4.947   4.684  0.1174  0.1449 -0.3271
 1132TIP3    H124887   3.964   4.891   4.629 -0.8496 -0.4342  1.1353
 1132TIP3    H224888   4.108   4.923   4.663 -0.2607 -2.0803  0.3198
 1133TIP3   OH224889   2.449   5.587  15.892 -0.3836  0.1049  0.1447
 1133TIP3    H124890   2.367   5.578  15.844 -0.2850 -1.1064  0.1858
 1133TIP3    H224891   2.458   5.682  15.906 -1.8250  0.2468  0.2553
 1134TIP3   OH224892   1.292   4.395   1.911 -0.0187  0.1204  0.0065
 1134TIP3    H124893   1.341   4.351   1.980  1.9090 -1.1715 -2.0416
 1134TIP3    H224894   1.200   4.386   1.937  0.6492  0.7881  2.9466
 1135TIP3   OH224895   4.208   1.949   6.013  0.1651  0.0302  0.2697
 1135TIP3    H124896   4.173   1.870   6.055  0.9255  0.1472  1.1407
 1135TIP3    H224897   4.209   2.015   6.083 -0.3138  0.7727 -0.4113
 1136TIP3   OH224898   4.894   3.154  11.570  0.3054  0.1953  0.0783
 1136TIP3    H124899   4.869   3.071  11.529 -0.3433  0.7718 -0.7244
 1136TIP3    H224900   4.820   3.212  11.552  0.6191  0.8662  0.8953
 1137TIP3   OH224901   0.260   4.290  14.740  0.0666  0.0800  0.4192
 1137TIP3    H124902   0.184   4.235  14.762  1.2705 -1.9679 -0.2172
 1137TIP3    H224903   0.287   4.260  14.653  3.5816 -1.7496  1.9354
 1138TIP3   OH224904   4.602   4.349   0.102 -0.0781  0.1566 -1.0457
 1138TIP3    H124905   4.596   4.272   0.159 -3.1216 -0.1691 -1.5967
 1138TIP3    H224906   4.626   4.421   0.161 -0.0137 -0.7254  0.0437
 1139TIP3   OH224907   0.686   4.613   2.857  0.1400 -0.5475  0.2394
 1139TIP3    H124908   0.728   4.527   2.863  0.6218 -0.2759  0.8547
 1139TIP3    H224909   0.644   4.613   2.771  0.1440 -1.3941  0.2283
 1140TIP3   OH224910   4.147   0.598   1.986  0.2361 -0.5336 -0.3811
 1140TIP3    H124911   4.220   0.592   1.924  1.2724  1.0534  0.6232
 1140TIP3    H224912   4.166   0.533   2.053  0.2060 -0.8093 -0.6398
 1141TIP3   OH224913   4.772   6.572   0.756  0.2733  1.0680 -0.5438
 1141TIP3    H124914   4.825   6.559   0.835 -0.0432  0.7485 -0.3824
 1141TIP3    H224915   4.684   6.591   0.789 -0.4143 -1.3643 -0.8085
 1142TIP3   OH224916   2.960   4.914   3.636  0.1507 -0.3753  0.1014
 1142TIP3    H124917   2.924   4.883   3.719  1.2789 -1.3119  0.2667
 1142TIP3    H224918   2.883   4.942   3.586 -0.6930 -1.1952  0.8845
 1143TIP3   OH224919   3.256   5.896   5.333 -0.1713 -0.5931 -0.3814
 1143TIP3    H124920   3.167   5.920   5.358  0.2880  0.5534  0.2319
 1143TIP3    H224921   3.291   5.975   5.292  1.7597  0.2930  2.6478
 1144TIP3   OH224922   5.578   1.279  14.596 -0.2851  0.8075 -0.1661
 1144TIP3    H124923   5.635   1.213  14.633 -0.9474  0.3735  0.0971
 1144TIP3    H224924   5.599   1.359  14.644  1.1641  1.0264 -1.1104
 1145TIP3   OH224925   5.666   2.033   5.888  0.0582 -0.3701  0.7974
 1145TIP3    H124926   5.712   2.090   5.950 -0.9955  0.4508  0.8487
 1145TIP3    H224927   5.624   1.967   5.944  1.0364 -1.0495  0.7588
 1146TIP3   OH224928   3.025   4.437  16.487 -0.2660 -0.3314 -0.0477
 1146TIP3    H124929   2.955   4.493  16.454 -0.3678 -0.0127  0.7012
 1146TIP3    H224930   3.105   4.489  16.475 -0.5469  0.7374  2.2680
 1147TIP3   OH224931   4.183   2.857   1.980  0.1382 -0.2712 -0.2908
 1147TIP3    H124932   4.267   2.894   2.008 -0.2340  0.0439  0.4253
 1147TIP3    H224933   4.152   2.808   2.056 -0.5744  0.0531 -0.3680
 1148TIP3   OH224934   3.414   5.855  12.269 -0.3064  0.0409  0.5457
 1148TIP3    H124935   3.366   5.937  12.255 -0.7180 -0.5152 -1.4848
 1148TIP3    H224936   3.439   5.859  12.362  0.9256  3.1363  0.2285
 1149TIP3   OH224937   6.569   3.885  11.663 -0.3037 -0.4670  0.5578
 1149TIP3    H124938   6.490   3.905  11.714 -1.4567 -2.6063 -0.2691
 1149TIP3    H224939   6.598   3.970  11.629 -2.5009  0.3297  0.5328
 1150TIP3   OH224940   1.314   0.174   4.706  0.2367  0.4300 -0.0211
 1150TIP3    H124941   1.337   0.091   4.747 -1.3505 -0.4997 -0.9471
 1150TIP3    H224942   1.308   0.236   4.780  1.9491 -0.1111  0.6132
 1151TIP3   OH224943   1.444   0.167   3.529  0.2106  0.5899  0.2650
 1151TIP3    H124944   1.528   0.189   3.487  0.7374 -1.2008  0.2704
 1151TIP3    H224945   1.378   0.193   3.465  0.7970  1.5370  0.0281
 1152TIP3   OH224946   5.934   0.753  12.052  0.1563 -0.7444 -0.4410
 1152TIP3    H124947   5.967   0.798  11.975 -0.3277  0.1146 -0.1537
 1152TIP3    H224948   5.972   0.800  12.126 -0.4367 -0.7485 -0.1334
 1153TIP3   OH224949   1.520   3.881  12.128 -0.1910 -0.6285 -0.4077
 1153TIP3    H124950   1.561   3.948  12.184  0.9311 -0.6609 -1.1615
 1153TIP3    H224951   1.560   3.799  12.156 -0.9948 -0.8969 -0.0171
 1154TIP3   OH224952   2.311   6.804   5.602  0.1617 -0.3911 -0.3052
 1154TIP3    H124953   2.328   6.792   5.695  0.3370 -3.5849 -0.6114
 1154TIP3    H224954   2.385   6.857   5.570 -0.8560  2.3492  1.5756
 1155TIP3   OH224955   0.752   1.601   4.522  0.5190 -0.4553  0.4261
 1155TIP3    H124956   0.670   1.579   4.565 -0.5132 -0.2810 -1.3791
 1155TIP3    H224957   0.784   1.519   4.486  0.6726 -0.3688  0.3638
 1156TIP3   OH224958   5.242   5.095   1.097  0.3350  0.3600  0.0641
 1156TIP3    H124959   5.289   5.147   1.033  0.0542  0.0965 -0.3597
 1156TIP3    H224960   5.172   5.152   1.128 -1.2496 -0.3959 -1.8840
 1157TIP3   OH224961   2.105   2.996  12.176  0.2895  0.4380  0.3430
 1157TIP3    H124962   2.045   2.963  12.109  0.7191  0.8808 -0.2700
 1157TIP3    H224963   2.164   2.923  12.193  1.0092  0.7492 -0.7433
 1158TIP3   OH224964   0.126   1.479  12.944  0.1862  0.1500  0.1596
 1158TIP3    H124965   0.102   1.414  12.879  0.7847  0.5337 -0.4577
 1158TIP3    H224966   0.143   1.429  13.024  1.0129 -0.4967 -0.4069
 1159TIP3   OH224967   2.820   4.288   3.116 -0.2424 -0.3597 -0.5339
 1159TIP3    H124968   2.762   4.269   3.190  0.0671  0.8714  0.0520
 1159TIP3    H224969   2.860   4.204   3.094 -1.9258 -1.1625 -0.6916
 1160TIP3   OH224970   6.557   3.141  16.714 -0.3168  0.1906  0.2036
 1160TIP3    H124971   6.589   3.087  16.642  0.1529 -2.5138  2.2785
 1160TIP3    H224972   6.636   3.172  16.758 -0.3548 -2.6031  2.5514
 1161TIP3   OH224973   2.914   2.396   4.607  0.5424  0.3236  0.0802
 1161TIP3    H124974   2.886   2.375   4.518 -0.1836  0.1237  0.3518
 1161TIP3    H224975   2.918   2.492   4.610 -0.1821  0.3587  0.0538
 1162TIP3   OH224976   6.506   4.484   3.780 -0.3273  0.0177  0.6429
 1162TIP3    H124977   6.567   4.430   3.831  0.1593 -2.0038 -1.8699
 1162TIP3    H224978   6.561   4.555   3.747  0.5634 -1.3000 -0.8715
 1163TIP3   OH224979   5.084   3.660  11.240 -0.5029 -0.2955  0.0515
 1163TIP3    H124980   5.098   3.658  11.146  0.3598  0.7761  0.1458
 1163TIP3    H224981   4.991   3.681  11.251 -0.2668  1.0861 -0.5504
 1164TIP3   OH224982   1.679   5.580  15.578  0.1944 -0.4259 -0.1638
 1164TIP3    H124983   1.707   5.633  15.504  0.0431 -1.0667 -0.6942
 1164TIP3    H224984   1.583   5.583  15.576  0.1909  0.1608  0.4619
 1165TIP3   OH224985   0.726   2.287  15.253 -0.5554 -0.0100 -0.1241
 1165TIP3    H124986   0.745   2.296  15.346  0.5755  0.4182 -0.3787
 1165TIP3    H224987   0.631   2.280  15.248 -0.6888  0.8232  0.9935
 1166TIP3   OH224988   0.988   5.690  14.877  0.4948 -0.1383  0.0238
 1166TIP3    H124989   0.964   5.631  14.806  0.3174 -0.4250  0.3222
 1166TIP3    H224990   1.000   5.633  14.953 -0.7643  0.3272  0.5897
 1167TIP3   OH224991   3.697   5.780   4.665  0.4175  0.3200 -0.0667
 1167TIP3    H124992   3.782   5.750   4.632  0.8133  1.1806  0.1378
 1167TIP3    H224993   3.643   5.789   4.587 -0.3101 -2.5625 -0.0317
 1168TIP3   OH224994   3.062   6.233  13.248  0.4755 -0.3810 -0.4722
 1168TIP3    H124995   3.050   6.296  13.319  1.3029  0.2436 -0.8622
 1168TIP3    H224996   3.135   6.269  13.197  1.2315 -1.8516 -0.4877
 1169TIP3   OH224997   0.956   6.179  15.610 -0.2572 -0.5361  0.6293
 1169TIP3    H124998   0.879   6.172  15.666  0.6879 -0.4931  1.9945
 1169TIP3    H224999   0.938   6.254  15.553 -1.8392 -1.4430 -0.1404
 1170TIP3   OH225000   2.757   0.398   0.557 -0.5966  0.0814  0.4889
 1170TIP3    H125001   2.676   0.378   0.510  0.7137 -1.3211 -1.3689
 1170TIP3    H225002   2.769   0.492   0.545 -1.7120  0.2255  0.3996
 1171TIP3   OH225003   5.123   5.321   1.353 -0.4491  0.8733  0.1125
 1171TIP3    H125004   5.166   5.333   1.438  1.0819 -1.5323 -0.2173
 1171TIP3    H225005   5.048   5.264   1.373 -0.7399  1.2049 -0.0165
 1172TIP3   OH225006   1.780   1.249  16.402  0.2070 -0.4818 -0.0856
 1172TIP3    H125007   1.747   1.283  16.319 -0.0570 -1.5757 -0.4466
 1172TIP3    H225008   1.787   1.326  16.459 -1.0158  0.0769 -0.6513
 1173TIP3   OH225009   5.953   5.395  17.120 -0.4519 -0.1965 -0.0917
 1173TIP3    H125010   6.024   5.342  17.156 -0.0571  0.7823  0.6262
 1173TIP3    H225011   5.993   5.480  17.102 -1.1878  0.0241 -0.7379
 1174TIP3   OH225012   0.613   4.409  14.581 -0.6705 -0.2251 -0.2280
 1174TIP3    H125013   0.547   4.426  14.513 -1.7131  0.4403  0.9206
 1174TIP3    H225014   0.573   4.441  14.662  0.4262 -1.2657  0.7615
 1175TIP3   OH225015   4.848   3.972   4.298 -0.1631  0.4198  0.0961
 1175TIP3    H125016   4.758   3.964   4.329 -1.0178  0.9292 -2.0919
 1175TIP3    H225017   4.848   4.051   4.244  1.3798 -0.0361 -0.6293
 1176TIP3   OH225018   6.706   3.324  11.367  0.2599 -0.1446  0.2531
 1176TIP3    H125019   6.668   3.287  11.288  0.9672 -0.0982 -0.1203
 1176TIP3    H225020   6.671   3.270  11.438 -1.9604  1.0409  0.1487
 1177TIP3   OH225021   1.370   0.835   4.334  0.5212 -0.0244  0.7757
 1177TIP3    H125022   1.285   0.790   4.339  0.3795  0.3262  1.6510
 1177TIP3    H225023   1.347   0.928   4.338  0.9415  0.0742  0.9246
 1178TIP3   OH225024   5.191   3.143  12.559  0.3468 -0.3261 -0.5280
 1178TIP3    H125025   5.256   3.205  12.525  0.2420  1.4524  2.1715
 1178TIP3    H225026   5.202   3.147  12.654 -1.8112 -2.1562 -0.1131
 1179TIP3   OH225027   5.363   6.630   1.648 -0.0983  0.1340  0.3976
 1179TIP3    H125028   5.412   6.583   1.715 -1.2269  1.3877  2.1969
 1179TIP3    H225029   5.340   6.563   1.583  1.5689 -0.9971  0.9135
 1180TIP3   OH225030   4.077   3.618   1.151 -0.3137  0.1795  0.2258
 1180TIP3    H125031   4.094   3.712   1.142  0.7956  0.0385  0.6169
 1180TIP3    H225032   4.026   3.595   1.074 -0.3867  1.0553 -0.0018
 1181TIP3   OH225033   4.141   4.587   1.125  0.5116  0.4674 -0.3392
 1181TIP3    H125034   4.167   4.546   1.208  0.1592 -0.7421 -0.8009
 1181TIP3    H225035   4.105   4.672   1.150  0.8898  0.3355  0.7010
 1182TIP3   OH225036   1.505   2.093  16.455 -0.0757 -0.2449 -0.1602
 1182TIP3    H125037   1.526   2.021  16.514  1.2085 -1.1920 -1.6971
 1182TIP3    H225038   1.522   2.172  16.507 -1.3897 -1.0101  1.5056
 1183TIP3   OH225039   5.873   3.869  11.221 -0.7901 -0.1690  0.7390
 1183TIP3    H125040   5.869   3.964  11.205 -3.3977 -0.3626 -0.2646
 1183TIP3    H225041   5.867   3.830  11.134 -0.8047 -1.2610  1.2123
 1184TIP3   OH225042   6.007   2.850   1.949 -0.5473  0.5134  0.6646
 1184TIP3    H125043   5.954   2.887   2.019  0.7079 -0.6697  2.3121
 1184TIP3    H225044   6.002   2.755   1.962  2.1475  0.3404  1.0941
 1185TIP3   OH225045   3.110   1.679   0.965 -0.2125  0.0435 -0.5437
 1185TIP3    H125046   3.159   1.625   1.028 -1.2120  0.2500  0.4422
 1185TIP3    H225047   3.091   1.620   0.892  0.9312 -0.2130 -0.6503
 1186TIP3   OH225048   5.800   2.185  15.120 -0.2960 -0.1251  0.0396
 1186TIP3    H125049   5.725   2.182  15.060  0.5790 -1.0849 -1.0485
 1186TIP3    H225050   5.795   2.103  15.169  0.8852 -0.9031 -1.1115
 1187TIP3   OH225051   6.232   2.925   5.723 -0.0488  0.3249  0.0313
 1187TIP3    H125052   6.296   2.957   5.786  0.0746 -1.0956  0.6676
 1187TIP3    H225053   6.276   2.852   5.679 -0.8756 -0.0282 -0.2381
 1188TIP3   OH225054   4.106   1.443   5.204 -0.2101  0.4760 -0.8823
 1188TIP3    H125055   4.032   1.383   5.210  0.9777 -1.0072 -0.2865
 1188TIP3    H225056   4.164   1.403   5.139  1.8468 -0.5265  1.4063
 1189TIP3   OH225057   2.688   4.141   0.387  0.1315 -0.2539  0.1073
 1189TIP3    H125058   2.654   4.124   0.475 -0.4429  0.6730  0.0801
 1189TIP3    H225059   2.708   4.235   0.386  0.8979 -0.4097 -0.5016
 1190TIP3   OH225060   1.582   4.788   2.014 -0.0606 -0.0455  0.0902
 1190TIP3    H125061   1.506   4.744   2.052 -2.5162 -0.4199 -4.4868
 1190TIP3    H225062   1.656   4.732   2.035 -1.5716 -1.4250  2.0503
 1191TIP3   OH225063   1.646   2.654  12.844 -0.0367  0.1692 -0.0506
 1191TIP3    H125064   1.557   2.618  12.849  0.5328 -1.0940  1.8433
 1191TIP3    H225065   1.660   2.695  12.929  1.0792  0.6827 -0.4650
 1192TIP3   OH225066   6.568   1.705  15.152  0.8572  0.0847 -0.3057
 1192TIP3    H125067   6.605   1.618  15.162  0.8550 -0.0415 -1.2569
 1192TIP3    H225068   6.637   1.765  15.180  1.6317 -0.1623 -1.6238
 1193TIP3   OH225069   0.937   3.064  11.721  0.0898 -0.0472  0.7913
 1193TIP3    H125070   0.883   2.988  11.698 -0.8496  0.9077 -0.3329
 1193TIP3    H225071   0.902   3.135  11.667  4.5815 -0.0253 -2.6280
 1194TIP3   OH225072   4.618   0.393  12.431  0.0004  0.9099 -0.1396
 1194TIP3    H125073   4.709   0.365  12.420 -0.4365 -0.6606 -0.0024
 1194TIP3    H225074   4.623   0.487  12.444  1.3933  1.3656 -3.1256
 1195TIP3   OH225075   1.180   3.701  13.604  0.0920 -0.0991  0.0037
 1195TIP3    H125076   1.170   3.791  13.572 -1.2903  0.3380  1.5023
 1195TIP3    H225077   1.112   3.651  13.559  0.2971 -0.2058 -0.1877
 1196TIP3   OH225078   5.087   1.833   5.784 -0.7764  0.1054  0.3463
 1196TIP3    H125079   5.035   1.904   5.747  2.9889  1.3303 -3.3814
 1196TIP3    H225080   5.126   1.871   5.863 -1.6775  0.9121  0.4183
 1197TIP3   OH225081   6.051   0.549   4.332  0.2341  0.4843  0.4683
 1197TIP3    H125082   6.066   0.464   4.289  0.9055 -0.5328  2.5752
 1197TIP3    H225083   6.139   0.585   4.343 -0.0519  1.4961 -0.4405
 1198TIP3   OH225084   3.435   0.452   0.969  0.3029  0.8352 -0.3263
 1198TIP3    H125085   3.521   0.491   0.984 -0.3372  2.0408  0.3802
 1198TIP3    H225086   3.388   0.517   0.916  0.2750 -0.4428 -1.9605
 1199TIP3   OH225087   5.648   0.696  12.998 -0.0060 -0.3344  0.3076
 1199TIP3    H125088   5.635   0.608  13.034  0.9233 -0.7498 -0.3315
 1199TIP3    H225089   5.740   0.716  13.016 -0.6796  1.3954  2.3075
 1200TIP3   OH225090   5.314   6.363  16.824 -0.1959 -0.0282  0.2504
 1200TIP3    H125091   5.309   6.270  16.805 -0.5885 -0.1790  1.0671
 1200TIP3    H225092   5.233   6.383  16.871  1.7274 -0.2111  4.0145
 1201TIP3   OH225093   3.109   1.085   3.450  0.4330  0.1084  0.0009
 1201TIP3    H125094   3.167   1.010   3.465 -1.3073 -1.0661  1.2607
 1201TIP3    H225095   3.070   1.067   3.364 -1.5397 -1.6350  1.1583
 1202TIP3   OH225096   1.329   4.693  12.060 -0.3057  0.3033 -0.4944
 1202TIP3    H125097   1.279   4.613  12.045 -0.8787  0.7657 -1.0895
 1202TIP3    H225098   1.272   4.746  12.117 -0.7474  1.0540 -1.6085
 1203TIP3   OH225099   0.150   1.586  15.793 -0.1662  0.1051 -0.6062
 1203TIP3    H125100   0.198   1.637  15.728  0.6570 -0.6934 -0.6409
 1203TIP3    H225101   0.191   1.500  15.791  0.7288  0.3900  1.8303
 1204TIP3   OH225102   6.637   1.527  10.781  0.3546  0.2421  0.0240
 1204TIP3    H125103   6.660   1.549  10.872 -1.2566  0.2661  0.4605
 1204TIP3    H225104   6.715   1.550  10.731  0.9935  1.0027  1.2917
 1205TIP3   OH225105   5.909   4.147  14.814 -0.1013 -0.5086  0.1084
 1205TIP3    H125106   5.988   4.202  14.817  0.4519 -1.2375 -0.6831
 1205TIP3    H225107   5.897   4.118  14.905  0.6822 -0.5878  0.1944
 1206TIP3   OH225108   6.383   4.829   3.727  0.0643  0.7636  0.0761
 1206TIP3    H125109   6.402   4.823   3.821  1.6316  0.5910 -0.2223
 1206TIP3    H225110   6.414   4.916   3.702 -1.1718  1.1545 -0.1155
 1207TIP3   OH225111   3.281   5.566  13.012 -0.2176 -0.3253  0.4317
 1207TIP3    H125112   3.311   5.475  13.005 -0.2275 -0.4962  2.2182
 1207TIP3    H225113   3.248   5.586  12.925  3.0531 -0.8265 -1.0895
 1208TIP3   OH225114   1.601   6.420  14.184  0.3258 -0.2297 -0.2688
 1208TIP3    H125115   1.658   6.473  14.239  1.4893  0.9508 -2.5162
 1208TIP3    H225116   1.649   6.338  14.170  0.5803 -0.0336 -0.5394
 1209TIP3   OH225117   4.763   0.400   4.248 -0.2274 -0.2008 -0.3900
 1209TIP3    H125118   4.796   0.358   4.328  1.5447 -0.0073 -0.9597
 1209TIP3    H225119   4.834   0.460   4.223 -0.5194 -0.6294 -2.3741
 1210TIP3   OH225120   1.008   1.918  16.441  0.1669 -0.5806  0.3039
 1210TIP3    H125121   1.021   1.992  16.499  1.3829 -2.0342  1.9813
 1210TIP3    H225122   0.964   1.955  16.364  1.9778  2.1291  0.4373
 1211TIP3   OH225123   0.709   4.112  15.898 -0.3689  0.1464 -0.0914
 1211TIP3    H125124   0.710   4.044  15.965  0.1152  0.4279  0.1893
 1211TIP3    H225125   0.770   4.081  15.831 -1.5635 -0.5939 -0.8779
 1212TIP3   OH225126   2.966   6.685   5.869 -0.0800 -0.2803 -0.2274
 1212TIP3    H125127   2.910   6.607   5.875 -1.0433  0.4183  0.0281
 1212TIP3    H225128   2.958   6.726   5.955  2.1627 -1.0355  0.4143
 1213TIP3   OH225129   1.880   6.611   5.994 -0.1651 -0.5332 -0.2647
 1213TIP3    H125130   1.797   6.584   6.032 -0.2034  0.2690  0.2437
 1213TIP3    H225131   1.868   6.602   5.899 -0.5612 -1.1558 -0.1561
 1214TIP3   OH225132   5.613   5.690   3.673  0.1317 -0.4557 -0.0457
 1214TIP3    H125133   5.608   5.749   3.598 -0.4132  1.0279  1.1100
 1214TIP3    H225134   5.521   5.671   3.694  0.1870  0.8621  1.5247
 1215TIP3   OH225135   0.214   3.955   0.562  0.0793 -0.2504 -0.0903
 1215TIP3    H125136   0.296   4.003   0.560  1.0457 -1.7598  1.0679
 1215TIP3    H225137   0.206   3.917   0.474 -0.6688  1.8708 -0.9920
 1216TIP3   OH225138   6.756   2.787  16.476 -0.2302  0.5259 -0.1272
 1216TIP3    H125139   6.692   2.764  16.544 -0.1576  0.4014 -0.1009
 1216TIP3    H225140   6.703   2.809  16.400 -0.2812 -0.3472 -0.3492
 1217TIP3   OH225141   5.074   3.312   3.343  0.7832 -0.3931 -0.4356
 1217TIP3    H125142   5.073   3.404   3.369 -1.3752 -0.5007  0.0007
 1217TIP3    H225143   5.076   3.264   3.426  1.2596 -0.7542 -0.6511
 1218TIP3   OH225144   6.811   4.999  13.853  0.0788  0.3506 -0.5670
 1218TIP3    H125145   6.879   5.060  13.879 -1.2917  0.7472  2.4409
 1218TIP3    H225146   6.732   5.052  13.847 -0.2456 -0.2752 -3.0548
 1219TIP3   OH225147   0.080   1.299   3.475 -0.0190  0.5155 -0.6243
 1219TIP3    H125148   0.168   1.282   3.443  0.3803  2.1552 -0.5217
 1219TIP3    H225149   0.088   1.298   3.570  0.0171  1.1883 -0.6154
 1220TIP3   OH225150   0.919   0.970  16.065 -0.6270 -0.5257  0.3139
 1220TIP3    H125151   1.008   0.949  16.038 -0.4440  0.7901 -0.1858
 1220TIP3    H225152   0.929   1.000  16.156 -0.7420 -1.4990  0.6615
 1221TIP3   OH225153   4.239   3.129  12.268  0.3031  0.2944 -0.5456
 1221TIP3    H125154   4.179   3.149  12.196  0.6510  0.3576 -0.8237
 1221TIP3    H225155   4.312   3.190  12.256 -0.1143  1.0077  0.4742
 1222TIP3   OH225156   4.283   2.073   3.569 -0.1232  0.0605 -0.5495
 1222TIP3    H125157   4.314   2.164   3.564  0.9843 -0.2743 -0.0555
 1222TIP3    H225158   4.215   2.076   3.636 -0.7698  0.6960 -1.2114
 1223TIP3   OH225159   5.818   2.021   4.340 -0.1896 -0.4647  0.0552
 1223TIP3    H125160   5.885   2.062   4.286 -0.1149 -0.3783  0.2130
 1223TIP3    H225161   5.853   1.935   4.362  0.3934  0.0333  1.1261
 1224TIP3   OH225162   0.242   4.643  17.098  0.0985  0.0426  0.2189
 1224TIP3    H125163   0.216   4.581  17.030 -0.9911 -0.9147  1.4617
 1224TIP3    H225164   0.337   4.632  17.105  0.4392  1.0401 -1.9445
 1225TIP3   OH225165   2.917   5.507   3.586 -0.6046  0.3705  0.2124
 1225TIP3    H125166   2.829   5.486   3.555  0.4893 -1.8590 -1.7011
 1225TIP3    H225167   2.953   5.424   3.617  0.3256  1.5401  2.4903
 1226TIP3   OH225168   1.917   3.711  13.522  0.0168 -0.1304  0.6779
 1226TIP3    H125169   1.966   3.718  13.604  1.3655  0.4408 -0.1610
 1226TIP3    H225170   1.916   3.617  13.503 -0.9275 -0.3495  1.6913
 1227TIP3   OH225171   6.767   6.677  14.313  0.1398 -0.3865  0.6672
 1227TIP3    H125172   6.729   6.711  14.394  0.4702  2.3850 -0.2435
 1227TIP3    H225173   6.692   6.665  14.255  0.0123 -1.3954  1.0202
 1228TIP3   OH225174   1.020   0.693  16.129 -0.3360 -0.1629 -0.0453
 1228TIP3    H125175   0.948   0.724  16.074 -1.4433  0.5085  1.6912
 1228TIP3    H225176   1.065   0.772  16.156  0.4367 -0.5144 -0.2747
 1229TIP3   OH225177   0.053   6.721   6.366  0.3340  0.0575  0.1867
 1229TIP3    H125178  -0.024   6.738   6.312 -0.4929 -2.9831  0.2186
 1229TIP3    H225179   0.127   6.751   6.313 -0.6344 -0.3279 -1.4536
 1230TIP3   OH225180   2.842   2.399   3.474 -0.7103 -0.4091 -0.3251
 1230TIP3    H125181   2.817   2.367   3.560 -2.4734 -1.3487 -1.1262
 1230TIP3    H225182   2.866   2.320   3.425  0.2231  0.1075 -0.7301
 1231TIP3   OH225183   4.596   1.577  13.264 -0.2039  0.1841 -0.2985
 1231TIP3    H125184   4.667   1.513  13.268 -2.6648 -3.0787 -2.6957
 1231TIP3    H225185   4.635   1.655  13.226  2.6941 -0.2542  1.4684
 1232TIP3   OH225186   1.067   0.553  13.244  0.5731 -0.0830 -0.3277
 1232TIP3    H125187   1.116   0.594  13.315  1.4839 -0.4640 -0.7239
 1232TIP3    H225188   1.014   0.485  13.287  1.2211 -0.4024 -0.0287
 1233TIP3   OH225189   2.561   6.028   2.644 -0.2988  0.6846  0.3644
 1233TIP3    H125190   2.484   6.033   2.587 -0.7985  3.0611  1.1138
 1233TIP3    H225191   2.525   6.011   2.731  0.1202  0.7077  0.5433
 1234TIP3   OH225192   0.515   6.076  11.492  0.0156 -0.2916 -0.0475
 1234TIP3    H125193   0.500   5.990  11.531 -0.3760  0.2231  0.9860
 1234TIP3    H225194   0.428   6.112  11.479  0.1735 -0.0919 -0.5924
 1235TIP3   OH225195   6.419   4.780   3.301 -0.2701  0.0914  0.1219
 1235TIP3    H125196   6.399   4.686   3.296  0.3962 -0.0816  0.6640
 1235TIP3    H225197   6.510   4.787   3.273 -0.3785  0.6129 -0.1232
 1236TIP3   OH225198   2.213   1.911   1.429  0.1473 -0.1911  0.1151
 1236TIP3    H125199   2.145   1.917   1.497 -0.7952 -0.2878 -0.8023
 1236TIP3    H225200   2.257   1.827   1.446 -0.9877 -0.8712 -0.2079
 1237TIP3   OH225201   4.138   3.234   3.289 -0.4111 -0.5322  0.4940
 1237TIP3    H125202   4.168   3.289   3.217 -0.3010  2.0622  2.4022
 1237TIP3    H225203   4.193   3.156   3.284 -0.0809 -0.2070 -1.8986
 1238TIP3   OH225204   6.141   5.545  12.557  0.6108  0.3545 -0.1278
 1238TIP3    H125205   6.176   5.588  12.479 -1.1488  0.1409 -1.0656
 1238TIP3    H225206   6.209   5.558  12.624  1.5364  1.7391 -1.2928
 1239TIP3   OH225207   4.448   5.760  13.910  0.4846 -0.8385  0.4143
 1239TIP3    H125208   4.397   5.679  13.914 -0.3704 -0.2993  0.5641
 1239TIP3    H225209   4.534   5.735  13.946 -0.6178 -1.0285  3.1776
 1240TIP3   OH225210   0.688   4.780  16.141 -0.3577 -0.2755 -0.1219
 1240TIP3    H125211   0.694   4.869  16.176 -0.5996 -0.2303 -0.1977
 1240TIP3    H225212   0.745   4.728  16.199 -0.7296 -0.1957  0.3283
 1241TIP3   OH225213   6.552   2.181   0.586 -0.2968 -0.2598 -0.2235
 1241TIP3    H125214   6.528   2.274   0.591  0.4400 -0.1137  0.8841
 1241TIP3    H225215   6.539   2.158   0.494 -0.0311  1.0675 -0.6169
 1242TIP3   OH225216   2.045   3.813   5.610  0.2851 -0.2267  0.1148
 1242TIP3    H125217   2.105   3.775   5.546  1.6387  1.8103  0.0728
 1242TIP3    H225218   1.977   3.747   5.622  0.2478 -0.8948 -3.0201
 1243TIP3   OH225219   3.881   5.074   3.320  0.1346 -0.2953  0.2206
 1243TIP3    H125220   3.927   4.992   3.299  1.4809  1.1515 -3.1623
 1243TIP3    H225221   3.890   5.127   3.241 -0.9280  3.0617  2.1791
 1244TIP3   OH225222   5.287   2.531  10.953 -0.2693  0.0028  0.4167
 1244TIP3    H125223   5.283   2.603  10.889  0.5079 -0.5367 -0.2542
 1244TIP3    H225224   5.212   2.476  10.930  0.7735 -0.9259 -0.9717
 1245TIP3   OH225225   1.274   2.012   6.143  0.1005 -0.1438 -0.6572
 1245TIP3    H125226   1.254   1.934   6.090  1.3090 -0.1595 -1.1369
 1245TIP3    H225227   1.358   1.992   6.183  0.2975  0.8078 -0.5733
 1246TIP3   OH225228   6.633   6.589   2.369  0.5801  0.2240  0.7106
 1246TIP3    H125229   6.637   6.529   2.444  0.9084  1.4002  1.6592
 1246TIP3    H225230   6.542   6.617   2.366 -0.0318 -1.7405 -0.9184
 1247TIP3   OH225231   2.658   4.371   3.982 -0.1434 -0.2111  0.3809
 1247TIP3    H125232   2.691   4.439   3.922 -0.0691 -1.4059 -0.9888
 1247TIP3    H225233   2.624   4.420   4.057  0.5040  1.3042 -0.2708
 1248TIP3   OH225234   2.539   1.853   6.106  0.3365 -0.6294  0.7171
 1248TIP3    H125235   2.482   1.779   6.124  0.5058 -0.5698  1.5288
 1248TIP3    H225236   2.564   1.886   6.192  0.1295  0.4763  0.3713
 1249TIP3   OH225237   3.837   2.000  11.248  0.8372 -0.8458 -0.7190
 1249TIP3    H125238   3.920   1.997  11.297 -0.0783  2.3279  1.2902
 1249TIP3    H225239   3.863   2.031  11.161  1.8237 -0.4992 -0.3232
 1250TIP3   OH225240   0.448   4.886  14.244  0.5266  1.0750  0.1279
 1250TIP3    H125241   0.421   4.974  14.268  0.5885  0.9726  0.5964
 1250TIP3    H225242   0.538   4.896  14.213  0.0360  1.3891 -1.2554
 1251TIP3   OH225243   1.628   2.260   2.324 -0.0790 -0.2211  0.6685
 1251TIP3    H125244   1.565   2.324   2.291 -1.3079 -0.5463  2.2491
 1251TIP3    H225245   1.599   2.176   2.287  0.3388 -0.1686  0.2055
 1252TIP3   OH225246   5.383   2.016   2.047  0.8077  0.4939 -0.0733
 1252TIP3    H125247   5.440   1.940   2.052 -1.6185 -1.5309 -0.8575
 1252TIP3    H225248   5.332   2.012   2.129  0.1814  0.8468 -0.4390
 1253TIP3   OH225249   5.455   4.830   4.523 -0.5397  0.3795  0.1445
 1253TIP3    H125250   5.425   4.814   4.612 -0.3530 -0.4100  0.0751
 1253TIP3    H225251   5.545   4.798   4.521 -0.8748 -0.5835 -0.5827
 1254TIP3   OH225252   2.480   6.740  12.385  0.7582  0.1409  0.0067
 1254TIP3    H125253   2.498   6.782  12.469 -0.3187  1.8419 -0.5672
 1254TIP3    H225254   2.396   6.775  12.357 -0.3965 -2.6724 -0.4236
 1255TIP3   OH225255   6.699   1.031  15.989  0.1024 -0.0019 -0.5400
 1255TIP3    H125256   6.694   0.995  16.078 -0.2457 -0.1546 -0.6188
 1255TIP3    H225257   6.763   0.975  15.944  1.6677  1.1927  0.1262
 1256TIP3   OH225258   5.937   4.824  14.030  0.7229  1.1806 -0.0632
 1256TIP3    H125259   6.007   4.761  14.010  1.7196  2.0658  0.5116
 1256TIP3    H225260   5.878   4.819  13.954  1.3537  0.3362 -0.5179
 1257TIP3   OH225261   1.391   0.053  13.136  0.0615  0.0582 -0.2281
 1257TIP3    H125262   1.372   0.045  13.230  0.4943  3.4777  0.2764
 1257TIP3    H225263   1.309   0.081  13.097  0.3182  0.3674 -0.5590
 1258TIP3   OH225264   4.945   3.261   1.133 -0.0175  0.3863  0.6594
 1258TIP3    H125265   5.023   3.214   1.103  0.1265  1.4502 -0.7618
 1258TIP3    H225266   4.901   3.200   1.192  1.0482 -0.8501  0.2244
 1259TIP3   OH225267   2.835   2.169   4.981 -0.0317 -0.0871 -0.0343
 1259TIP3    H125268   2.836   2.154   4.886  0.2607 -0.5171  0.0340
 1259TIP3    H225269   2.742   2.177   5.003 -0.1339 -0.6159 -0.2621
 1260TIP3   OH225270   2.041   0.711  11.549  0.2331  0.2582 -0.6468
 1260TIP3    H125271   1.976   0.775  11.577  0.7435  1.0163 -1.1475
 1260TIP3    H225272   2.055   0.730  11.456 -1.0315 -1.8399 -1.3504
 1261TIP3   OH225273   1.671   4.297  14.369 -0.1187 -1.2253  0.1757
 1261TIP3    H125274   1.607   4.296  14.440  0.7852 -0.7066  1.0172
 1261TIP3    H225275   1.709   4.209  14.371 -0.6984 -1.4948 -0.2467
 1262TIP3   OH225276   4.821   0.024  14.891  0.0217 -0.6902  0.1117
 1262TIP3    H125277   4.752  -0.041  14.903 -1.4909  0.4378 -1.8717
 1262TIP3    H225278   4.846   0.015  14.799  0.4469  0.8802  0.0477
 1263TIP3   OH225279   0.439   3.183  16.034 -0.2815 -0.0971 -0.2411
 1263TIP3    H125280   0.396   3.097  16.035  1.0432 -0.7912  0.4264
 1263TIP3    H225281   0.465   3.195  15.943  0.6206 -1.0076 -0.1283
 1264TIP3   OH225282   5.110   5.592  13.311 -0.1037  0.4859 -0.2280
 1264TIP3    H125283   5.068   5.660  13.259  0.9806 -0.1568 -2.0439
 1264TIP3    H225284   5.161   5.640  13.377 -1.5615  1.3134  0.3415
 1265TIP3   OH225285   1.408   3.306  15.457 -0.6597  0.2170  0.5390
 1265TIP3    H125286   1.445   3.329  15.371  0.3762 -1.1196  0.5905
 1265TIP3    H225287   1.316   3.330  15.451 -0.6389  0.0269 -1.0132
 1266TIP3   OH225288   3.306   3.054  15.208 -0.6860 -0.1791 -0.3516
 1266TIP3    H125289   3.229   3.080  15.157 -1.3176 -0.8906  0.2284
 1266TIP3    H225290   3.313   2.960  15.195 -0.1984 -0.1923 -0.0124
 1267TIP3   OH225291   4.848   0.305   4.474 -0.0223  0.2631 -0.3073
 1267TIP3    H125292   4.935   0.280   4.443  0.6445  1.9869  0.0113
 1267TIP3    H225293   4.840   0.264   4.560 -0.5622 -1.8933 -1.3174
 1268TIP3   OH225294   0.157   3.953  11.303 -0.7299  0.4100 -0.3775
 1268TIP3    H125295   0.081   3.987  11.350 -0.6466  0.8238 -0.5389
 1268TIP3    H225296   0.228   4.014  11.324 -0.0322 -0.8365  1.0481
 1269TIP3   OH225297   0.409   5.404   1.383  0.1495 -0.2201  0.1367
 1269TIP3    H125298   0.358   5.462   1.438  0.2365 -1.5459  1.6832
 1269TIP3    H225299   0.487   5.384   1.434  1.4803  0.5024 -1.5238
 1270TIP3   OH225300   3.187   4.376   1.250 -0.0052 -0.5571 -0.2343
 1270TIP3    H125301   3.205   4.387   1.157  0.2949  0.9096 -0.0194
 1270TIP3    H225302   3.208   4.460   1.289  0.7828 -1.4231  1.3218
 1271TIP3   OH225303   3.271   1.705  15.241  0.0970 -0.0165  0.2506
 1271TIP3    H125304   3.208   1.775  15.258  0.2149  0.2184 -0.2637
 1271TIP3    H225305   3.342   1.722  15.303  1.1973  1.6833 -1.3684
 1272TIP3   OH225306   0.197   6.483  16.683 -0.2148 -0.0067 -0.1495
 1272TIP3    H125307   0.192   6.574  16.655  0.1163  0.2574  0.6143
 1272TIP3    H225308   0.195   6.433  16.602  2.5950  0.7896 -0.8345
 1273TIP3   OH225309   6.309   1.842   0.059 -0.2195 -0.2345  0.2796
 1273TIP3    H125310   6.278   1.810  -0.026  2.0469  0.4739 -0.9004
 1273TIP3    H225311   6.268   1.783   0.123  0.9793 -3.2950 -1.5340
 1274TIP3   OH225312   1.639   1.791   2.151 -0.0309 -0.2497 -0.5342
 1274TIP3    H125313   1.692   1.725   2.106  1.9970  0.5205  0.5827
 1274TIP3    H225314   1.673   1.793   2.240 -1.2160  1.0736 -0.0734
 1275TIP3   OH225315   2.650   4.282  11.553 -0.4172  0.0827 -0.4691
 1275TIP3    H125316   2.645   4.272  11.458  1.3942  0.7819 -0.6739
 1275TIP3    H225317   2.647   4.192  11.587 -0.2375 -0.2228 -1.2471
 1276TIP3   OH225318   4.698   4.275  15.506  0.1637  0.1200 -0.1630
 1276TIP3    H125319   4.730   4.227  15.583  0.7722  0.0226 -0.4689
 1276TIP3    H225320   4.760   4.253  15.437 -0.2956  0.3300 -0.6433
 1277TIP3   OH225321   1.095   0.058  11.207  0.7826  0.4399 -1.0374
 1277TIP3    H125322   1.020   0.090  11.157 -0.1156 -1.0176 -0.6914
 1277TIP3    H225323   1.142   0.137  11.234 -0.8614  1.4242 -0.9170
 1278TIP3   OH225324   6.384   2.648  16.449  0.2367 -0.2305  0.3381
 1278TIP3    H125325   6.445   2.685  16.386  1.7760  0.3319  2.0746
 1278TIP3    H225326   6.435   2.583  16.497 -0.6735 -0.1458  1.4653
 1279TIP3   OH225327   5.194   6.683   4.883  0.4598  0.0649  0.0562
 1279TIP3    H125328   5.199   6.736   4.962  0.4320 -1.1859  0.9309
 1279TIP3    H225329   5.272   6.626   4.887  0.4069 -0.0831 -0.7611
 1280TIP3   OH225330   5.711   6.227  13.787  0.2079  0.3644 -0.0688
 1280TIP3    H125331   5.621   6.197  13.774  0.3363  0.4729 -1.3519
 1280TIP3    H225332   5.735   6.268  13.704  1.1679  1.0781  0.5345
 1281TIP3   OH225333   3.969   1.188  16.829 -0.3210 -0.4229  0.2293
 1281TIP3    H125334   3.940   1.270  16.869 -0.7987 -0.6836  0.4281
 1281TIP3    H225335   4.063   1.184  16.847 -0.0660  0.5935 -0.6995
 1282TIP3   OH225336   3.355   6.550   2.707  0.4563  0.4956 -0.3074
 1282TIP3    H125337   3.304   6.526   2.630  1.4506 -2.6175 -0.1550
 1282TIP3    H225338   3.436   6.588   2.672 -0.4555  2.2477 -0.6260
 1283TIP3   OH225339   3.768   5.329   4.067 -0.2935  0.1594  0.0618
 1283TIP3    H125340   3.821   5.279   4.004  1.9564  0.2143  1.7946
 1283TIP3    H225341   3.803   5.304   4.152  0.5460  4.1645  1.0840
 1284TIP3   OH225342   2.375   6.511  12.895  0.0414  0.4487 -0.1667
 1284TIP3    H125343   2.467   6.519  12.918 -0.0739  1.4634 -0.0327
 1284TIP3    H225344   2.334   6.592  12.927 -1.0280 -0.2721  0.3925
 1285TIP3   OH225345   5.987   4.522  16.363  0.4719  0.2366 -0.2897
 1285TIP3    H125346   6.034   4.501  16.282 -0.0599 -0.4397 -0.4344
 1285TIP3    H225347   6.034   4.474  16.431  0.1569 -0.2327 -0.3966
 1286TIP3   OH225348   5.450   4.074   0.086  0.6215 -0.9513  0.1003
 1286TIP3    H125349   5.498   4.154   0.064 -1.1576 -0.2304 -1.4317
 1286TIP3    H225350   5.495   4.005   0.038  1.9707 -0.8691  1.1704
 1287TIP3   OH225351   3.111   5.718   5.838  0.2707 -0.2153 -0.0672
 1287TIP3    H125352   3.169   5.696   5.765  0.4383  0.9293 -0.3064
 1287TIP3    H225353   3.118   5.644   5.898  0.7280 -0.8213 -0.8525
 1288TIP3   OH225354   3.158   5.533   6.035  0.1418 -0.0050  0.0694
 1288TIP3    H125355   3.251   5.529   6.055  0.0164 -1.9694  0.4065
 1288TIP3    H225356   3.121   5.453   6.072 -1.4175 -0.0474 -1.4339
 1289TIP3   OH225357   6.777   6.491   3.421 -0.4634 -0.4958 -0.2547
 1289TIP3    H125358   6.692   6.509   3.381  0.2751 -0.1325 -1.7366
 1289TIP3    H225359   6.788   6.560   3.487 -0.2568  1.0093 -1.7876
 1290TIP3   OH225360   0.119   0.396  11.917  0.5171  0.0126 -0.2821
 1290TIP3    H125361   0.142   0.486  11.891 -0.3665  0.1873 -0.4669
 1290TIP3    H225362   0.169   0.341  11.857  2.2493  0.3395  0.7876
 1291TIP3   OH225363   5.744   6.738   2.537 -0.0554 -0.3304 -0.0395
 1291TIP3    H125364   5.839   6.745   2.535 -0.0624  0.0104 -2.5141
 1291TIP3    H225365   5.714   6.787   2.460 -2.2282 -0.4732  0.6314
 1292TIP3   OH225366   1.843   2.956   5.533 -0.4773 -0.2619  0.4287
 1292TIP3    H125367   1.788   3.019   5.581 -2.0574 -1.7062  0.6365
 1292TIP3    H225368   1.932   2.986   5.548 -0.9726  0.0627  3.2742
 1293TIP3   OH225369   4.325   6.156  10.944 -0.1535  0.5940 -0.1425
 1293TIP3    H125370   4.231   6.159  10.926 -0.3806 -1.5911  0.3639
 1293TIP3    H225371   4.356   6.080  10.895  1.6971  2.1756 -1.5590
 1294TIP3   OH225372   0.702   6.264  12.053  0.1228 -0.3455  0.2493
 1294TIP3    H125373   0.720   6.335  11.990  0.6973 -0.7798 -0.0950
 1294TIP3    H225374   0.608   6.248  12.045  0.2856 -0.8191 -0.9817
 1295TIP3   OH225375   3.030   2.666   1.067  0.1015  0.3448 -0.1982
 1295TIP3    H125376   3.103   2.651   1.126 -1.1680  0.8402  1.6198
 1295TIP3    H225377   3.037   2.759   1.043 -0.3728  0.6249  0.6827
 1296TIP3   OH225378   1.570   5.157   4.501  0.1979  0.1735 -0.4171
 1296TIP3    H125379   1.540   5.182   4.588  0.0630  1.5265 -0.8247
 1296TIP3    H225380   1.661   5.130   4.514 -0.2338 -0.9546  0.3399
 1297TIP3   OH225381   1.768   5.449   6.457 -0.0874 -0.1913  0.4204
 1297TIP3    H125382   1.825   5.382   6.495  1.5232 -0.0621 -1.5689
 1297TIP3    H225383   1.689   5.402   6.432 -0.3991 -0.6312  2.1088
 1298TIP3   OH225384   3.538   2.454  14.980  0.0340 -0.5713  0.5302
 1298TIP3    H125385   3.481   2.413  15.045 -0.2966 -2.2849 -0.7701
 1298TIP3    H225386   3.478   2.494  14.917  0.0559 -3.4432 -1.5312
 1299TIP3   OH225387   3.462   3.348   2.945  0.1550  0.1466 -0.2980
 1299TIP3    H125388   3.472   3.434   2.985 -1.7608  1.1820 -1.8658
 1299TIP3    H225389   3.426   3.294   3.015 -0.7568  1.2343  0.1075
 1300TIP3   OH225390   4.086   6.369   2.801 -0.0024 -0.0926  0.2359
 1300TIP3    H125391   4.075   6.463   2.788  1.0026  0.2482  1.5937
 1300TIP3    H225392   4.027   6.348   2.873  0.1442 -0.4018  0.2649
 1301TIP3   OH225393   1.908   0.213   1.929 -0.3430 -0.4334  0.0177
 1301TIP3    H125394   1.820   0.176   1.935 -0.7721  0.5856  0.3104
 1301TIP3    H225395   1.893   0.307   1.913  0.6560  0.0608  1.7690
 1302TIP3   OH225396   1.346   5.287   2.675  0.1829 -0.3982  0.8311
 1302TIP3    H125397   1.398   5.336   2.740 -0.5742 -0.0273  1.1646
 1302TIP3    H225398   1.255   5.305   2.698 -0.1118  0.4252 -0.8435
 1303TIP3   OH225399   0.899   5.982  16.993 -0.1122 -0.8231 -0.2661
 1303TIP3    H125400   0.840   6.055  16.973  1.5533  0.1212 -2.0793
 1303TIP3    H225401   0.922   5.945  16.907  0.9931 -1.9110  0.4606
 1304TIP3   OH225402   1.625   0.474   5.695  0.2256  0.2097 -0.1783
 1304TIP3    H125403   1.634   0.494   5.602  3.5208 -0.3581 -0.0989
 1304TIP3    H225404   1.627   0.379   5.700  1.5095  0.2538  0.5416
 1305TIP3   OH225405   3.801   1.756  16.557  0.2118  0.1548  0.0459
 1305TIP3    H125406   3.859   1.683  16.540  1.8225  1.3520  0.1655
 1305TIP3    H225407   3.859   1.828  16.584 -1.3731  1.2130  0.8413
 1306TIP3   OH225408   5.707   1.342   5.823  0.0226 -0.0959 -0.5212
 1306TIP3    H125409   5.658   1.417   5.855  1.0854  0.8123 -0.9649
 1306TIP3    H225410   5.722   1.288   5.901 -1.9146 -0.5887 -0.4146
 1307TIP3   OH225411   5.194   1.392   1.707  0.4819  0.4950  0.0786
 1307TIP3    H125412   5.120   1.332   1.709  0.8074  0.0980  0.5132
 1307TIP3    H225413   5.182   1.442   1.627 -0.0197  0.1334 -0.0795
 1308TIP3   OH225414   3.130   3.985   5.759 -0.0189  0.1334  0.5475
 1308TIP3    H125415   3.101   4.065   5.715  1.1799  0.1515 -0.2352
 1308TIP3    H225416   3.106   3.914   5.699  1.0097  0.1051  0.1569
 1309TIP3   OH225417   4.888   4.108   2.940  0.6603 -0.5084  0.2144
 1309TIP3    H125418   4.961   4.168   2.930  0.3453  0.1043  1.3811
 1309TIP3    H225419   4.924   4.032   2.986  0.3192  0.3655  2.0025
 1310TIP3   OH225420   3.028   1.511  11.687 -0.4501  0.1504 -0.0389
 1310TIP3    H125421   2.947   1.502  11.636  0.1877  0.9796 -1.2044
 1310TIP3    H225422   3.033   1.604  11.709 -0.6856 -0.1766  1.5234
 1311TIP3   OH225423   5.747   2.123  14.798 -0.4139  0.1379  0.0572
 1311TIP3    H125424   5.685   2.127  14.725  2.0411 -0.6597 -2.2301
 1311TIP3    H225425   5.768   2.030  14.806  1.5819  0.5138 -0.2917
 1312TIP3   OH225426   5.960   0.812   6.212 -0.4345  0.7073 -0.2065
 1312TIP3    H125427   5.932   0.842   6.299 -1.0887  1.2503 -0.5928
 1312TIP3    H225428   6.051   0.840   6.205 -0.8053  1.9414 -0.2467
 1313TIP3   OH225429   6.731   5.872   0.406  0.0182  0.1961 -0.2221
 1313TIP3    H125430   6.672   5.944   0.383 -0.9184 -0.7354 -0.8192
 1313TIP3    H225431   6.684   5.793   0.380  0.6526 -0.6995  1.2349
 1314TIP3   OH225432   2.493   4.405   5.718  0.3632 -0.9223 -0.2786
 1314TIP3    H125433   2.519   4.474   5.658  0.0481 -0.7831 -0.2542
 1314TIP3    H225434   2.454   4.338   5.662 -1.1306 -0.2331 -0.1123
 1315TIP3   OH225435   6.347   5.046  12.508 -0.2545 -0.1884  0.1254
 1315TIP3    H125436   6.416   5.053  12.573  1.3151 -1.5957 -1.2968
 1315TIP3    H225437   6.349   4.954  12.481  1.7451  0.9380 -4.5041
 1316TIP3   OH225438   4.125   0.606  16.986 -0.4283 -0.3375  0.2651
 1316TIP3    H125439   4.144   0.585  16.895  0.4277  0.2528  0.2970
 1316TIP3    H225440   4.190   0.557  17.036 -0.0225  0.3975  0.4752
 1317TIP3   OH225441   1.322   6.180   2.370  0.3422 -0.0553 -0.2356
 1317TIP3    H125442   1.318   6.128   2.290  0.6268 -2.0647  0.9905
 1317TIP3    H225443   1.296   6.268   2.343 -2.3036 -1.2465 -2.0246
 1318TIP3   OH225444   1.730   0.155   0.449  0.0174  0.1620  0.4311
 1318TIP3    H125445   1.639   0.184   0.445  0.5994  2.0159 -1.5748
 1318TIP3    H225446   1.731   0.086   0.515 -3.2484 -1.4410 -1.0105
 1319TIP3   OH225447   1.769   2.997  14.574  0.2686 -0.2896 -0.5845
 1319TIP3    H125448   1.712   2.967  14.644  1.8387 -0.9974  0.4536
 1319TIP3    H225449   1.784   3.089  14.593  1.1448 -0.6135  0.3718
 1320TIP3   OH225450   0.227   4.636   0.723 -0.0292 -0.1328 -0.3714
 1320TIP3    H125451   0.184   4.555   0.696  1.6685 -0.9987 -0.6394
 1320TIP3    H225452   0.170   4.672   0.791 -0.1700 -2.2621  0.7441
 1321TIP3   OH225453   3.131   4.144   0.660 -0.0829 -0.6580 -0.0492
 1321TIP3    H125454   3.220   4.151   0.694  0.5977 -0.3469 -1.7710
 1321TIP3    H225455   3.080   4.108   0.732  0.6759  2.3544  2.1850
 1322TIP3   OH225456   1.238   3.504  13.066 -0.2023  0.2857 -0.5383
 1322TIP3    H125457   1.155   3.458  13.050 -1.3140  1.8749  0.2593
 1322TIP3    H225458   1.235   3.579  13.006  0.6061  0.4126 -0.4232
 1323TIP3   OH225459   1.968   5.176   6.030 -0.2570 -0.2756 -0.9402
 1323TIP3    H125460   1.993   5.148   5.943 -0.0679 -1.9178 -0.3956
 1323TIP3    H225461   2.051   5.183   6.078 -0.4512 -0.9886 -0.4715
 1324TIP3   OH225462   3.389   1.743   4.484  0.0450 -0.1950 -0.0161
 1324TIP3    H125463   3.295   1.762   4.496  0.4628  1.1093  1.5138
 1324TIP3    H225464   3.433   1.803   4.544  2.0481  1.4622 -2.9148
 1325TIP3   OH225465   1.647   1.708  14.079 -0.3447  0.2315 -0.5249
 1325TIP3    H125466   1.584   1.686  14.010  1.5398 -0.5182 -2.0674
 1325TIP3    H225467   1.699   1.629  14.091 -0.2856  0.5183  1.4305
 1326TIP3   OH225468   0.745   3.811  13.454  0.2772 -0.0230 -0.6237
 1326TIP3    H125469   0.795   3.797  13.374  1.2565  0.5348 -0.1346
 1326TIP3    H225470   0.768   3.900  13.481 -0.0169 -0.2122  0.2922
 1327TIP3   OH225471   2.186   3.716  16.690  0.2731  0.0537  0.8073
 1327TIP3    H125472   2.271   3.761  16.700  0.7344 -0.9484  1.6508
 1327TIP3    H225473   2.192   3.672  16.605  0.2903  0.6122  0.5157
 1328TIP3   OH225474   2.438   6.417  14.266  0.1116 -0.2014 -0.2179
 1328TIP3    H125475   2.345   6.431  14.285  0.6818  2.2496  1.0633
 1328TIP3    H225476   2.457   6.478  14.195  1.0373  0.3475  0.4858
 1329TIP3   OH225477   2.190   3.496   2.803  0.1672  0.1382  0.2435
 1329TIP3    H125478   2.251   3.558   2.764  1.1296 -1.6240 -1.2088
 1329TIP3    H225479   2.214   3.411   2.765  0.9835 -1.7502  4.3442
 1330TIP3   OH225480   0.882   0.250   4.207 -0.3078  0.4390  0.5863
 1330TIP3    H125481   0.904   0.199   4.128  1.6353  0.6245  0.9612
 1330TIP3    H225482   0.946   0.222   4.272 -1.4058  0.8542  1.8791
 1331TIP3   OH225483   5.695   6.438   4.168  0.2249  0.1267 -0.2403
 1331TIP3    H125484   5.689   6.347   4.194 -0.1067  0.4044  0.6867
 1331TIP3    H225485   5.656   6.487   4.240  0.2267  0.9921 -0.8040
 1332TIP3   OH225486   6.075   4.913  15.565 -0.0059  0.6992  0.0618
 1332TIP3    H125487   6.170   4.928  15.573  0.0880  0.0791  0.1660
 1332TIP3    H225488   6.036   4.981  15.620  0.4098  0.5435  0.5711
 1333TIP3   OH225489   3.305   3.924   1.142  0.4206  0.0828  0.2453
 1333TIP3    H125490   3.374   3.953   1.202  2.3662 -1.4527 -1.0994
 1333TIP3    H225491   3.337   3.840   1.108 -0.6464  0.7507 -2.7407
 1334TIP3   OH225492   4.844   5.592   4.996 -0.2484 -0.0483 -0.1495
 1334TIP3    H125493   4.910   5.532   4.962 -1.3026 -0.6241 -1.2871
 1334TIP3    H225494   4.885   5.678   4.995  0.7895 -0.5347  0.0650
 1335TIP3   OH225495   6.722   3.991   5.875 -0.3842  0.2350 -0.5811
 1335TIP3    H125496   6.692   4.066   5.824  0.2675  0.6677 -0.3309
 1335TIP3    H225497   6.645   3.934   5.881 -0.7953  0.7347 -1.0309
 1336TIP3   OH225498   4.476   3.140  10.634 -0.2544 -0.1250 -0.5151
 1336TIP3    H125499   4.514   3.192  10.563 -0.1358 -0.0986 -0.4330
 1336TIP3    H225500   4.467   3.052  10.597 -0.5065 -0.0340 -0.6733
 1337TIP3   OH225501   1.499   3.444  14.229  0.2855 -0.4145 -0.2143
 1337TIP3    H125502   1.431   3.380  14.250 -1.1500  1.0036 -0.3731
 1337TIP3    H225503   1.496   3.453  14.134  2.1261 -1.8169 -0.4590
 1338TIP3   OH225504   6.128   0.686  16.025  0.0317  0.5978  0.1177
 1338TIP3    H125505   6.080   0.722  15.951 -0.6711 -0.6642 -0.0593
 1338TIP3    H225506   6.186   0.619  15.987 -0.1175  0.1523  0.6586
 1339TIP3   OH225507   1.560   5.603  16.115  0.0679 -0.4781  0.5344
 1339TIP3    H125508   1.568   5.554  16.033 -2.4916 -1.6705  0.8802
 1339TIP3    H225509   1.469   5.588  16.142 -0.2988  2.9572  1.6717
 1340TIP3   OH225510   5.245   5.349  13.157  0.4807  0.2976  0.3535
 1340TIP3    H125511   5.312   5.393  13.104  1.0521 -0.3434  0.5328
 1340TIP3    H225512   5.174   5.413  13.163 -0.3857 -0.1886 -2.6624
 1341TIP3   OH225513   3.983   1.730   0.471 -0.0827  0.1141 -0.1518
 1341TIP3    H125514   4.020   1.705   0.386  2.5140 -0.8304  1.1263
 1341TIP3    H225515   3.896   1.691   0.472  1.0112 -2.6418 -1.1882
 1342TIP3   OH225516   5.300   3.761   3.308  0.0839 -0.1664  0.1920
 1342TIP3    H125517   5.361   3.738   3.378 -0.4058 -2.3288 -0.0230
 1342TIP3    H225518   5.314   3.695   3.240 -1.9091 -0.2296 -0.2213
 1343TIP3   OH225519   4.038   1.255  10.453  0.2356 -0.0201  0.0024
 1343TIP3    H125520   3.975   1.214  10.393  0.6167  1.2261 -1.3067
 1343TIP3    H225521   4.107   1.189  10.464  1.0068  0.2846 -2.3221
 1344TIP3   OH225522   2.217   0.667   5.748  0.1345 -0.4680 -0.4562
 1344TIP3    H125523   2.312   0.669   5.740  0.0555  1.3939 -1.5795
 1344TIP3    H225524   2.200   0.675   5.842  1.0733 -0.0999 -0.3109
 1345TIP3   OH225525   4.938   2.668   0.315  0.1207 -0.2511  0.6791
 1345TIP3    H125526   4.869   2.644   0.253 -1.0292  1.1854  1.3613
 1345TIP3    H225527   5.009   2.701   0.261 -0.3707 -0.2007  0.0567
 1346TIP3   OH225528   5.167   3.980  14.675 -0.0816  0.1281 -0.4226
 1346TIP3    H125529   5.258   4.010  14.683 -0.7001  1.6535  2.4598
 1346TIP3    H225530   5.124   4.049  14.624  0.1714 -0.1107 -0.9651
 1347TIP3   OH225531   4.246   0.812  13.361  0.3026  0.7046  0.1361
 1347TIP3    H125532   4.282   0.725  13.347  0.2511  0.6311  0.4491
 1347TIP3    H225533   4.184   0.801  13.433  0.0884  0.9456 -0.0105
 1348TIP3   OH225534   2.082   6.674  12.097 -0.7176 -0.1740  0.1024
 1348TIP3    H125535   2.151   6.689  12.162  0.5874  0.9968 -1.4781
 1348TIP3    H225536   2.094   6.583  12.069  0.1562  0.0035 -0.1167
 1349TIP3   OH225537   2.649   4.371  16.405 -0.5577  0.3872 -0.0538
 1349TIP3    H125538   2.700   4.295  16.378  0.5029  1.6803 -1.9007
 1349TIP3    H225539   2.666   4.437  16.338 -0.8065  2.5567  1.8849
 1350TIP3   OH225540   0.109   4.209   5.697  0.3212  0.2809  0.2288
 1350TIP3    H125541   0.158   4.289   5.679 -0.7167  1.6031  2.7695
 1350TIP3    H225542   0.021   4.225   5.663  0.0669  0.3034  0.8767
 1351TIP3   OH225543   4.409   6.721  12.698  0.1221  0.2762  0.1703
 1351TIP3    H125544   4.401   6.627  12.684 -0.0505  0.2408  0.5042
 1351TIP3    H225545   4.321   6.750  12.721  0.0084  0.6516 -0.6773
 1352TIP3   OH225546   1.133   2.354  13.949  0.4025 -0.0661 -0.5082
 1352TIP3    H125547   1.044   2.338  13.981  0.6470 -0.3491  0.0453
 1352TIP3    H225548   1.152   2.444  13.974 -0.2653  0.5015 -1.9316
 1353TIP3   OH225549   2.420   4.548   5.957 -0.5701 -0.3781  0.5848
 1353TIP3    H125550   2.475   4.558   6.035 -1.0029  0.5052  0.7964
 1353TIP3    H225551   2.438   4.459   5.926 -0.0061 -0.5622  1.3958
 1354TIP3   OH225552   4.140   5.166  15.512 -0.3799  0.5815 -0.0030
 1354TIP3    H125553   4.076   5.232  15.487  1.4907  2.3203 -0.4563
 1354TIP3    H225554   4.223   5.213  15.518  1.4004 -2.0119 -1.9556
 1355TIP3   OH225555   1.902   6.712  16.954 -0.3047 -0.3434  0.1691
 1355TIP3    H125556   1.914   6.759  17.037  1.4760  0.9976 -0.7848
 1355TIP3    H225557   1.902   6.620  16.979  1.0394 -0.0014  1.5795
 1356TIP3   OH225558   2.000   3.160  14.817  0.1732 -0.5749 -0.5718
 1356TIP3    H125559   2.012   3.247  14.854  1.6268 -0.6339 -0.8641
 1356TIP3    H225560   2.043   3.101  14.879 -1.0426 -1.1339 -0.2292
 1357TIP3   OH225561   3.987   4.379   0.628 -0.2132 -0.3822 -0.2948
 1357TIP3    H125562   4.013   4.287   0.621 -0.0389 -0.6990  2.8462
 1357TIP3    H225563   3.913   4.378   0.689 -0.2860  1.5448 -0.2832
 1358TIP3   OH225564   4.850   3.787   3.961  0.2714 -0.2819  0.3081
 1358TIP3    H125565   4.902   3.779   4.041 -1.1201 -1.2047  1.1820
 1358TIP3    H225566   4.827   3.697   3.939 -2.5805  0.1290  1.1519
 1359TIP3   OH225567   1.775   0.378  16.837 -0.4335 -0.1896  0.3622
 1359TIP3    H125568   1.859   0.419  16.858 -0.1881  0.5012 -1.6984
 1359TIP3    H225569   1.764   0.393  16.743 -3.4745  0.8280  0.7745
 1360TIP3   OH225570   3.891   1.004   3.542 -0.5461  0.2209  0.3221
 1360TIP3    H125571   3.863   1.089   3.577  1.4506  1.1738 -0.2361
 1360TIP3    H225572   3.834   0.989   3.467  1.3007  2.9325 -1.8536
 1361TIP3   OH225573   4.166   0.704   4.159  0.1107 -0.0671  0.0544
 1361TIP3    H125574   4.243   0.753   4.187 -0.3749  0.1008  1.1527
 1361TIP3    H225575   4.196   0.614   4.153  0.1000 -0.2363  1.8361
 1362TIP3   OH225576   6.599   0.093  10.928  0.3342  0.2244  0.4342
 1362TIP3    H125577   6.593  -0.002  10.921  1.6818  0.0903  0.7824
 1362TIP3    H225578   6.521   0.119  10.976  0.0468 -0.7269  0.4976
 1363TIP3   OH225579   2.234   3.219   4.435  0.8538  0.0883  0.1848
 1363TIP3    H125580   2.196   3.259   4.514 -0.3554  1.3466 -0.9945
 1363TIP3    H225581   2.159   3.194   4.382  1.6520 -0.7391 -0.5968
 1364TIP3   OH225582   4.954   1.127   2.358  0.8910  0.0250  0.4374
 1364TIP3    H125583   5.035   1.077   2.345  0.6024 -0.8007  1.6616
 1364TIP3    H225584   4.899   1.102   2.283  1.1185 -0.7459  0.5111
 1365TIP3   OH225585   3.168   0.764   4.166  0.0021  0.0662  0.1871
 1365TIP3    H125586   3.209   0.704   4.104 -0.5674 -0.4230  0.2831
 1365TIP3    H225587   3.076   0.739   4.168 -0.5475  1.8367 -0.8067
 1366TIP3   OH225588   4.667   1.185  13.510 -0.4284  0.2733  0.0268
 1366TIP3    H125589   4.615   1.191  13.589 -1.2621 -0.8934 -0.4033
 1366TIP3    H225590   4.632   1.253  13.452 -0.4211  0.5232  0.3167
 1367TIP3   OH225591   1.881   6.795   5.321  0.3190  0.1165 -0.3774
 1367TIP3    H125592   1.854   6.885   5.338 -0.3290  0.1290 -1.3605
 1367TIP3    H225593   1.947   6.776   5.387 -1.2917  0.4890  1.4485
 1368TIP3   OH225594   3.114   3.110   1.995  0.4897 -0.4433  0.6939
 1368TIP3    H125595   3.116   3.172   2.067  1.9179  1.6550 -1.0107
 1368TIP3    H225596   3.094   3.164   1.918 -1.3355 -2.6321 -0.4808
 1369TIP3   OH225597   3.036   1.417   2.736 -0.1013 -0.1079  0.2724
 1369TIP3    H125598   3.022   1.428   2.830  1.0500  1.2658  0.3161
 1369TIP3    H225599   3.090   1.492   2.711 -1.7617  0.4820 -1.8144
 1370TIP3   OH225600   6.557   5.646   0.386 -0.0957 -0.0277 -0.0602
 1370TIP3    H125601   6.468   5.637   0.352  0.7118  2.5293 -3.4062
 1370TIP3    H225602   6.596   5.559   0.375 -1.9299 -1.0095  0.8502
 1371TIP3   OH225603   6.564   3.160   6.087 -0.6591 -0.2339  0.5314
 1371TIP3    H125604   6.627   3.204   6.144  1.3306 -2.2203 -0.0179
 1371TIP3    H225605   6.550   3.074   6.127 -0.5201 -1.0261 -1.0490
 1372TIP3   OH225606   1.860   6.129  11.325 -0.3128 -0.0159  0.2362
 1372TIP3    H125607   1.924   6.111  11.394 -1.5023 -0.1464  1.3297
 1372TIP3    H225608   1.912   6.167  11.254  0.7118  1.8108  1.8693
 1373TIP3   OH225609   6.079   0.033   2.785  0.4457  0.3857  0.1993
 1373TIP3    H125610   5.984   0.039   2.783  0.4676  0.8159 -1.8340
 1373TIP3    H225611   6.100   0.012   2.876 -1.5906  0.0153  0.6307
 1374TIP3   OH225612   4.813   2.337  15.351 -0.4417 -0.6240  0.2203
 1374TIP3    H125613   4.805   2.391  15.429 -1.6579 -1.3310  0.6204
 1374TIP3    H225614   4.896   2.291  15.362 -1.3374 -1.9635  1.9519
 1375TIP3   OH225615   4.614   4.550  15.820  0.5613 -0.3953 -0.2183
 1375TIP3    H125616   4.549   4.484  15.841 -0.6020  0.8273  0.1666
 1375TIP3    H225617   4.647   4.525  15.734 -1.9394  0.0762 -1.3798
 1376TIP3   OH225618   4.306   3.804   4.435 -0.3837 -0.4840  0.2921
 1376TIP3    H125619   4.267   3.847   4.359  1.1380 -1.0418 -0.8501
 1376TIP3    H225620   4.236   3.805   4.501 -1.8761 -0.3174 -1.2076
 1377TIP3   OH225621   6.565   2.746  17.086 -0.3662 -0.0143  0.5009
 1377TIP3    H125622   6.574   2.651  17.089 -0.0942  0.0220  0.8469
 1377TIP3    H225623   6.630   2.779  17.148 -1.0706  0.3621  1.0596
 1378TIP3   OH225624   5.349   4.797   4.756 -0.7301  0.2493 -0.0211
 1378TIP3    H125625   5.339   4.711   4.797  1.0053  0.8463  1.8226
 1378TIP3    H225626   5.290   4.853   4.806 -1.0869  0.3530 -0.5500
 1379TIP3   OH225627   3.283   0.387  16.298 -0.7355  0.2274 -0.2518
 1379TIP3    H125628   3.332   0.454  16.249 -0.6263  1.1166  1.0263
 1379TIP3    H225629   3.329   0.306  16.278  1.2241  1.0157  0.7832
 1380TIP3   OH225630   5.866   3.539   2.945  0.3417 -0.0434 -0.1298
 1380TIP3    H125631   5.805   3.468   2.965  0.3604 -0.3954 -1.2486
 1380TIP3    H225632   5.886   3.528   2.852  0.9052  1.0021 -0.1492
 1381TIP3   OH225633   1.048   3.182   3.936  0.0263  0.2130 -0.5326
 1381TIP3    H125634   0.967   3.226   3.964 -0.5121  1.3501 -3.4960
 1381TIP3    H225635   1.116   3.217   3.993 -1.0761  1.7406 -0.0981
 1382TIP3   OH225636   2.718   6.414   0.769  0.3893 -0.2826  0.2427
 1382TIP3    H125637   2.687   6.333   0.728 -1.2047  0.6298 -0.4968
 1382TIP3    H225638   2.659   6.482   0.733  1.9322  1.2570  0.5060
 1383TIP3   OH225639   4.559   2.427  11.659  0.3164  0.0512  0.5887
 1383TIP3    H125640   4.525   2.375  11.586  0.3865  0.5968  0.1560
 1383TIP3    H225641   4.481   2.469  11.696  0.4255  0.8444 -0.0389
 1384TIP3   OH225642   2.495   3.245   2.630 -0.3086  0.9460 -0.2050
 1384TIP3    H125643   2.479   3.291   2.548 -0.9824  1.2341  0.0816
 1384TIP3    H225644   2.535   3.311   2.688 -1.5106  1.2612  0.2901
 1385TIP3   OH225645   2.085   0.528  13.362  0.0188  0.8414  0.0430
 1385TIP3    H125646   2.058   0.608  13.406  0.4133  0.6633  0.6300
 1385TIP3    H225647   2.181   0.532  13.362  0.0268  0.9110 -0.9516
 1386TIP3   OH225648   1.382   2.966  16.792 -0.4562  0.2375 -0.1493
 1386TIP3    H125649   1.394   3.029  16.863 -0.6783  1.9428 -1.5532
 1386TIP3    H225650   1.436   3.000  16.721  0.6458 -2.0388 -0.4764
 1387TIP3   OH225651   5.485   3.138  14.750  0.0910 -0.6125 -0.0710
 1387TIP3    H125652   5.492   3.051  14.791 -1.6732 -0.9195 -0.3568
 1387TIP3    H225653   5.393   3.146  14.725  0.2824  1.2406 -0.3238
 1388TIP3   OH225654   4.521   4.296   4.788  0.0964 -0.0460  0.1298
 1388TIP3    H125655   4.477   4.337   4.713  0.8702  1.8166  0.6330
 1388TIP3    H225656   4.508   4.202   4.775 -3.5813  0.3084 -0.0068
 1389TIP3   OH225657   6.111   2.017  14.197  0.5535  0.1190  0.2872
 1389TIP3    H125658   6.118   2.109  14.225  0.3644  0.0867  0.4459
 1389TIP3    H225659   6.190   2.001  14.146  0.0457  0.7098 -0.7109
 1390TIP3   OH225660   5.879   3.519   5.965 -0.4146 -0.0720 -0.4360
 1390TIP3    H125661   5.956   3.575   5.955  0.4197 -1.2393 -0.8056
 1390TIP3    H225662   5.845   3.508   5.876 -0.1007 -0.7826 -0.4743
 1391TIP3   OH225663   3.765   3.254   4.823 -0.1381  0.6205 -0.2268
 1391TIP3    H125664   3.749   3.294   4.738 -3.1661 -2.4139 -1.3094
 1391TIP3    H225665   3.848   3.207   4.813 -0.0103  1.0370 -1.1759
 1392TIP3   OH225666   4.986   2.744  14.774 -0.1551 -0.4269 -0.0708
 1392TIP3    H125667   5.057   2.766  14.834 -0.1804 -0.1872 -0.1275
 1392TIP3    H225668   5.019   2.669  14.724  0.4561  0.3180 -0.7996
 1393TIP3   OH225669   2.461   6.791   2.985 -0.6367  0.0047 -0.2278
 1393TIP3    H125670   2.471   6.696   2.982 -0.1542  0.0179  0.6042
 1393TIP3    H225671   2.549   6.826   2.972 -0.7518  0.3308 -0.1567
 1394TIP3   OH225672   2.496   3.038   5.523  0.0903  0.0543 -0.4861
 1394TIP3    H125673   2.538   2.952   5.531  0.6960  0.4327  0.8557
 1394TIP3    H225674   2.490   3.054   5.429 -0.2737 -1.5648 -0.7593
 1395TIP3   OH225675   1.748   0.977  15.824 -0.0866 -0.3041 -0.3875
 1395TIP3    H125676   1.798   0.919  15.767  0.9754 -0.6443  0.8194
 1395TIP3    H225677   1.779   1.065  15.802  0.7785 -0.4800  0.0593
 1396TIP3   OH225678   5.457   2.180   0.266 -0.4015 -0.1969  0.0331
 1396TIP3    H125679   5.501   2.107   0.310 -0.5538 -1.1958 -1.4206
 1396TIP3    H225680   5.428   2.237   0.337  1.4774 -0.5264  1.1173
 1397TIP3   OH225681   6.269   1.492  14.842 -0.1676  0.5930  0.3545
 1397TIP3    H125682   6.307   1.446  14.917  0.4620  2.2655  1.1205
 1397TIP3    H225683   6.175   1.487  14.856 -0.1016 -0.1015  0.6229
 1398TIP3   OH225684   0.094   0.245  11.665  0.2845  0.4767 -0.0124
 1398TIP3    H125685   0.110   0.155  11.694  0.3717  0.8211  1.0722
 1398TIP3    H225686   0.019   0.273  11.718  1.3094  1.5882  0.8977
 1399TIP3   OH225687   1.610   1.154  11.517 -0.2714  0.0735 -0.0435
 1399TIP3    H125688   1.653   1.219  11.573 -2.1283 -0.5864  2.3192
 1399TIP3    H225689   1.522   1.146  11.554 -1.1969 -1.3685 -2.3511
 1400TIP3   OH225690   5.271   6.242  14.355  0.2141  0.4856  0.2890
 1400TIP3    H125691   5.354   6.267  14.314 -0.5970 -0.1896 -1.8637
 1400TIP3    H225692   5.206   6.297  14.312 -0.7952 -0.9262 -0.0372
 1401TIP3   OH225693   2.375   3.274  10.272 -0.6082  0.2415  0.0076
 1401TIP3    H125694   2.420   3.236  10.347 -0.5646 -0.7057 -0.4824
 1401TIP3    H225695   2.393   3.368  10.278 -0.1235  0.1067  0.8463
 1402TIP3   OH225696   0.421   4.947  12.689 -0.1776  0.1505  0.3181
 1402TIP3    H125697   0.409   4.929  12.596 -1.1741 -1.1992  0.6695
 1402TIP3    H225698   0.348   5.004  12.712  0.0712  0.4876  0.2713
 1403TIP3   OH225699   5.682   6.761   4.204 -0.3032  0.2475 -0.0976
 1403TIP3    H125700   5.589   6.748   4.221 -0.0922 -2.2925 -0.5036
 1403TIP3    H225701   5.688   6.773   4.109 -0.1303 -0.8224 -0.2317
 1404TIP3   OH225702   2.612   4.549  10.566  0.6065  0.2009 -0.0292
 1404TIP3    H125703   2.654   4.538  10.481 -0.9950 -0.4647 -0.7645
 1404TIP3    H225704   2.683   4.537  10.630  1.6927  0.0391 -1.2368
 1405TIP3   OH225705   2.411   6.358  11.775 -0.2141 -0.0946 -0.7163
 1405TIP3    H125706   2.359   6.438  11.784 -2.4728 -1.3622 -1.6607
 1405TIP3    H225707   2.362   6.292  11.823 -0.1542 -1.6349 -2.6892
 1406TIP3   OH225708   1.278   0.562   0.550 -0.1888  0.4886 -0.6076
 1406TIP3    H125709   1.215   0.580   0.480 -2.0056 -0.6816  0.6304
 1406TIP3    H225710   1.312   0.475   0.530 -0.7149  0.1499 -0.0757
 1407TIP3   OH225711   1.025   0.806  13.194  0.1824  0.7535  0.2060
 1407TIP3    H125712   1.042   0.712  13.199  0.0430  0.7123 -0.1216
 1407TIP3    H225713   1.046   0.830  13.104 -2.8850  0.4293 -0.7109
 1408TIP3   OH225714   5.188   3.223   3.127 -0.4877  0.2894  0.0315
 1408TIP3    H125715   5.155   3.268   3.205  0.3401 -0.8177  1.0530
 1408TIP3    H225716   5.146   3.137   3.129  1.5185 -0.7345  0.7605
 1409TIP3   OH225717   5.519   2.066  10.527  0.2446  0.3912 -0.0040
 1409TIP3    H125718   5.565   2.014  10.593 -1.0074 -1.2939 -0.3741
 1409TIP3    H225719   5.586   2.125  10.493  1.5833 -0.5027  0.9284
 1410TIP3   OH225720   4.234   3.004  17.088 -0.7610  0.1703  0.1970
 1410TIP3    H125721   4.154   3.000  17.036 -0.3406  0.3547 -0.4686
 1410TIP3    H225722   4.244   2.915  17.123 -2.1227  0.5336  1.6292
 1411TIP3   OH225723   2.168   3.077   0.871  0.3451 -0.3891 -0.5181
 1411TIP3    H125724   2.218   3.013   0.821  1.0562 -0.7604  0.6263
 1411TIP3    H225725   2.174   3.047   0.962 -0.1962  0.7208 -0.0918
 1412TIP3   OH225726   2.304   3.973   5.670  0.1492  0.7680 -0.5406
 1412TIP3    H125727   2.393   3.975   5.705 -0.8904  0.5794  2.4058
 1412TIP3    H225728   2.291   3.883   5.642 -0.0658 -0.0527  1.9780
 1413TIP3   OH225729   2.123   4.872   0.696  0.2519  0.5162 -0.0159
 1413TIP3    H125730   2.203   4.845   0.740  0.5471 -1.0095 -1.4221
 1413TIP3    H225731   2.137   4.965   0.676  1.6340  0.2919 -0.1881
 1414TIP3   OH225732   6.441   2.233  14.404 -1.0310 -0.4285  0.0567
 1414TIP3    H125733   6.481   2.200  14.484 -2.2488  1.4068  1.5114
 1414TIP3    H225734   6.514   2.268  14.353 -0.4495  0.3779  1.3895
 1415TIP3   OH225735   1.686   5.925  14.693  0.4006 -0.3876 -0.1835
 1415TIP3    H125736   1.620   5.856  14.705 -0.6922  0.8829  1.7772
 1415TIP3    H225737   1.748   5.911  14.764 -0.6840  1.4592  1.2326
 1416TIP3   OH225738   6.478   5.359   1.635  0.9725  0.1083 -0.0273
 1416TIP3    H125739   6.520   5.418   1.698  0.5417  0.3367  0.0529
 1416TIP3    H225740   6.503   5.394   1.549 -1.1369  1.8275 -0.0221
 1417TIP3   OH225741   3.448   1.129  16.133  0.0447 -0.0985 -0.3177
 1417TIP3    H125742   3.526   1.182  16.117  0.2163 -0.7757 -1.9067
 1417TIP3    H225743   3.479   1.039  16.124 -0.4450 -0.4832  1.3969
 1418TIP3   OH225744   3.152   0.475   2.502 -0.0925  0.4927 -0.0096
 1418TIP3    H125745   3.079   0.413   2.499 -0.0120  0.4168 -0.6196
 1418TIP3    H225746   3.146   0.524   2.420  0.1766  0.9103  0.2160
 1419TIP3   OH225747   1.334   0.061   2.006  0.2024  0.0602  0.2782
 1419TIP3    H125748   1.358   0.091   2.094 -1.1909  1.4568  0.2264
 1419TIP3    H225749   1.350   0.136   1.950 -3.2346  0.8094  0.1053
 1420TIP3   OH225750   2.694   1.924   1.869  0.4069  0.3912 -0.3159
 1420TIP3    H125751   2.751   2.000   1.857  0.3200  0.5540  0.2659
 1420TIP3    H225752   2.640   1.922   1.790  1.2469  0.2028 -0.8997
 1421TIP3   OH225753   0.867   1.423   1.338  0.5000  0.2619 -0.3796
 1421TIP3    H125754   0.883   1.410   1.245  0.9110  0.2079 -0.3012
 1421TIP3    H225755   0.926   1.361   1.381  0.7082  0.6767 -0.0662
 1422TIP3   OH225756   0.542   0.779   1.388 -0.4738 -0.4451  0.3497
 1422TIP3    H125757   0.514   0.709   1.447 -0.3680  0.2851  1.2995
 1422TIP3    H225758   0.585   0.843   1.445  0.1481  0.0203 -0.6093
 1423TIP3   OH225759   0.756   1.762  14.574  0.2365 -0.1761  0.0612
 1423TIP3    H125760   0.698   1.832  14.605  1.1910  1.2638 -1.2479
 1423TIP3    H225761   0.724   1.683  14.617 -1.5907  0.8726  0.7205
 1424TIP3   OH225762   2.131   1.869  12.062  0.7447 -0.0905  0.1763
 1424TIP3    H125763   2.102   1.899  11.976  0.4310  0.2531  0.4001
 1424TIP3    H225764   2.130   1.773  12.056  0.9257 -0.0664 -0.2672
 1425TIP3   OH225765   0.524   4.179   3.863  0.4861  0.0230  0.3840
 1425TIP3    H125766   0.610   4.200   3.827 -0.2719  1.0071 -0.9163
 1425TIP3    H225767   0.510   4.087   3.839  0.9504  0.0134  0.1373
 1426TIP3   OH225768   6.034   5.131   1.481 -0.0889  0.2960 -0.0290
 1426TIP3    H125769   6.120   5.151   1.445 -0.5164  0.2303 -1.1363
 1426TIP3    H225770   6.025   5.190   1.556  1.2084 -0.2136  0.5546
 1427TIP3   OH225771   1.931   2.713   1.577  0.0558  0.0212  0.2811
 1427TIP3    H125772   1.906   2.711   1.484  1.0008 -3.2613 -0.0060
 1427TIP3    H225773   2.023   2.742   1.576 -0.1042  0.5480  0.2795
 1428TIP3   OH225774   5.879   4.269  13.094  0.1364 -0.3651 -0.3291
 1428TIP3    H125775   5.812   4.216  13.051  0.7792 -0.5226 -1.1636
 1428TIP3    H225776   5.881   4.351  13.045 -1.2356  0.7025  1.2935
 1429TIP3   OH225777   2.335   5.341  16.704 -0.4010  0.4739 -0.2659
 1429TIP3    H125778   2.418   5.357  16.748  0.2901 -0.0530 -1.3542
 1429TIP3    H225779   2.272   5.330  16.775  0.5110  0.5743  0.5738
 1430TIP3   OH225780   0.130   4.897   0.581 -0.0798  0.1933 -0.0441
 1430TIP3    H125781   0.036   4.881   0.575 -0.2258  1.3090 -0.9398
 1430TIP3    H225782   0.152   4.876   0.672 -1.1356 -0.3107  0.1104
 1431TIP3   OH225783   1.972   0.304   3.673 -0.5825  0.6565  0.5664
 1431TIP3    H125784   2.018   0.373   3.624 -0.6740  0.7712  0.6393
 1431TIP3    H225785   1.938   0.349   3.751  0.0189  0.3539  1.0073
 1432TIP3   OH225786   2.685   1.359   0.294 -0.0718 -0.5741  0.7604
 1432TIP3    H125787   2.646   1.285   0.248  0.5011 -0.4440  0.0444
 1432TIP3    H225788   2.756   1.320   0.346 -0.7933 -0.7372  1.6488
 1433TIP3   OH225789   2.220   1.795   2.448  0.0834  0.3300  0.2580
 1433TIP3    H125790   2.160   1.822   2.378  0.5098  0.2689 -0.1347
 1433TIP3    H225791   2.260   1.715   2.416  0.5785  0.5151  0.3952
 1434TIP3   OH225792   3.643   2.856  13.606 -0.0758 -0.5521  0.1748
 1434TIP3    H125793   3.571   2.915  13.584  0.7070 -0.3257 -1.9449
 1434TIP3    H225794   3.627   2.834  13.698 -2.6544 -0.2530 -0.1049
 1435TIP3   OH225795   6.206   0.859  11.963  0.2754  0.0085  0.1804
 1435TIP3    H125796   6.190   0.940  12.011 -1.4634  0.6085 -1.2668
 1435TIP3    H225797   6.257   0.887  11.887  2.4108 -0.8142  1.2388
 1436TIP3   OH225798   6.362   0.772  16.169  0.0238 -0.1870  0.1447
 1436TIP3    H125799   6.412   0.852  16.153 -0.3778 -0.3272 -2.1152
 1436TIP3    H225800   6.289   0.775  16.107 -1.2734 -1.2725  1.5248
 1437TIP3   OH225801   1.013   1.345  11.276  0.4267 -0.5436  0.0014
 1437TIP3    H125802   1.052   1.302  11.199 -1.0928  1.2271 -1.8460
 1437TIP3    H225803   0.925   1.308  11.282  0.6959 -1.0470  1.2799
 1438TIP3   OH225804   3.324   2.838   4.850 -0.6332  0.2550  0.2534
 1438TIP3    H125805   3.344   2.816   4.759  1.0320 -0.6416  0.7864
 1438TIP3    H225806   3.390   2.903   4.874  0.2088 -0.9317  1.3456
 1439TIP3   OH225807   3.041   4.607   5.304  0.5179 -0.6168  0.5217
 1439TIP3    H125808   2.959   4.587   5.259  0.4530  1.4001 -0.3724
 1439TIP3    H225809   3.017   4.612   5.396 -0.1967 -0.8026  0.3528
 1440TIP3   OH225810   6.507   6.394  15.975  0.0363  0.5359 -0.1686
 1440TIP3    H125811   6.469   6.478  15.948  1.1605  0.2761 -2.8300
 1440TIP3    H225812   6.581   6.381  15.916  0.1084 -2.1976  0.3945
 1441TIP3   OH225813   3.267   0.865   3.538 -0.5273 -0.0867  0.7256
 1441TIP3    H125814   3.254   0.809   3.615 -1.3278 -0.9938 -0.0411
 1441TIP3    H225815   3.360   0.856   3.517 -0.3551 -0.0242  1.4385
 1442TIP3   OH225816   4.215   4.659  11.476  0.0864 -0.2502 -0.0908
 1442TIP3    H125817   4.226   4.662  11.571 -1.0724  1.7125  0.0369
 1442TIP3    H225818   4.125   4.629  11.463  0.0783 -0.0326 -0.5480
 1443TIP3   OH225819   1.150   6.053   2.928 -0.1783  0.1905 -0.2471
 1443TIP3    H125820   1.244   6.065   2.913  0.4206 -1.3140  1.8185
 1443TIP3    H225821   1.116   6.142   2.940  1.2419  0.6744  0.3485
 1444TIP3   OH225822   0.320   1.702  17.130 -0.4379 -0.2509  0.7010
 1444TIP3    H125823   0.390   1.655  17.174  1.2772  0.1905 -1.4315
 1444TIP3    H225824   0.258   1.723  17.201  0.8764 -1.8173  2.4164
 1445TIP3   OH225825   2.047   2.006   3.389 -0.0735  0.2349 -0.3929
 1445TIP3    H125826   2.131   1.961   3.383 -0.0637  0.0493  0.7670
 1445TIP3    H225827   1.988   1.956   3.334  0.8572  1.0975 -2.2473
 1446TIP3   OH225828   0.144   4.509  15.634 -0.1551  0.2720  0.1083
 1446TIP3    H125829   0.237   4.489  15.628 -0.2768 -0.4117  0.3720
 1446TIP3    H225830   0.137   4.568  15.710  0.0599  0.3156  0.0946
 1447TIP3   OH225831   3.100   1.894  14.863  0.5023  1.0513 -0.2536
 1447TIP3    H125832   3.047   1.905  14.785  2.1329  2.0751 -1.2906
 1447TIP3    H225833   3.158   1.820  14.843  0.4025  0.8046  0.3235
 1448TIP3   OH225834   6.514   6.794  16.846  0.1028  0.2512  0.3493
 1448TIP3    H125835   6.444   6.860  16.856 -0.2535 -0.1342  0.4091
 1448TIP3    H225836   6.568   6.805  16.924 -0.3003  0.0708  0.6553
 1449TIP3   OH225837   1.358   1.392  14.510  0.2467 -0.4465 -1.1928
 1449TIP3    H125838   1.436   1.430  14.550 -0.8126  0.0366  0.5236
 1449TIP3    H225839   1.330   1.457  14.446  0.8557 -0.2986 -1.3140
 1450TIP3   OH225840   6.182   6.171   7.147 -0.8268 -0.1156 -0.5856
 1450TIP3    H125841   6.222   6.181   7.060  0.0896  1.4998 -0.0211
 1450TIP3    H225842   6.172   6.077   7.158 -2.0117 -0.3135 -2.8963
 1451TIP3   OH225843   6.164   3.393  14.731  0.3587  0.0251  0.0530
 1451TIP3    H125844   6.239   3.434  14.774  0.5744  0.0540 -0.3466
 1451TIP3    H225845   6.202   3.324  14.676  0.0585 -0.2325  0.1656
 1452TIP3   OH225846   0.898   3.141  15.578 -0.2800 -0.1117 -0.2451
 1452TIP3    H125847   0.994   3.143  15.581 -0.2826  2.2481 -0.2429
 1452TIP3    H225848   0.873   3.091  15.656  0.9160 -1.8468 -0.8948
 1453TIP3   OH225849   1.925   6.710  15.542 -0.5065 -0.4901  0.1563
 1453TIP3    H125850   1.837   6.687  15.511 -0.9457 -1.1418  1.7965
 1453TIP3    H225851   1.910   6.753  15.626  0.7548 -1.0549  0.6895
 1454TIP3   OH225852   6.486   3.804  16.990 -0.5267 -0.1589  0.4321
 1454TIP3    H125853   6.504   3.807  16.896 -1.1367  0.8248  0.3285
 1454TIP3    H225854   6.561   3.759  17.028  0.0598  0.0553 -0.4505
 1455TIP3   OH225855   3.781   6.479   0.145  0.3396 -0.5520  0.1637
 1455TIP3    H125856   3.798   6.476   0.051 -3.0420  1.6524 -0.7326
 1455TIP3    H225857   3.730   6.400   0.163  0.1119 -0.4690 -0.1133
 1456TIP3   OH225858   3.060   5.735   4.354  0.4678  0.0195 -0.2594
 1456TIP3    H125859   2.983   5.681   4.335 -0.1683  1.1192 -0.9597
 1456TIP3    H225860   3.133   5.689   4.314 -0.3956  0.7490 -2.8831
 1457TIP3   OH225861   5.763   2.379  16.983  0.5954 -0.5873 -0.1860
 1457TIP3    H125862   5.804   2.429  16.913  0.5179  1.0708  0.9004
 1457TIP3    H225863   5.752   2.291  16.946 -2.0698  0.8340 -3.3407
 1458TIP3   OH225864   2.714   5.849   1.232  0.0604  0.1836  0.1881
 1458TIP3    H125865   2.780   5.900   1.186  0.4794  1.1409  1.7679
 1458TIP3    H225866   2.700   5.896   1.314 -2.5392 -0.0293 -0.0513
 1459TIP3   OH225867   0.910   5.078   0.586 -0.6155  0.0326 -0.4787
 1459TIP3    H125868   0.847   5.064   0.515  0.7577 -2.5591 -1.3266
 1459TIP3    H225869   0.879   5.023   0.657 -0.6027  0.6568  0.0222
 1460TIP3   OH225870   0.879   6.421  15.545 -0.2303 -0.3315  0.2258
 1460TIP3    H125871   0.915   6.401  15.459 -0.0788 -1.7297  0.5919
 1460TIP3    H225872   0.937   6.488  15.581  0.1229 -0.2596 -0.4654
 1461TIP3   OH225873   5.618   2.622  11.854  0.1560 -0.0400  0.4320
 1461TIP3    H125874   5.530   2.648  11.881  0.7490  1.7419  0.7715
 1461TIP3    H225875   5.668   2.620  11.936  0.5829 -0.4768  0.1676
 1462TIP3   OH225876   5.452   5.081   1.308 -0.5899  0.1320  0.3679
 1462TIP3    H125877   5.374   5.090   1.253 -0.8253 -0.7761  0.5299
 1462TIP3    H225878   5.500   5.163   1.296 -0.2116 -0.3611 -1.8613
 1463TIP3   OH225879   1.076   6.050   2.032  1.0915 -0.7127 -0.7225
 1463TIP3    H125880   1.040   5.973   1.988 -1.8616  0.0687  0.0420
 1463TIP3    H225881   1.124   6.014   2.107  0.6725 -1.8657 -0.9761
 1464TIP3   OH225882   1.446   4.860  13.015 -0.0873 -0.4321 -0.5995
 1464TIP3    H125883   1.407   4.869  13.102 -0.6200 -0.1074 -0.8692
 1464TIP3    H225884   1.523   4.804  13.029 -0.4477 -0.7887 -0.0087
 1465TIP3   OH225885   4.090   1.386   1.431 -0.1133 -0.3074  0.9847
 1465TIP3    H125886   4.030   1.363   1.360  0.2878  2.9844 -0.5964
 1465TIP3    H225887   4.164   1.326   1.420 -1.6172 -2.2708  0.9754
 1466TIP3   OH225888   1.694   0.308  14.068  0.0298  0.1447  0.1661
 1466TIP3    H125889   1.681   0.325  13.975 -0.2118  2.4154  0.5436
 1466TIP3    H225890   1.623   0.357  14.111  0.4507 -0.4294  1.5653
 1467TIP3   OH225891   5.881   1.814   5.331 -0.1969  0.0962 -0.4164
 1467TIP3    H125892   5.839   1.795   5.415 -0.6264  0.0139 -0.6498
 1467TIP3    H225893   5.924   1.731   5.307 -0.8743 -0.1641 -0.7398
 1468TIP3   OH225894   5.299   5.835   2.318  0.0247 -0.1864 -0.5309
 1468TIP3    H125895   5.299   5.755   2.265  0.0042 -0.8781  0.4913
 1468TIP3    H225896   5.367   5.889   2.278  0.5468 -1.0152 -0.7981
 1469TIP3   OH225897   1.545   4.615   0.753  0.1512 -0.3266 -0.1352
 1469TIP3    H125898   1.579   4.548   0.695  0.6613  0.2605 -0.5174
 1469TIP3    H225899   1.477   4.659   0.702  0.3557 -0.0416 -0.1614
 1470TIP3   OH225900   6.301   1.975   4.643  0.1351  0.7434 -0.5816
 1470TIP3    H125901   6.217   2.021   4.643 -0.7562 -0.7491  1.6306
 1470TIP3    H225902   6.281   1.890   4.604  0.8249  0.6567 -0.7535
 1471TIP3   OH225903   2.567   5.553   4.824  0.1506 -0.3159  0.3002
 1471TIP3    H125904   2.473   5.561   4.806 -0.2301 -1.3572  1.6423
 1471TIP3    H225905   2.584   5.616   4.894  0.6045  0.3354 -0.3854
 1472TIP3   OH225906   6.684   0.050   3.012  0.8468  0.2043 -0.0408
 1472TIP3    H125907   6.703   0.041   2.919  2.2877 -1.2674  0.3344
 1472TIP3    H225908   6.634  -0.029   3.034  0.5507  0.5214  0.4335
 1473TIP3   OH225909   4.924   4.967  16.311  0.4518 -0.3448  0.0357
 1473TIP3    H125910   4.975   4.992  16.388  1.3490 -0.4850 -0.4976
 1473TIP3    H225911   4.965   5.015  16.239  0.3057 -1.0387 -0.5218
 1474TIP3   OH225912   5.714   2.009  13.598 -0.5457  0.0276  0.0433
 1474TIP3    H125913   5.676   1.925  13.576  0.2581  0.1534 -1.9694
 1474TIP3    H225914   5.686   2.024  13.689 -3.7545 -0.6828 -0.6965
 1475TIP3   OH225915   4.531   6.214  14.780  0.2706  0.0056 -0.4027
 1475TIP3    H125916   4.475   6.139  14.797  1.4638 -0.5029  1.5155
 1475TIP3    H225917   4.496   6.284  14.836  1.4129 -0.2783  0.7147
 1476TIP3   OH225918   6.306   0.695   0.163 -0.6210  0.0833 -0.1179
 1476TIP3    H125919   6.314   0.740   0.248 -1.9618 -0.5505  0.3854
 1476TIP3    H225920   6.393   0.659   0.146  0.1264  1.6922  0.1222
 1477TIP3   OH225921   3.296   3.434  11.930  0.0916 -0.4457  0.0384
 1477TIP3    H125922   3.262   3.354  11.890 -1.6816  0.5122 -0.4902
 1477TIP3    H225923   3.226   3.498  11.917  0.3555  0.5137  2.7400
 1478TIP3   OH225924   1.528   5.867  16.564  0.1370 -0.1225  0.2076
 1478TIP3    H125925   1.521   5.855  16.469  2.1337  0.6685 -0.1166
 1478TIP3    H225926   1.484   5.792  16.602 -0.7805 -0.4145 -1.3516
 1479TIP3   OH225927   0.825   2.338  14.307  0.1424 -0.3257  0.3462
 1479TIP3    H125928   0.732   2.362  14.311  0.2790  0.2243  0.2839
 1479TIP3    H225929   0.867   2.394  14.372  0.8639  1.5436 -1.6109
 1480TIP3   OH225930   3.167   4.075   3.679  0.3291  0.8299 -0.4120
 1480TIP3    H125931   3.165   4.047   3.588  0.0770  1.9518 -0.7607
 1480TIP3    H225932   3.198   4.165   3.677  2.0666  0.3251  0.7736
 1481TIP3   OH225933   2.474   5.729   2.154 -0.7990 -0.2630  0.0390
 1481TIP3    H125934   2.432   5.687   2.079  1.2990  0.2601 -1.5239
 1481TIP3    H225935   2.411   5.719   2.225 -1.4875 -3.7591 -0.8783
 1482TIP3   OH225936   2.501   4.121  14.873  0.3665  0.1476 -0.6092
 1482TIP3    H125937   2.438   4.051  14.856 -0.4686  0.5787  0.5496
 1482TIP3    H225938   2.577   4.099  14.820  0.3576 -1.9637  0.1510
 1483TIP3   OH225939   6.805   4.588   5.169 -0.4544 -0.0617 -0.0463
 1483TIP3    H125940   6.833   4.533   5.096 -1.5984 -2.1902  1.0077
 1483TIP3    H225941   6.731   4.541   5.207 -0.2520  1.2487  2.1400
 1484TIP3   OH225942   4.343   2.237  12.151  0.0563 -0.3101 -0.2964
 1484TIP3    H125943   4.309   2.258  12.238 -0.5282  1.1175 -0.8232
 1484TIP3    H225944   4.266   2.236  12.095  0.3545 -1.8042 -0.7201
 1485TIP3   OH225945   6.254   2.037   6.407 -0.6478  0.3367 -0.4702
 1485TIP3    H125946   6.263   1.994   6.492  1.6057  0.7191 -0.4728
 1485TIP3    H225947   6.270   2.130   6.425  3.0042  0.1019 -1.6587
 1486TIP3   OH225948   0.311   0.702  12.403 -0.1744  0.4949  0.0969
 1486TIP3    H125949   0.282   0.616  12.372  0.8624 -0.1630  0.9074
 1486TIP3    H225950   0.390   0.685  12.453  1.7447  2.2512 -2.1091
 1487TIP3   OH225951   6.126   2.531  16.087 -1.0472  0.0009 -0.2664
 1487TIP3    H125952   6.197   2.472  16.062  0.6771  2.0782 -0.5023
 1487TIP3    H225953   6.119   2.522  16.182 -0.9166 -0.6567 -0.3128
 1488TIP3   OH225954   0.473   2.128   1.316 -0.1506  0.3714  0.2887
 1488TIP3    H125955   0.556   2.174   1.330  0.1831  0.2600 -1.1505
 1488TIP3    H225956   0.495   2.058   1.254 -1.6430  1.3920 -1.4774
 1489TIP3   OH225957   6.702   5.675   3.557  0.1389  0.2537 -0.6553
 1489TIP3    H125958   6.719   5.582   3.542 -0.2260  0.3844 -2.1133
 1489TIP3    H225959   6.647   5.677   3.635  0.3263 -0.7345 -0.4792
 1490TIP3   OH225960   6.172   3.381   1.443 -0.0656 -0.3721  0.6668
 1490TIP3    H125961   6.264   3.366   1.423 -0.5798 -1.9218 -0.8314
 1490TIP3    H225962   6.140   3.297   1.476 -0.9103  0.1969  1.3482
 1491TIP3   OH225963   0.463   4.426  10.498  0.6196  0.0698  0.3389
 1491TIP3    H125964   0.469   4.475  10.415 -0.9958  0.1723  0.2548
 1491TIP3    H225965   0.553   4.420  10.528  1.2262  0.1977 -1.3373
 1492TIP3   OH225966   0.007   4.587  16.459  0.0483  0.0797 -0.0000
 1492TIP3    H125967  -0.076   4.627  16.431 -1.0801 -2.5158 -0.6372
 1492TIP3    H225968   0.074   4.635  16.410 -1.2551  0.7769 -1.1978
 1493TIP3   OH225969   1.684   1.663  14.905  0.5766 -0.4061  0.3463
 1493TIP3    H125970   1.729   1.579  14.892  0.6574  0.0507 -3.3196
 1493TIP3    H225971   1.600   1.639  14.945  0.7092 -2.2253 -0.3518
 1494TIP3   OH225972   6.478   3.005  13.827 -0.0673  0.2590  0.0686
 1494TIP3    H125973   6.558   3.053  13.806 -0.6732  1.1074 -0.3908
 1494TIP3    H225974   6.421   3.020  13.751 -0.0042 -1.8701 -0.4760
 1495TIP3   OH225975   5.498   3.320  13.641 -0.2205  0.0035  0.1638
 1495TIP3    H125976   5.460   3.240  13.678  0.6342 -0.4224  0.1550
 1495TIP3    H225977   5.470   3.390  13.701 -1.0132 -0.2843  0.1446
 1496TIP3   OH225978   1.370   5.665  15.657 -0.1390 -0.2564  0.0401
 1496TIP3    H125979   1.292   5.699  15.613  0.1929 -0.3632 -0.6524
 1496TIP3    H225980   1.406   5.741  15.703 -0.1700  0.0104 -0.3624
 1497TIP3   OH225981   0.667   0.453  14.421  0.4458 -0.5111  0.0898
 1497TIP3    H125982   0.655   0.503  14.502 -1.5769 -0.3807 -0.2299
 1497TIP3    H225983   0.752   0.481  14.388  1.4358 -0.7277  2.2487
 1498TIP3   OH225984   0.589   3.615   2.695 -0.2467 -0.3435  1.1355
 1498TIP3    H125985   0.498   3.643   2.697 -0.0320  0.3639  1.3164
 1498TIP3    H225986   0.588   3.533   2.646 -0.7511  0.5672 -0.4639
 1499TIP3   OH225987   5.665   5.327   1.199 -0.2348 -0.2574 -0.5556
 1499TIP3    H125988   5.613   5.303   1.121 -0.1741 -0.4860 -0.5281
 1499TIP3    H225989   5.680   5.421   1.190 -0.1975 -0.2896 -0.8393
 1500TIP3   OH225990   2.482   5.028  14.200  0.5326  0.3299  0.2201
 1500TIP3    H125991   2.467   5.017  14.294  1.1730 -0.3045  0.2538
 1500TIP3    H225992   2.538   5.106  14.193  1.2886 -0.1840  0.4400
 1501TIP3   OH225993   0.257   6.097  14.209 -0.1797  0.2826 -0.5901
 1501TIP3    H125994   0.335   6.097  14.264 -0.0482 -0.0602 -0.7726
 1501TIP3    H225995   0.238   6.190  14.195  0.6374  0.3719 -1.1691
 1502TIP3   OH225996   2.881   2.063  16.277  0.0181  0.3824 -0.1002
 1502TIP3    H125997   2.807   2.123  16.281  0.6838  1.4057 -1.9176
 1502TIP3    H225998   2.902   2.057  16.184  0.8430 -1.6343  0.1544
 1503TIP3   OH225999   5.811   5.361   2.216 -0.3462  0.5606 -0.3644
 1503TIP3    H126000   5.841   5.425   2.281  1.2884 -0.7110  0.1676
 1503TIP3    H226001   5.777   5.288   2.268  1.0287 -0.4925 -0.8953
 1504TIP3   OH226002   0.831   4.646   5.959 -0.2884 -0.3956 -1.1389
 1504TIP3    H126003   0.768   4.658   6.030  1.0767  0.0429  0.0470
 1504TIP3    H226004   0.822   4.725   5.905  1.4963  1.2788  0.8755
 1505TIP3   OH226005   0.377   3.959  12.002 -0.0410  0.5231  0.2298
 1505TIP3    H126006   0.365   4.038  12.055  0.2720  0.5728  0.2304
 1505TIP3    H226007   0.460   3.973  11.957 -0.8174  0.9498 -1.1030
 1506TIP3   OH226008   0.522   1.787   2.826 -1.1498  0.3080  0.0364
 1506TIP3    H126009   0.487   1.875   2.814 -0.9219  0.5498  1.0846
 1506TIP3    H226010   0.505   1.766   2.918  2.0640  0.7271  0.8206
 1507TIP3   OH226011   1.372   5.433  16.908 -0.0929 -0.1719  0.1418
 1507TIP3    H126012   1.276   5.429  16.908 -0.1366  0.4486 -1.2465
 1507TIP3    H226013   1.393   5.493  16.979 -0.6761 -1.1481  1.1702
 1508TIP3   OH226014   6.240   5.826   0.993  0.7990 -0.0075  0.5481
 1508TIP3    H126015   6.183   5.899   0.968 -0.9434 -0.8478  1.9194
 1508TIP3    H226016   6.251   5.836   1.087  1.6873 -0.7499  0.5318
 1509TIP3   OH226017   5.305   6.575  12.691  0.0428 -0.2195  0.4201
 1509TIP3    H126018   5.378   6.636  12.698  2.2261 -2.2736 -2.4463
 1509TIP3    H226019   5.309   6.524  12.772  0.7235  0.7283  1.0104
 1510TIP3   OH226020   1.165   0.480  14.994  0.1591 -0.8632 -0.1300
 1510TIP3    H126021   1.219   0.424  15.050  0.9169  1.5053  1.6351
 1510TIP3    H226022   1.106   0.525  15.054  0.6949  1.4358 -1.2065
 1511TIP3   OH226023   6.483   6.653   0.549  0.3327  0.8789 -0.5642
 1511TIP3    H126024   6.572   6.654   0.584  0.1164  1.5460 -0.0261
 1511TIP3    H226025   6.489   6.598   0.471  1.5388  2.1774 -1.4117
 1512TIP3   OH226026   4.633   3.385  12.229 -0.7218  0.2806 -0.3227
 1512TIP3    H126027   4.671   3.301  12.203 -1.5566 -0.4535  0.7576
 1512TIP3    H226028   4.703   3.448  12.213  0.3790 -0.8047  0.0367
 1513TIP3   OH226029   4.264   2.846   2.414  0.2400 -0.6470 -0.3396
 1513TIP3    H126030   4.260   2.762   2.368 -2.0835 -0.2966 -0.9312
 1513TIP3    H226031   4.338   2.891   2.375  0.5940 -1.8287 -1.0924
 1514TIP3   OH226032   1.614   5.919  12.296  0.0171  0.3037 -0.2397
 1514TIP3    H126033   1.690   5.862  12.307 -0.3861 -0.8114 -2.6387
 1514TIP3    H226034   1.543   5.872  12.341  0.4600  0.8046  1.0356
 1515TIP3   OH226035   5.821   0.504   4.480  0.5172 -0.1493  0.5117
 1515TIP3    H126036   5.906   0.519   4.437  0.3543 -1.9766 -0.5691
 1515TIP3    H226037   5.783   0.431   4.431 -1.8510  0.8435  0.7631
 1516TIP3   OH226038   1.885   6.457   0.826  0.2425  0.3699 -0.2356
 1516TIP3    H126039   1.911   6.546   0.851 -0.3142  0.9984 -1.7377
 1516TIP3    H226040   1.852   6.418   0.906  2.6153  0.6823  1.0022
 1517TIP3   OH226041   3.045   6.656   2.570 -0.2453 -0.0569  0.0893
 1517TIP3    H126042   3.016   6.573   2.609  0.6186  1.2028  3.9132
 1517TIP3    H226043   2.976   6.719   2.593 -0.1334  0.6152 -1.3376
 1518TIP3   OH226044   3.298   5.094  15.690 -0.1284  0.4153  0.1755
 1518TIP3    H126045   3.356   5.052  15.754 -2.1177 -2.0589  0.5033
 1518TIP3    H226046   3.303   5.039  15.613 -1.5833  0.4696  0.0178
 1519TIP3   OH226047   0.498   1.928   4.989 -0.9024  0.5933  0.1619
 1519TIP3    H126048   0.464   1.924   4.900  0.8383  0.0552 -0.5231
 1519TIP3    H226049   0.458   1.853   5.034  1.8545 -2.1874 -1.6070
 1520TIP3   OH226050   4.850   3.148  15.825 -0.3549  0.6078 -0.0580
 1520TIP3    H126051   4.909   3.198  15.882  0.6809 -0.1445 -0.4303
 1520TIP3    H226052   4.775   3.127  15.880  0.6488 -0.1629  1.0855
 1521TIP3   OH226053   6.081   3.155   3.369  0.1598 -0.3149 -0.2424
 1521TIP3    H126054   6.037   3.125   3.290  1.3275 -1.5715 -0.4454
 1521TIP3    H226055   6.126   3.078   3.402  1.3003  0.6678  0.5590
 1522TIP3   OH226056   0.119   1.424  16.185 -0.7014  0.0866 -0.4758
 1522TIP3    H126057   0.058   1.367  16.138 -1.8214  0.0113  1.0022
 1522TIP3    H226058   0.205   1.385  16.169 -1.3668 -1.6812 -0.0296
 1523TIP3   OH226059   5.443   3.960   6.762 -0.4161 -0.2294 -0.0619
 1523TIP3    H126060   5.433   3.882   6.817 -0.3574 -0.0709  0.1746
 1523TIP3    H226061   5.536   3.962   6.739 -0.1573  0.4814  0.9969
 1524TIP3   OH226062   0.743   6.364   0.921 -0.4217  0.2831  0.1479
 1524TIP3    H126063   0.677   6.433   0.921 -0.5155  0.1986 -0.2666
 1524TIP3    H226064   0.731   6.318   1.004 -0.4416  0.6861  0.3656
 1525TIP3   OH226065   1.141   6.741   5.765 -0.6950  0.2856  0.2935
 1525TIP3    H126066   1.049   6.738   5.793 -0.8282 -2.4269 -0.2059
 1525TIP3    H226067   1.144   6.688   5.686  0.8486  2.6469 -1.3568
 1526TIP3   OH226068   0.335   0.167  16.519  0.0109 -0.2490  0.3551
 1526TIP3    H126069   0.353   0.157  16.425 -0.4076 -0.9123  0.3375
 1526TIP3    H226070   0.296   0.084  16.545  0.2777 -0.1319  1.1637
 1527TIP3   OH226071   3.465   2.406  17.172  0.1683  0.7935  0.4604
 1527TIP3    H126072   3.487   2.351  17.248  0.0820  1.5950  1.0739
 1527TIP3    H226073   3.539   2.394  17.112 -1.1238 -2.2330 -0.7314
 1528TIP3   OH226074   0.208   6.728   5.486  0.5386  0.6277 -0.3832
 1528TIP3    H126075   0.125   6.690   5.456  1.0250 -0.1533 -0.7553
 1528TIP3    H226076   0.250   6.658   5.535  2.5812 -0.2375 -3.1379
 1529TIP3   OH226077   0.784   2.008   0.735  0.0538 -0.2234 -0.2146
 1529TIP3    H126078   0.776   2.096   0.697 -0.4579  0.4024  1.2645
 1529TIP3    H226079   0.695   1.974   0.735  0.1348 -0.4349 -0.1070
 1530TIP3   OH226080   4.419   5.233  13.721 -0.0023 -0.0035  0.3784
 1530TIP3    H126081   4.328   5.212  13.742 -1.4405  1.9344 -3.1115
 1530TIP3    H226082   4.464   5.148  13.721 -2.2137 -1.2438  0.4093
 1531TIP3   OH226083   0.732   2.740   3.377 -0.3006 -0.2505  0.2473
 1531TIP3    H126084   0.679   2.820   3.369  1.9223  1.2873 -0.2774
 1531TIP3    H226085   0.702   2.699   3.457 -1.4599  1.1909  0.5973
 1532TIP3   OH226086   4.275   2.580   3.968  0.0828  0.3824 -0.0977
 1532TIP3    H126087   4.204   2.539   4.018  0.0220 -0.6556 -1.0001
 1532TIP3    H226088   4.230   2.643   3.910  0.0348  0.6954  0.2770
 1533TIP3   OH226089   5.730   2.614  13.578  0.5465 -0.0188  0.1733
 1533TIP3    H126090   5.719   2.531  13.532  1.4044  0.2966 -0.6105
 1533TIP3    H226091   5.730   2.680  13.510  1.7404  0.4631  0.6147
 1534TIP3   OH226092   3.349   1.049   1.796  0.0556 -0.1923 -0.4094
 1534TIP3    H126093   3.295   1.109   1.847  0.3080  1.0615 -1.5529
 1534TIP3    H226094   3.434   1.049   1.840  0.1916  0.6680 -0.6530
 1535TIP3   OH226095   5.985   1.753  11.791  0.0624 -0.2310  0.5685
 1535TIP3    H126096   6.078   1.774  11.775 -0.4162  1.0344 -0.8074
 1535TIP3    H226097   5.937   1.810  11.731 -1.6151 -1.1051  1.0163
 1536TIP3   OH226098   2.921   0.306  17.028 -0.6648  0.5854 -0.3794
 1536TIP3    H126099   2.978   0.264  17.093 -1.2395  1.8649  1.0203
 1536TIP3    H226100   2.871   0.234  16.989  1.4890 -0.5028 -1.2717
 1537TIP3   OH226101   6.242   1.422  16.157 -0.5065  0.3786 -0.1150
 1537TIP3    H126102   6.267   1.379  16.239  0.8109  1.5419  0.1293
 1537TIP3    H226103   6.296   1.379  16.091  0.5513  1.3740  0.0766
 1538TIP3   OH226104   2.157   0.343  13.751 -0.0489  0.2641  0.2192
 1538TIP3    H126105   2.089   0.309  13.692  1.3304 -0.2668 -1.1147
 1538TIP3    H226106   2.169   0.434  13.723  0.3799  0.1081 -0.1024
 1539TIP3   OH226107   0.617   6.205  13.662 -0.8734 -0.2720 -0.0288
 1539TIP3    H126108   0.539   6.156  13.634 -0.2588  0.3045 -3.0866
 1539TIP3    H226109   0.690   6.157  13.625 -0.0758  1.3667 -0.6695
 1540TIP3   OH226110   3.173   0.959  15.099 -0.1529  0.6279 -0.2994
 1540TIP3    H126111   3.082   0.962  15.071 -0.3660 -0.9401  0.1430
 1540TIP3    H226112   3.202   1.050  15.097 -1.9581  1.2484  0.3640
 1541TIP3   OH226113   3.416   1.571   5.160  0.1622 -0.1888 -0.0807
 1541TIP3    H126114   3.381   1.520   5.087 -0.9128 -1.0285  0.9780
 1541TIP3    H226115   3.338   1.603   5.206  0.8060 -0.2212  1.0630
 1542TIP3   OH226116   2.586   2.054   5.636 -0.2650 -0.4063  0.2212
 1542TIP3    H126117   2.570   2.036   5.729 -1.1431 -1.4636 -0.1179
 1542TIP3    H226118   2.533   1.990   5.589  0.5404 -0.2032 -1.0216
 1543TIP3   OH226119   3.671   4.999   4.776  0.3790  0.4688  0.2214
 1543TIP3    H126120   3.725   4.942   4.721  1.7767  1.1533  0.8298
 1543TIP3    H226121   3.594   4.946   4.797  1.8031 -1.3756  1.0948
 1544TIP3   OH226122   5.226   4.771  13.072 -0.3488 -0.9360 -0.0515
 1544TIP3    H126123   5.276   4.712  13.129  1.4145 -0.0193 -0.5994
 1544TIP3    H226124   5.280   4.781  12.994 -1.2969  0.2729 -0.5891
 1545TIP3   OH226125   1.087   5.498   1.996  0.3356  0.1129 -0.1916
 1545TIP3    H126126   1.077   5.532   1.907  1.4437  0.8141 -0.0628
 1545TIP3    H226127   1.158   5.435   1.989  0.0481 -0.2453  0.0948
 1546TIP3   OH226128   2.678   5.772  16.347  0.1278 -0.1419  0.1479
 1546TIP3    H126129   2.716   5.707  16.287 -0.4457 -0.1300 -0.2387
 1546TIP3    H226130   2.650   5.720  16.422 -1.7953 -0.6213 -0.8403
 1547TIP3   OH226131   1.108   2.682   4.847  0.1325  0.0622  0.4394
 1547TIP3    H126132   1.108   2.729   4.931  0.3970 -0.9979  1.0609
 1547TIP3    H226133   1.025   2.704   4.806  0.1429  0.8570  0.8335
 1548TIP3   OH226134   3.308   1.366  15.852  0.4872  0.0255  0.0528
 1548TIP3    H126135   3.261   1.288  15.881 -0.8082  0.8078  0.1780
 1548TIP3    H226136   3.264   1.391  15.771 -0.0730  1.3959  0.7310
 1549TIP3   OH226137   1.114   4.724   2.843  0.2418 -0.0290 -0.3250
 1549TIP3    H126138   1.020   4.732   2.856  0.5317  0.4402  1.8725
 1549TIP3    H226139   1.144   4.813   2.825  0.2021 -0.2932 -1.8519
 1550TIP3   OH226140   3.769   3.190   1.504 -0.5669 -0.5907  0.2600
 1550TIP3    H126141   3.846   3.211   1.451 -0.4299 -3.1495 -0.6984
 1550TIP3    H226142   3.697   3.190   1.441 -0.7550 -1.6038  0.4644
 1551TIP3   OH226143   5.893   6.339  16.435 -0.9962  0.0185  0.3392
 1551TIP3    H126144   5.852   6.418  16.470 -2.9811 -1.1619  0.8435
 1551TIP3    H226145   5.874   6.343  16.341 -0.6889  0.3677  0.2911
 1552TIP3   OH226146   4.568   0.954   4.607  0.0739  0.2648 -0.5694
 1552TIP3    H126147   4.546   0.861   4.619  0.0619  0.2272 -0.8675
 1552TIP3    H226148   4.484   0.996   4.590 -0.0219  0.4675  0.3920
 1553TIP3   OH226149   0.473   6.616  11.773  0.0767 -0.2925  0.6424
 1553TIP3    H126150   0.511   6.697  11.737  1.8208 -0.6890  1.4829
 1553TIP3    H226151   0.487   6.551  11.704 -0.2756 -0.1437  0.4281
 1554TIP3   OH226152   2.301   1.630   4.099  0.3979 -0.2785  0.0347
 1554TIP3    H126153   2.232   1.644   4.164  0.2114 -3.2561  0.6101
 1554TIP3    H226154   2.379   1.610   4.151  1.4855  1.8785 -0.6464
 1555TIP3   OH226155   5.026   5.452  12.976  0.3122  0.1880  0.1439
 1555TIP3    H126156   5.087   5.407  12.917 -1.0839 -0.9665 -0.5088
 1555TIP3    H226157   5.062   5.540  12.986  2.1039 -0.4721 -0.1367
 1556TIP3   OH226158   1.399   1.848   2.358 -0.5811 -0.5792 -0.3372
 1556TIP3    H126159   1.489   1.819   2.372 -1.2662 -1.4808  3.0898
 1556TIP3    H226160   1.397   1.939   2.387 -0.9354 -0.8760  0.6268
 1557TIP3   OH226161   2.518   3.129  15.040 -0.0972 -0.4243 -0.2635
 1557TIP3    H126162   2.467   3.164  14.967 -0.1464  0.1913  0.0621
 1557TIP3    H226163   2.520   3.199  15.105  2.4532  0.1447 -0.8591
 1558TIP3   OH226164   2.023   5.127   5.165  0.6164  0.6154  0.1665
 1558TIP3    H126165   1.951   5.174   5.208 -0.5508  0.1580 -1.2008
 1558TIP3    H226166   2.069   5.084   5.236  0.0525  1.6083  1.1714
 1559TIP3   OH226167   0.889   6.440  13.753  0.2098  0.3057  0.2782
 1559TIP3    H126168   0.877   6.487  13.835  0.1606  0.7816  0.0047
 1559TIP3    H226169   0.896   6.509  13.687 -1.9739 -0.0790 -0.4397
 1560TIP3   OH226170   5.405   0.387   5.923 -0.2422 -0.3931  0.4707
 1560TIP3    H126171   5.376   0.419   6.008  1.9730 -0.3243  1.2635
 1560TIP3    H226172   5.452   0.306   5.943 -0.8499 -1.0990 -0.8580
 1561TIP3   OH226173   3.013   3.672   3.485 -0.3366  0.1569 -0.5192
 1561TIP3    H126174   3.072   3.667   3.560  0.0206  0.1915 -0.7967
 1561TIP3    H226175   3.061   3.722   3.420  0.5285 -2.2215 -1.8313
 1562TIP3   OH226176   5.868   3.347  15.707  0.2360 -0.1497 -0.0098
 1562TIP3    H126177   5.948   3.368  15.755  0.6344  2.2424 -1.5636
 1562TIP3    H226178   5.898   3.301  15.629  0.3040  1.7727 -1.1848
 1563TIP3   OH226179   0.367   2.638   3.092 -0.6119  0.5764 -0.3897
 1563TIP3    H126180   0.433   2.570   3.106  1.3847  2.6015  0.5938
 1563TIP3    H226181   0.290   2.606   3.139 -0.7315 -2.2236 -2.2152
 1564TIP3   OH226182   2.585   1.164   5.587 -0.6334  0.1335 -0.1320
 1564TIP3    H126183   2.572   1.246   5.539  1.0352  0.3801 -0.2073
 1564TIP3    H226184   2.680   1.154   5.592 -0.7989 -1.8939 -0.2794
 1565TIP3   OH226185   2.318   2.984   2.977  0.0896 -0.4558  0.5938
 1565TIP3    H126186   2.403   2.945   3.000  0.5059 -0.2309 -0.5292
 1565TIP3    H226187   2.339   3.076   2.958 -0.5419 -0.1998  1.1017
 1566TIP3   OH226188   5.755   4.020  15.504 -0.2245  0.3694 -0.6885
 1566TIP3    H126189   5.702   3.949  15.541  2.3870 -0.9592  0.7415
 1566TIP3    H226190   5.752   4.005  15.409 -0.7662 -0.8648 -0.4979
 1567TIP3   OH226191   3.012   2.061   2.933  0.4000  0.0673  0.2613
 1567TIP3    H126192   2.933   2.021   2.896  0.0378  1.0020  0.0110
 1567TIP3    H226193   3.062   1.986   2.968 -0.0787 -0.6434 -0.5352
 1568TIP3   OH226194   3.009   0.497   2.855  0.5655  0.2099  0.1213
 1568TIP3    H126195   2.985   0.517   2.946 -0.5806  0.0605 -0.1356
 1568TIP3    H226196   3.071   0.424   2.862 -0.7701 -0.9058  0.7146
 1569TIP3   OH226197   1.659   2.629  11.377 -0.2352  0.0310 -0.6517
 1569TIP3    H126198   1.693   2.647  11.289  0.9583 -0.0552 -0.2337
 1569TIP3    H226199   1.737   2.630  11.433 -0.9862  0.1281  0.4143
 1570TIP3   OH226200   5.034   1.708   0.396  0.3421  0.3181 -0.3088
 1570TIP3    H126201   5.027   1.787   0.341 -0.5483 -0.3761 -1.2260
 1570TIP3    H226202   5.033   1.742   0.485 -0.7092  1.3287 -0.6695
 1571TIP3   OH226203   4.598   2.412   6.015 -0.3282  0.4345  0.4287
 1571TIP3    H126204   4.562   2.371   6.093  0.4273  1.7766  1.5223
 1571TIP3    H226205   4.608   2.504   6.038 -1.0069  1.0770 -1.5938
 1572TIP3   OH226206   1.527   5.737   3.061  0.0100  0.1709  0.1941
 1572TIP3    H126207   1.609   5.722   3.107 -0.0817  2.1978  1.1158
 1572TIP3    H226208   1.459   5.707   3.121  0.0189  0.0167  0.1259
 1573TIP3   OH226209   3.030   5.465  10.944 -0.2347 -0.3707  0.5711
 1573TIP3    H126210   3.015   5.560  10.942  1.8439 -0.0027 -0.5759
 1573TIP3    H226211   2.945   5.428  10.967 -0.5978  1.8526  3.2887
 1574TIP3   OH226212   4.210   0.154   4.845 -0.5461 -0.0166  0.0493
 1574TIP3    H126213   4.301   0.167   4.818 -0.3148  1.5133  1.3894
 1574TIP3    H226214   4.159   0.198   4.777 -0.4420 -2.3647 -1.6423
 1575TIP3   OH226215   1.872   2.299  14.034  0.4225 -0.2172 -0.4298
 1575TIP3    H126216   1.935   2.260  13.974  0.2557 -0.9253 -0.1571
 1575TIP3    H226217   1.812   2.227  14.056 -0.1336  0.3014 -0.2382
 1576TIP3   OH226218   3.145   4.222  11.896 -0.1411 -0.3756  0.0959
 1576TIP3    H126219   3.088   4.241  11.821 -1.3874 -0.0888  1.0824
 1576TIP3    H226220   3.152   4.126  11.897 -1.5822 -0.5033  0.6228
 1577TIP3   OH226221   4.133   0.978   1.674 -0.2641  0.3597 -0.6431
 1577TIP3    H126222   4.058   1.037   1.678  0.9104  1.9132 -0.2091
 1577TIP3    H226223   4.146   0.962   1.580 -0.3758  1.1348 -0.7976
 1578TIP3   OH226224   1.502   0.528   4.780 -0.0327  0.0642 -0.4104
 1578TIP3    H126225   1.474   0.436   4.782 -2.4323  0.7313 -0.4421
 1578TIP3    H226226   1.523   0.544   4.688  1.4981 -0.7015 -0.2324
 1579TIP3   OH226227   1.313   3.033  12.040 -0.9003 -0.4728  0.0843
 1579TIP3    H126228   1.221   3.053  12.021 -0.5567  0.1762 -0.9616
 1579TIP3    H226229   1.309   2.973  12.115 -2.2498 -1.5358 -0.7877
 1580TIP3   OH226230   1.251   4.479   3.514  0.1128  0.1582 -0.4105
 1580TIP3    H126231   1.218   4.565   3.488  0.2208  0.0519 -0.9029
 1580TIP3    H226232   1.340   4.496   3.546 -0.7862  0.6184  2.0101
 1581TIP3   OH226233   5.804   1.820   1.030  0.0280  0.5442  0.4944
 1581TIP3    H126234   5.769   1.761   1.097  0.0243  0.2971  0.2751
 1581TIP3    H226235   5.734   1.884   1.015 -0.2422  0.1944  0.2318
 1582TIP3   OH226236   4.996   2.109  13.910  0.1299 -0.2098 -0.4692
 1582TIP3    H126237   5.039   2.036  13.866  0.2230 -0.5673  0.1907
 1582TIP3    H226238   4.940   2.067  13.976 -0.9152  0.2655 -1.0414
 1583TIP3   OH226239   1.248   1.540   3.508 -0.2867  0.2550 -0.0326
 1583TIP3    H126240   1.262   1.633   3.489  0.7944  0.5511  1.9106
 1583TIP3    H226241   1.219   1.539   3.599  0.1169 -1.3376  0.1072
 1584TIP3   OH226242   0.720   2.376  16.357  0.4536 -0.9162  0.3124
 1584TIP3    H126243   0.656   2.445  16.339  0.5700 -0.6298  0.9678
 1584TIP3    H226244   0.723   2.371  16.453  1.3396 -0.9856  0.2857
 1585TIP3   OH226245   1.118   4.574   2.285 -0.6095  0.0063  0.0476
 1585TIP3    H126246   1.121   4.549   2.378  0.3059 -0.1208 -0.0150
 1585TIP3    H226247   1.197   4.537   2.248 -0.3945  1.0477 -0.5495
 1586TIP3   OH226248   4.903   1.461  12.566  0.7895 -0.6556  0.4309
 1586TIP3    H126249   4.818   1.420  12.581  1.4306 -2.1214  0.1513
 1586TIP3    H226250   4.944   1.409  12.497  2.5328 -0.9125  1.5900
 1587TIP3   OH226251   4.601   5.535   3.794 -0.3121  0.0807  0.7146
 1587TIP3    H126252   4.650   5.610   3.826  0.6063 -0.7031  1.1876
 1587TIP3    H226253   4.662   5.462   3.799 -1.0117 -0.6070 -0.2395
 1588TIP3   OH226254   6.095   0.776   3.624 -0.1074  0.2807 -0.1819
 1588TIP3    H126255   6.019   0.730   3.587 -0.9956  0.5929  1.1797
 1588TIP3    H226256   6.131   0.825   3.550 -0.0126 -1.4028 -1.3328
 1589TIP3   OH226257   3.845   3.375  15.473  0.0232  0.6131 -0.4878
 1589TIP3    H126258   3.847   3.388  15.568 -1.3404  1.2518 -0.5333
 1589TIP3    H226259   3.904   3.442  15.438  0.1396  0.7013 -0.1235
 1590TIP3   OH226260   2.394   1.344   6.103  0.2848  0.2800  0.1626
 1590TIP3    H126261   2.322   1.281   6.104  0.5033  0.0360  0.5754
 1590TIP3    H226262   2.453   1.311   6.036 -1.0157  1.6577 -1.7814
 1591TIP3   OH226263   0.230   3.258  15.264 -0.0769 -0.1269 -0.3146
 1591TIP3    H126264   0.283   3.236  15.341  3.0432  1.2836 -1.8473
 1591TIP3    H226265   0.175   3.181  15.250 -0.2139 -0.7338  2.8316
 1592TIP3   OH226266   2.317   6.494   5.787  0.3315 -0.3654  0.2758
 1592TIP3    H126267   2.359   6.439   5.721 -0.5920  0.6490 -1.2434
 1592TIP3    H226268   2.229   6.510   5.752 -0.4861 -0.4566  2.1835
 1593TIP3   OH226269   5.100   6.672   3.663  0.5237  0.1056 -0.4476
 1593TIP3    H126270   5.069   6.596   3.711 -1.2287  0.5146 -0.8599
 1593TIP3    H226271   5.027   6.733   3.665  0.5012  0.2985 -3.2734
 1594TIP3   OH226272   6.677   4.756  15.998  0.4036 -0.3910  0.2026
 1594TIP3    H126273   6.661   4.684  16.059 -0.1954  1.1273  1.9314
 1594TIP3    H226274   6.771   4.771  16.004  0.1912  0.5176  1.7300
 1595TIP3   OH226275   2.955   6.421   2.691 -0.8095 -0.2924 -0.1316
 1595TIP3    H126276   2.992   6.391   2.774 -0.9437 -1.2434 -0.4098
 1595TIP3    H226277   2.876   6.368   2.679  0.0773 -1.3301 -1.6759
 1596TIP3   OH226278   2.785   2.114   5.460 -0.4307 -0.0024 -0.0436
 1596TIP3    H126279   2.853   2.060   5.501 -1.0390  0.2233  1.3057
 1596TIP3    H226280   2.704   2.084   5.501 -0.8375  1.5274  0.3069
 1597TIP3   OH226281   6.214   4.075   2.668 -0.0789  0.3085 -0.3954
 1597TIP3    H126282   6.259   4.019   2.604 -0.0374  0.6724 -0.6893
 1597TIP3    H226283   6.164   4.014   2.722  0.8598 -0.1187  0.0156
 1598TIP3   OH226284   2.521   5.689  13.271  0.0780  0.6357 -0.3579
 1598TIP3    H126285   2.498   5.738  13.349  2.9043  0.1327  0.8949
 1598TIP3    H226286   2.597   5.637  13.296  0.0544 -0.8375 -2.9678
 1599TIP3   OH226287   2.471   6.765  16.246 -0.0484  0.6375 -0.2718
 1599TIP3    H126288   2.386   6.769  16.290  0.2560  1.7776  0.2545
 1599TIP3    H226289   2.534   6.754  16.318  0.4106  1.9828 -0.4383
 1600TIP3   OH226290   1.540   5.579   2.298 -0.6124 -0.2183 -0.0755
 1600TIP3    H126291   1.516   5.489   2.275  0.2320 -0.3989 -0.2743
 1600TIP3    H226292   1.488   5.633   2.237  0.0803 -0.6334 -1.0661
 1601TIP3   OH226293   4.723   4.546   3.451 -0.2013 -0.1048 -0.4289
 1601TIP3    H126294   4.762   4.578   3.532  0.2725  1.0540 -1.0863
 1601TIP3    H226295   4.777   4.471   3.426  0.3342  0.2147 -0.2469
 1602TIP3   OH226296   6.138   3.368   4.044 -0.3417  0.4958  0.2589
 1602TIP3    H126297   6.096   3.419   4.114 -0.0773  0.6833  0.2807
 1602TIP3    H226298   6.075   3.298   4.026 -0.5510  0.6232  0.4713
 1603TIP3   OH226299   1.046   1.221  13.273 -0.5742  0.8564 -0.2963
 1603TIP3    H126300   0.972   1.178  13.316 -0.3843  0.2271 -0.5756
 1603TIP3    H226301   1.089   1.270  13.342  0.0146 -0.5303  0.3618
 1604TIP3   OH226302   1.512   2.769  15.514  0.1687 -0.5244 -0.1174
 1604TIP3    H126303   1.579   2.760  15.582 -0.5363 -2.7856  0.3590
 1604TIP3    H226304   1.432   2.736  15.554 -1.1462  1.5095 -0.9002
 1605TIP3   OH226305   4.124   5.958   4.074 -0.0755 -0.5621  0.0862
 1605TIP3    H126306   4.094   5.901   4.145 -1.4299  0.5655  0.4743
 1605TIP3    H226307   4.101   5.911   3.994 -0.9417 -0.6816  0.3971
 1606TIP3   OH226308   0.518   6.330  15.168  0.1313  0.0389 -0.4634
 1606TIP3    H126309   0.594   6.387  15.162 -1.7990  2.8185 -0.3651
 1606TIP3    H226310   0.464   6.353  15.092 -0.7987 -1.6191 -0.3673
 1607TIP3   OH226311   6.277   2.802   2.020  0.4331 -0.1393  0.0090
 1607TIP3    H126312   6.187   2.835   2.020  0.9072  1.1885 -0.7082
 1607TIP3    H226313   6.312   2.827   1.935  1.0556 -1.9022 -0.2925
 1608TIP3   OH226314   4.458   5.121   5.175  0.2249 -0.3787 -0.2293
 1608TIP3    H126315   4.364   5.109   5.164  0.4226 -1.6552 -0.7564
 1608TIP3    H226316   4.470   5.134   5.269 -0.4728 -0.2391 -0.1564
 1609TIP3   OH226317   4.450   1.312  11.475 -0.1946 -0.5770 -0.1452
 1609TIP3    H126318   4.530   1.314  11.528  1.2272  0.2539 -2.2047
 1609TIP3    H226319   4.385   1.269  11.532  0.7340  1.6547  2.8710
 1610TIP3   OH226320   0.627   4.111  13.885  0.1083 -0.0391  0.5188
 1610TIP3    H126321   0.684   4.168  13.834 -0.6703 -0.8802 -1.4062
 1610TIP3    H226322   0.649   4.130  13.976  0.7230  2.4106 -0.0667
 1611TIP3   OH226323   6.572   1.194   0.541 -0.8954  0.1192 -0.1389
 1611TIP3    H126324   6.503   1.231   0.595 -1.4490 -1.1647  0.0714
 1611TIP3    H226325   6.609   1.124   0.594  0.6943  0.8735 -0.1813
 1612TIP3   OH226326   2.553   0.078  15.956 -0.0597  0.7491  0.0466
 1612TIP3    H126327   2.498   0.048  16.028 -0.1549  0.4557 -0.1433
 1612TIP3    H226328   2.642   0.074  15.991 -0.0895  0.4302  0.0896
 1613TIP3   OH226329   6.649   5.580   2.442 -0.0459 -0.0475  0.3706
 1613TIP3    H126330   6.670   5.542   2.528  1.1025  0.1222  0.1873
 1613TIP3    H226331   6.553   5.578   2.438 -0.1395  0.1536  1.7557
 1614TIP3   OH226332   0.058   5.190  15.935  0.4283  0.0288  0.0869
 1614TIP3    H126333   0.120   5.261  15.920  0.5606 -0.0342  0.3268
 1614TIP3    H226334  -0.026   5.224  15.905  0.1967  0.8281  1.5837
 1615TIP3   OH226335   1.921   0.469  14.081  0.1443 -0.0799  0.0057
 1615TIP3    H126336   1.831   0.443  14.096  0.3776 -1.1813 -0.4321
 1615TIP3    H226337   1.971   0.388  14.084  0.7975  0.1889 -2.0266
 1616TIP3   OH226338   1.340   3.874   2.975  0.1043  0.6469  0.2576
 1616TIP3    H126339   1.284   3.868   3.053  0.4320 -2.6244  0.4007
 1616TIP3    H226340   1.424   3.837   3.003  0.8877  1.2770 -1.1393
 1617TIP3   OH226341   1.317   1.194  15.744  0.5551 -0.0091 -0.2189
 1617TIP3    H126342   1.339   1.178  15.652  0.9949 -1.1628  0.0639
 1617TIP3    H226343   1.225   1.222  15.742  0.8625  1.0010 -1.0807
 1618TIP3   OH226344   2.376   2.011   4.924 -0.4790  0.0668 -0.0807
 1618TIP3    H126345   2.427   1.930   4.916  0.1240  0.2254  1.6715
 1618TIP3    H226346   2.322   2.013   4.845  1.3798 -0.7078 -1.4618
 1619TIP3   OH226347   3.728   0.882   2.617 -0.8679 -0.8662  0.4251
 1619TIP3    H126348   3.818   0.902   2.593 -0.1158 -1.7040  2.3731
 1619TIP3    H226349   3.703   0.950   2.679 -1.6078 -0.6396 -0.1002
 1620TIP3   OH226350   4.859   3.751  15.752  0.0369  0.4246  0.1456
 1620TIP3    H126351   4.771   3.771  15.783  0.0006  1.0410 -0.3473
 1620TIP3    H226352   4.915   3.765  15.829 -0.5027 -2.1102  1.1298
 1621TIP3   OH226353   0.416   1.711  11.531  0.1314 -0.1873  0.4329
 1621TIP3    H126354   0.501   1.667  11.526  0.2912  0.0716  0.8324
 1621TIP3    H226355   0.426   1.789  11.477  0.2796  0.0556  0.8105
 1622TIP3   OH226356   3.870   3.070  13.948 -0.2552  0.5452 -0.0059
 1622TIP3    H126357   3.851   3.056  14.040  0.6499  1.1165  0.2833
 1622TIP3    H226358   3.785   3.073  13.905 -0.6549 -1.5145  0.5196
 1623TIP3   OH226359   0.081   4.542   2.341  0.4961 -1.3205  0.2774
 1623TIP3    H126360  -0.008   4.563   2.310  0.6151  1.6064  1.5872
 1623TIP3    H226361   0.138   4.601   2.291  1.5256 -1.9404  0.6972
 1624TIP3   OH226362   1.941   0.966  11.856 -0.3218 -0.2769  0.0203
 1624TIP3    H126363   1.922   1.013  11.775 -0.3580 -1.0840 -0.4494
 1624TIP3    H226364   1.929   1.031  11.925 -2.1136 -0.0474 -0.4699
 1625TIP3   OH226365   4.783   0.683  15.566  0.0672  0.4254 -0.4220
 1625TIP3    H126366   4.717   0.615  15.549 -1.4175  1.6552  0.1708
 1625TIP3    H226367   4.741   0.764  15.536  1.3183  1.2513  0.0032
 1626TIP3   OH226368   5.650   2.432   4.122 -0.2962 -0.0597  0.6044
 1626TIP3    H126369   5.618   2.343   4.105 -1.0069  0.4831 -1.1320
 1626TIP3    H226370   5.705   2.452   4.047  0.7933  0.5733  1.5448
 1627TIP3   OH226371   5.259   6.108  15.426  0.0571  0.6803 -0.0659
 1627TIP3    H126372   5.234   6.194  15.458  1.0570  0.7983  0.4176
 1627TIP3    H226373   5.347   6.119  15.391 -0.3661  0.1813 -1.3695
 1628TIP3   OH226374   5.881   6.321   0.806 -0.6020 -0.2632 -0.2068
 1628TIP3    H126375   5.829   6.262   0.860 -0.0463  0.1765  0.8368
 1628TIP3    H226376   5.883   6.280   0.720 -2.4459 -0.4209 -0.2078
 1629TIP3   OH226377   0.096   0.104  11.081  0.4158  0.4607 -0.3517
 1629TIP3    H126378   0.118   0.029  11.025  0.4204 -0.2807  0.6175
 1629TIP3    H226379   0.014   0.138  11.044  0.4254  0.0001 -0.8159
 1630TIP3   OH226380   5.853   0.197  13.000 -0.1177 -0.3840 -0.6601
 1630TIP3    H126381   5.902   0.150  12.933 -0.5893 -0.3364 -1.0447
 1630TIP3    H226382   5.882   0.159  13.083 -0.2666 -1.1408 -0.9462
 1631TIP3   OH226383   5.935   3.316  13.255  0.0607 -0.2291  0.3693
 1631TIP3    H126384   6.002   3.249  13.242 -0.7082 -1.4395  2.2292
 1631TIP3    H226385   5.984   3.394  13.281  0.8479 -0.6062  0.0555
 1632TIP3   OH226386   0.368   6.039  15.455  0.4880 -0.1639  0.0692
 1632TIP3    H126387   0.279   6.066  15.478 -0.7717 -3.4510 -0.4887
 1632TIP3    H226388   0.416   6.043  15.538 -0.9329 -0.9257  0.9671
 1633TIP3   OH226389   3.929   2.618  15.720  0.2102  0.6147 -0.1182
 1633TIP3    H126390   3.846   2.573  15.709  0.6789  0.0507 -1.5049
 1633TIP3    H226391   3.917   2.703  15.677  0.2372  0.6812  0.0030
 1634TIP3   OH226392   2.660   1.129   5.137 -0.0105  0.4844 -0.2693
 1634TIP3    H126393   2.603   1.053   5.127 -0.6762  0.8389  0.6773
 1634TIP3    H226394   2.715   1.109   5.213  2.0336 -0.3763 -1.8663
 1635TIP3   OH226395   2.681   2.527   1.626 -0.7117 -0.1469  0.5927
 1635TIP3    H126396   2.691   2.589   1.699  1.2104  1.2511 -0.7310
 1635TIP3    H226397   2.599   2.482   1.644 -0.5703  0.4736  3.3484
 1636TIP3   OH226398   6.371   6.639  15.971  0.5581 -0.1839 -0.4409
 1636TIP3    H126399   6.291   6.635  16.024 -0.6731 -0.6278 -2.2034
 1636TIP3    H226400   6.432   6.692  16.022 -0.5581 -0.5777  1.3584
 1637TIP3   OH226401   4.280   0.350  12.194  0.0205  0.0543  0.3270
 1637TIP3    H126402   4.278   0.426  12.251  1.1066  0.3901 -0.0582
 1637TIP3    H226403   4.222   0.286  12.236 -2.2824  1.6601 -0.2226
 1638TIP3   OH226404   2.665   3.115  15.699  0.3489  0.4879 -0.1260
 1638TIP3    H126405   2.738   3.155  15.747 -0.2602  0.7962  0.5643
 1638TIP3    H226406   2.659   3.165  15.618  1.0790  0.2738 -0.3276
 1639TIP3   OH226407   5.371   2.338   6.279 -0.1114 -0.4743  0.5135
 1639TIP3    H126408   5.444   2.349   6.340  1.2171  0.6157 -1.1602
 1639TIP3    H226409   5.349   2.246   6.284  2.5093 -1.2278 -0.0769
 1640TIP3   OH226410   1.308   6.120  11.102  0.6691  0.0723  0.1701
 1640TIP3    H126411   1.322   6.132  11.008 -0.5177  0.0665 -0.0172
 1640TIP3    H226412   1.363   6.186  11.143 -2.5455  3.6519 -0.6799
 1641TIP3   OH226413   1.168   4.858  14.931 -0.2355 -0.3096  0.4445
 1641TIP3    H126414   1.126   4.941  14.953 -0.4900  0.1483 -1.6409
 1641TIP3    H226415   1.103   4.810  14.881  0.2733 -1.3471  0.7569
 1642TIP3   OH226416   4.397   0.710   5.259 -0.0054 -0.1510 -0.0487
 1642TIP3    H126417   4.315   0.737   5.216 -1.2200 -1.0973  1.5505
 1642TIP3    H226418   4.372   0.696   5.350  2.0356 -0.2027  0.5354
 1643TIP3   OH226419   2.894   6.355  11.995 -0.0360 -0.2390 -0.6427
 1643TIP3    H126420   2.897   6.280  11.935 -0.2532 -0.2808 -0.6030
 1643TIP3    H226421   2.949   6.422  11.953 -1.8606  0.5154 -1.9521
 1644TIP3   OH226422   3.865   0.169  17.223  0.2479 -0.0324  0.4625
 1644TIP3    H126423   3.895   0.102  17.162 -0.4088 -0.3100  0.4372
 1644TIP3    H226424   3.853   0.247  17.169  1.6050  0.2892  0.6000
 1645TIP3   OH226425   5.583   6.680   4.878  0.6149  0.6034  0.0034
 1645TIP3    H126426   5.595   6.723   4.962 -1.7094  0.1137  0.6778
 1645TIP3    H226427   5.530   6.741   4.826  0.3343  0.0639 -0.3574
 1646TIP3   OH226428   1.892   5.008  15.354  0.1393 -0.2009  0.4762
 1646TIP3    H126429   1.934   5.078  15.303 -0.2485  0.3350  0.8739
 1646TIP3    H226430   1.815   4.985  15.304 -1.1406  1.4581  1.5528
 1647TIP3   OH226431   3.598   2.720  11.763 -0.2292 -0.7742  0.2571
 1647TIP3    H126432   3.591   2.625  11.755 -0.1844 -0.6349 -2.0020
 1647TIP3    H226433   3.683   2.741  11.724  0.9715  0.0169  3.0373
 1648TIP3   OH226434   5.454   2.640   6.428  0.3846 -0.0310  0.2829
 1648TIP3    H126435   5.507   2.597   6.362  3.0799  2.3000  0.7440
 1648TIP3    H226436   5.485   2.605   6.511 -0.7963 -0.6743  0.4681
 1649TIP3   OH226437   6.657   3.495   4.586 -0.3846 -0.5187 -0.5153
 1649TIP3    H126438   6.632   3.577   4.628  3.1208  0.0886  0.7197
 1649TIP3    H226439   6.708   3.522   4.510 -0.7203 -1.5867 -1.1363
 1650TIP3   OH226440   5.855   3.473   1.131  0.2910  0.0338  0.1637
 1650TIP3    H126441   5.827   3.384   1.153  1.5450 -0.1156  1.2951
 1650TIP3    H226442   5.887   3.467   1.042 -0.4099 -0.4576 -0.0635
 1651TIP3   OH226443   5.171   3.611  14.756 -0.0160 -0.4035 -0.1013
 1651TIP3    H126444   5.134   3.564  14.831 -1.3692  0.5846 -0.1295
 1651TIP3    H226445   5.099   3.620  14.695  0.5610  0.5600 -0.6687
 1652TIP3   OH226446   0.985   0.512   3.161 -0.2164 -0.5356 -0.5027
 1652TIP3    H126447   0.904   0.529   3.209 -0.5020 -0.2705 -1.0737
 1652TIP3    H226448   0.961   0.522   3.069  0.7736  0.9124 -0.6322
 1653TIP3   OH226449   2.652   6.575  16.148  0.1762  0.2900  0.0871
 1653TIP3    H126450   2.707   6.581  16.226 -1.6826 -2.0310  1.7156
 1653TIP3    H226451   2.568   6.612  16.174 -1.1985 -2.5456  0.0735
 1654TIP3   OH226452   6.356   0.744  12.932  0.5669 -0.5059  0.0281
 1654TIP3    H126453   6.299   0.815  12.903  0.9148  0.2011  1.0039
 1654TIP3    H226454   6.303   0.665  12.924  0.6505 -0.3727 -2.4652
 1655TIP3   OH226455   2.697   0.770   1.183 -0.6062  0.2432 -0.5360
 1655TIP3    H126456   2.789   0.763   1.206 -0.4914  0.7490 -0.8427
 1655TIP3    H226457   2.654   0.702   1.237 -0.1780  0.5628  0.2266
 1656TIP3   OH226458   0.299   1.209  12.551  0.0745  0.5830 -0.0321
 1656TIP3    H126459   0.371   1.147  12.564 -1.0154 -0.5763  0.6411
 1656TIP3    H226460   0.220   1.159  12.567 -0.9015  1.9063 -0.4796
 1657TIP3   OH226461   6.755   4.508   5.477  0.4542  1.0509  0.1891
 1657TIP3    H126462   6.750   4.449   5.402  0.8224  1.2221  0.0271
 1657TIP3    H226463   6.843   4.494   5.512  0.9221  2.2453 -0.4583
 1658TIP3   OH226464   2.367   5.406   2.822  0.4448  0.5247 -0.0147
 1658TIP3    H126465   2.399   5.461   2.750  0.6273 -1.1178 -1.2386
 1658TIP3    H226466   2.274   5.393   2.801  0.1629  1.1232  0.7986
 1659TIP3   OH226467   1.388   3.495   5.544  0.5974 -0.5347  0.3521
 1659TIP3    H126468   1.425   3.525   5.461  0.6750 -2.1759 -0.2603
 1659TIP3    H226469   1.294   3.488   5.526  0.7311 -1.8704  0.0310
 1660TIP3   OH226470   1.861   6.391   1.289 -0.8082  0.7513 -0.0210
 1660TIP3    H126471   1.823   6.305   1.309 -0.3065  0.2335 -1.1908
 1660TIP3    H226472   1.832   6.410   1.200  2.9263 -0.4850 -1.7431
 1661TIP3   OH226473   2.820   1.115   0.431  0.3923  0.1637 -0.2896
 1661TIP3    H126474   2.772   1.054   0.374  0.0122 -0.7310  0.9579
 1661TIP3    H226475   2.910   1.112   0.399  0.2660 -0.6324 -0.5974
 1662TIP3   OH226476   6.118   2.145   1.127 -0.5600  0.2402  0.2964
 1662TIP3    H126477   6.117   2.051   1.146 -1.0056  0.3430  0.8037
 1662TIP3    H226478   6.038   2.178   1.168 -1.0651  0.6298 -0.9762
 1663TIP3   OH226479   4.446   5.697   2.947  0.7848  0.2080  0.5223
 1663TIP3    H126480   4.514   5.756   2.979  0.0254  1.0567  0.6151
 1663TIP3    H226481   4.428   5.639   3.021  2.3029 -0.8770  0.0739
 1664TIP3   OH226482   4.871   5.411   1.190  0.0152 -0.2465  0.0906
 1664TIP3    H126483   4.810   5.481   1.213 -0.1187 -0.6570  1.0100
 1664TIP3    H226484   4.869   5.352   1.264  0.1820 -1.1986 -0.6451
 1665TIP3   OH226485   0.711   5.815   5.359 -0.5135 -0.3397  0.0515
 1665TIP3    H126486   0.761   5.779   5.432  0.0369  0.2568 -0.0148
 1665TIP3    H226487   0.620   5.809   5.386 -0.2539  1.1234  1.4038
 1666TIP3   OH226488   3.491   2.532  15.905  0.2918 -0.1058 -0.1639
 1666TIP3    H126489   3.492   2.509  15.998 -3.0621 -0.3569 -0.0834
 1666TIP3    H226490   3.424   2.599  15.897 -0.2648 -0.8461 -2.5183
 1667TIP3   OH226491   6.451   4.917   6.096  0.0267  0.6724 -0.1365
 1667TIP3    H126492   6.456   4.949   6.006 -1.8953  0.3110 -0.4126
 1667TIP3    H226493   6.487   4.828   6.092 -0.1057  0.6363 -0.5452
 1668TIP3   OH226494   5.116   3.639   5.033  0.1626  0.7876 -0.2326
 1668TIP3    H126495   5.150   3.607   5.117  1.8199 -0.0914 -1.1819
 1668TIP3    H226496   5.132   3.567   4.972 -2.6165  0.7137 -0.9917
 1669TIP3   OH226497   4.698   1.692   5.401  0.2509  0.2582 -0.8195
 1669TIP3    H126498   4.625   1.749   5.374 -0.7022 -0.2489  0.5837
 1669TIP3    H226499   4.656   1.620   5.448  1.7313  0.7202  1.3464
 1670TIP3   OH226500   1.122   3.790  16.295 -0.4119  0.9151 -0.0704
 1670TIP3    H126501   1.028   3.802  16.306 -0.4334  0.9184 -0.2486
 1670TIP3    H226502   1.139   3.817  16.205 -0.0326  2.1199  0.3478
 1671TIP3   OH226503   2.113   1.027  17.021 -0.1669  0.1388 -0.2710
 1671TIP3    H126504   2.197   1.063  16.994  0.4181 -0.5687  0.5488
 1671TIP3    H226505   2.135   0.961  17.086 -1.2028 -1.7245 -1.7261
 1672TIP3   OH226506   6.188   5.728  12.892 -0.0529 -0.1860 -0.4601
 1672TIP3    H126507   6.118   5.662  12.892  0.8522 -1.2359  1.5008
 1672TIP3    H226508   6.254   5.693  12.832  0.3197 -0.9858  0.3943
 1673TIP3   OH226509   2.408   5.985  16.636 -0.0008  0.5407 -0.5678
 1673TIP3    H126510   2.498   5.986  16.670 -0.3845 -1.8808  0.7540
 1673TIP3    H226511   2.355   6.023  16.706 -0.4027 -1.6087  0.4007
 1674TIP3   OH226512   3.881   2.118  11.019 -0.0751  0.2201  0.1319
 1674TIP3    H126513   3.977   2.121  11.013 -0.0610 -0.8478 -0.5631
 1674TIP3    H226514   3.852   2.197  10.974  0.4835  0.9016  0.9319
 1675TIP3   OH226515   3.754   4.797   4.602  0.0520  0.1490 -0.2362
 1675TIP3    H126516   3.770   4.745   4.681 -1.1480 -1.3882 -0.9468
 1675TIP3    H226517   3.756   4.734   4.531 -1.3078  1.0830 -1.1655
 1676TIP3   OH226518   5.114   3.029  14.852  0.5659 -0.1104 -0.6290
 1676TIP3    H126519   5.034   3.058  14.896  1.4298 -1.1233  1.7355
 1676TIP3    H226520   5.084   2.966  14.787 -0.6149  0.1615 -0.3729
 1677TIP3   OH226521   4.113   5.975  11.888  0.3028 -0.1118  0.1297
 1677TIP3    H126522   4.158   5.920  11.824 -1.9605  0.3558 -2.0529
 1677TIP3    H226523   4.020   5.951  11.879 -0.3428  1.5688  1.6642
 1678TIP3   OH226524   2.366   4.891  13.444  0.2019 -0.0673 -0.2475
 1678TIP3    H126525   2.399   4.913  13.357  1.1407 -0.5316 -0.0224
 1678TIP3    H226526   2.426   4.824  13.476 -0.8801 -0.8348  0.2498
 1679TIP3   OH226527   0.140   4.202  16.982  0.0854 -0.6827 -0.2548
 1679TIP3    H126528   0.134   4.181  17.075  1.6412 -0.0181  0.0233
 1679TIP3    H226529   0.100   4.126  16.938  0.2430 -1.4740  0.9147
 1680TIP3   OH226530   4.736   2.472  16.766 -0.2348 -0.0940  0.1760
 1680TIP3    H126531   4.681   2.408  16.810 -0.3753 -0.3189 -0.3198
 1680TIP3    H226532   4.683   2.552  16.763  0.2518  0.3146  1.5418
 1681TIP3   OH226533   3.711   0.685  14.713  0.4046  0.2120  0.1700
 1681TIP3    H126534   3.779   0.669  14.778 -1.4543 -1.2315  1.8991
 1681TIP3    H226535   3.711   0.607  14.658 -0.3767 -0.1910  0.7197
 1682TIP3   OH226536   1.926   5.951   2.588 -0.1553  0.1032 -0.4450
 1682TIP3    H126537   1.887   6.029   2.548  1.2734  0.9430 -0.2945
 1682TIP3    H226538   2.013   5.945   2.548 -0.4183 -1.7070 -0.7950
 1683TIP3   OH226539   0.949   2.657   1.549  0.3811  0.4002  0.0826
 1683TIP3    H126540   0.905   2.730   1.507  0.5512  0.3054 -0.2619
 1683TIP3    H226541   0.879   2.605   1.588  0.2520  0.6839  0.2338
 1684TIP3   OH226542   2.970   5.598  11.352  0.8714  0.2318  0.3368
 1684TIP3    H126543   2.971   5.666  11.285 -0.2109 -0.3117 -0.2586
 1684TIP3    H226544   3.055   5.556  11.346  0.2611 -0.8197 -1.7881
 1685TIP3   OH226545   5.345   0.550   5.509  0.7259  0.1281 -0.2281
 1685TIP3    H126546   5.351   0.494   5.431 -0.2142  1.8657 -1.6358
 1685TIP3    H226547   5.328   0.489   5.581  2.0619 -1.5869 -1.2727
 1686TIP3   OH226548   3.049   0.713   0.659 -0.3957 -0.0723 -0.0266
 1686TIP3    H126549   3.108   0.709   0.584 -0.0524 -0.7191  0.2680
 1686TIP3    H226550   3.000   0.794   0.647 -0.3179 -0.1486 -0.9234
 1687TIP3   OH226551   1.588   5.405   1.211 -0.4702 -0.1264  0.7205
 1687TIP3    H126552   1.572   5.396   1.305 -1.8022  0.4502  0.5676
 1687TIP3    H226553   1.504   5.431   1.174  0.2215  0.4546 -0.5321
 1688TIP3   OH226554   5.252   5.846  15.349  0.5795 -0.0257 -0.6097
 1688TIP3    H126555   5.279   5.864  15.259  0.8509 -0.4918 -0.6215
 1688TIP3    H226556   5.243   5.933  15.389  0.2638  0.1859 -1.1404
 1689TIP3   OH226557   5.608   3.531   1.434  0.1659 -0.0044 -0.7565
 1689TIP3    H126558   5.559   3.477   1.496 -1.1067  0.4667 -1.3374
 1689TIP3    H226559   5.675   3.472   1.399  0.4841 -0.4551  0.5627
 1690TIP3   OH226560   0.988   3.692   1.571 -0.4194 -0.2526  0.9722
 1690TIP3    H126561   1.033   3.656   1.495 -1.9871 -0.1619 -0.0545
 1690TIP3    H226562   0.913   3.635   1.584 -1.3900  0.9859  1.0731
 1691TIP3   OH226563   6.390   4.684  15.159  0.2114 -1.0485  0.2199
 1691TIP3    H126564   6.325   4.741  15.200  2.2307  1.6379 -0.0577
 1691TIP3    H226565   6.341   4.605  15.135 -2.6631  0.3674  0.9946
 1692TIP3   OH226566   1.722   4.452  15.526  0.0449 -0.0474 -0.0775
 1692TIP3    H126567   1.721   4.397  15.448  0.6553  1.1135 -0.9341
 1692TIP3    H226568   1.633   4.486  15.531 -0.5215 -1.5541  0.8216
 1693TIP3   OH226569   1.243   4.148  15.804  0.3988 -0.3634 -0.2202
 1693TIP3    H126570   1.193   4.088  15.859  0.9055 -1.1451 -0.5848
 1693TIP3    H226571   1.179   4.209  15.769  0.0108 -0.0989  0.9199
 1694TIP3   OH226572   0.656   1.479  14.500 -0.7025 -0.5367  0.3162
 1694TIP3    H126573   0.579   1.456  14.552  0.7467 -2.4194  1.7601
 1694TIP3    H226574   0.729   1.474  14.562  0.5731  1.6965 -0.8825
 1695TIP3   OH226575   2.697   0.513   5.128 -0.0105 -0.1196 -0.3067
 1695TIP3    H126576   2.609   0.514   5.165  0.8126  0.8983  1.7867
 1695TIP3    H226577   2.753   0.482   5.200  1.4221 -0.0759 -1.3618
 1696TIP3   OH226578   4.159   5.326  11.273  0.5599  0.4786 -0.4443
 1696TIP3    H126579   4.241   5.309  11.320  0.5592 -0.3579 -0.7188
 1696TIP3    H226580   4.186   5.360  11.188  0.5709  1.6637  0.0226
 1697TIP3   OH226581   0.724   6.258  17.109 -0.3716 -0.0348 -0.1508
 1697TIP3    H126582   0.744   6.200  17.182  0.3673 -0.2158 -0.4844
 1697TIP3    H226583   0.810   6.283  17.074 -0.7017  0.5018 -0.6025
 1698TIP3   OH226584   0.480   3.017   2.147  0.4785 -0.1785 -0.1536
 1698TIP3    H126585   0.492   2.960   2.223  0.5790 -0.3951 -0.3332
 1698TIP3    H226586   0.450   2.959   2.077 -1.1585  0.2582  0.1430
 1699TIP3   OH226587   3.711   0.023  12.568  0.2967 -0.2150  0.0111
 1699TIP3    H126588   3.747   0.022  12.657 -0.1547  1.2605  0.2436
 1699TIP3    H226589   3.709   0.116  12.544 -1.1327 -0.4410 -0.8896
 1700TIP3   OH226590   3.342   4.265  15.290 -0.0236 -0.1286  0.5458
 1700TIP3    H126591   3.420   4.252  15.344  0.2481  0.8450  0.3979
 1700TIP3    H226592   3.302   4.344  15.325  1.1202  1.5897 -1.7668
 1701TIP3   OH226593   3.377   6.394   5.892 -0.2356  0.2298  0.1728
 1701TIP3    H126594   3.375   6.406   5.987 -0.7183  1.6724  0.0102
 1701TIP3    H226595   3.287   6.412   5.864 -0.4824 -1.7285 -0.4176
 1702TIP3   OH226596   6.650   1.920   3.405 -0.0908 -0.4742  0.3742
 1702TIP3    H126597   6.674   1.883   3.490  0.3785 -3.3637 -0.8651
 1702TIP3    H226598   6.702   2.000   3.398 -0.0736 -0.2015  2.7267
 1703TIP3   OH226599   1.841   2.336  15.658 -0.1410 -0.5022  0.2393
 1703TIP3    H126600   1.850   2.359  15.566 -0.1280 -0.9200  0.1328
 1703TIP3    H226601   1.894   2.401  15.704 -1.2354  0.5475  0.0726
 1704TIP3   OH226602   4.280   2.933  13.430 -0.5299 -0.2102 -0.0179
 1704TIP3    H126603   4.319   2.847  13.447  0.5319 -0.3068 -2.5184
 1704TIP3    H226604   4.352   2.995  13.441 -0.1964 -0.1287 -2.2089
 1705TIP3   OH226605   1.071   4.309   0.113 -0.0964  0.3644  0.6002
 1705TIP3    H126606   1.012   4.385   0.113  0.9548  1.2170 -0.4441
 1705TIP3    H226607   1.035   4.250   0.047  0.1573  0.8440  0.0268
 1706TIP3   OH226608   3.749   0.662   3.330 -0.0301  0.1446  0.3938
 1706TIP3    H126609   3.836   0.689   3.359 -0.0894  2.9804 -1.6738
 1706TIP3    H226610   3.765   0.612   3.249 -0.2914  0.3585  0.2076
 1707TIP3   OH226611   4.116   6.502  15.453 -0.5787  0.2487  0.1366
 1707TIP3    H126612   4.200   6.457  15.462 -0.8910 -0.3693  0.0068
 1707TIP3    H226613   4.069   6.481  15.534 -0.8188  0.1430 -0.0295
 1708TIP3   OH226614   4.777   6.059   0.584 -0.2795  0.2823 -0.0739
 1708TIP3    H126615   4.716   6.088   0.651  1.0094  0.5344  1.0315
 1708TIP3    H226616   4.733   6.079   0.501 -0.8997  2.1743  0.6613
 1709TIP3   OH226617   2.190   0.059   6.281 -0.0399 -0.1787 -0.2402
 1709TIP3    H126618   2.277   0.090   6.254  0.1806  0.0426  0.6528
 1709TIP3    H226619   2.153   0.018   6.204  1.4730 -1.6279 -0.2480
 1710TIP3   OH226620   4.158   1.197  12.980  0.5826  0.1889  0.2092
 1710TIP3    H126621   4.098   1.123  12.983  0.1028  0.3875 -2.1748
 1710TIP3    H226622   4.148   1.240  13.065 -0.4541 -1.4462  0.9550
 1711TIP3   OH226623   4.763   6.178   3.344 -0.4677  0.1150  0.2758
 1711TIP3    H126624   4.737   6.264   3.312 -1.1343  0.0867  0.7127
 1711TIP3    H226625   4.849   6.191   3.384 -0.0416  0.3337 -0.6794
 1712TIP3   OH226626   3.412   3.131  15.474 -0.3933 -0.6482  0.0733
 1712TIP3    H126627   3.365   3.096  15.398 -0.0797  0.4285 -0.6338
 1712TIP3    H226628   3.503   3.109  15.457  0.1299  2.2721 -1.4638
 1713TIP3   OH226629   6.020   6.312   3.259  0.1902 -0.1076  0.2434
 1713TIP3    H126630   5.931   6.278   3.276 -1.1313  2.0405 -1.8032
 1713TIP3    H226631   6.035   6.376   3.329 -0.0697 -0.1224  0.3148
 1714TIP3   OH226632   5.523   5.425  14.952 -0.6421 -1.0069 -0.5750
 1714TIP3    H126633   5.502   5.399  14.863 -1.5457  0.2378 -0.7545
 1714TIP3    H226634   5.489   5.514  14.960 -2.3593 -1.7589  1.5878
 1715TIP3   OH226635   6.658   1.494  16.395 -0.0520 -0.7230 -1.5840
 1715TIP3    H126636   6.680   1.406  16.425  1.0224 -0.2458 -0.9366
 1715TIP3    H226637   6.564   1.501  16.410  0.2542 -0.8832  0.7707
 1716TIP3   OH226638   4.026   2.887  12.229 -0.4206  0.2965  0.0371
 1716TIP3    H126639   4.089   2.936  12.282 -0.4283 -2.4894  2.9348
 1716TIP3    H226640   4.079   2.843  12.163  0.4701 -0.5673  1.2906
 1717TIP3   OH226641   2.261   0.607  16.504 -0.4119 -0.1538 -0.6772
 1717TIP3    H126642   2.208   0.687  16.502  0.7021  0.8914  3.0220
 1717TIP3    H226643   2.350   0.637  16.483 -0.0485 -0.4661  0.3720
 1718TIP3   OH226644   2.108   0.710   4.776 -0.2028 -0.2736 -0.0437
 1718TIP3    H126645   2.040   0.677   4.717 -0.7516  0.0438  0.4055
 1718TIP3    H226646   2.185   0.722   4.720 -0.7581  0.1485 -0.7226
 1719TIP3   OH226647   0.958   2.696  13.502  0.1637  0.5388 -0.1304
 1719TIP3    H126648   1.027   2.672  13.563  0.5956  0.8511 -0.4939
 1719TIP3    H226649   0.917   2.613  13.478 -0.8291  0.4905  1.5205
 1720TIP3   OH226650   0.184   1.806  13.179  0.1394 -0.4989 -0.2036
 1720TIP3    H126651   0.275   1.786  13.155  0.9046 -0.1742  2.1402
 1720TIP3    H226652   0.192   1.852  13.262 -2.1495  0.4500 -0.4557
 1721TIP3   OH226653   2.688   6.339   5.359  0.2262 -0.1937 -0.1106
 1721TIP3    H126654   2.633   6.364   5.433 -0.8170 -0.3353 -0.8128
 1721TIP3    H226655   2.736   6.419   5.336  0.7659 -0.2270  0.8793
 1722TIP3   OH226656   2.960   1.523  16.494 -0.2401 -0.1715 -0.4434
 1722TIP3    H126657   2.930   1.452  16.551  0.5910 -0.1992 -0.0181
 1722TIP3    H226658   2.957   1.601  16.550 -1.1767  0.1433 -0.9187
 1723TIP3   OH226659   0.897   6.790   5.598 -0.5022 -0.2351  0.4826
 1723TIP3    H126660   0.965   6.728   5.572  0.9845  0.8925  1.5261
 1723TIP3    H226661   0.851   6.746   5.670  0.2382 -0.3391  0.9063
 1724TIP3   OH226662   6.157   4.250  12.760 -0.1784 -0.0811 -0.1481
 1724TIP3    H126663   6.110   4.332  12.747 -2.6766 -1.1547  1.3087
 1724TIP3    H226664   6.245   4.267  12.727 -0.7152  3.0232 -0.2849
 1725TIP3   OH226665   4.664   2.516   4.699 -0.1723 -0.4468 -0.2405
 1725TIP3    H126666   4.692   2.450   4.762 -0.0438  0.4255  0.6431
 1725TIP3    H226667   4.742   2.570   4.684 -0.4906  0.0065 -0.3021
 1726TIP3   OH226668   0.628   2.297   1.831  0.4464  0.1585 -0.0948
 1726TIP3    H126669   0.684   2.287   1.907  1.5027 -0.6437 -0.9522
 1726TIP3    H226670   0.620   2.209   1.795 -0.2279  0.4898 -0.7856
 1727TIP3   OH226671   4.539   3.898   3.011 -0.1690  0.2883  0.2880
 1727TIP3    H126672   4.495   3.840   3.073 -1.8255  1.3873  0.1979
 1727TIP3    H226673   4.565   3.973   3.064 -1.6301  1.2499 -0.3230
 1728TIP3   OH226674   3.208   5.969  12.656  0.2619 -0.1815 -0.2571
 1728TIP3    H126675   3.262   6.040  12.691  0.4700 -0.6402  0.3786
 1728TIP3    H226676   3.135   5.961  12.717  0.9568 -1.4005  0.4714
 1729TIP3   OH226677   3.000   3.763   5.017  0.0523  0.4382  0.2081
 1729TIP3    H126678   3.007   3.725   5.104  0.3973 -0.7844 -0.3343
 1729TIP3    H226679   2.921   3.724   4.980  1.1282 -0.8314 -0.8474
 1730TIP3   OH226680   2.444   0.404  15.029  0.0787 -0.6993 -0.6313
 1730TIP3    H126681   2.361   0.376  14.991 -0.3172 -0.0640 -0.2584
 1730TIP3    H226682   2.446   0.361  15.115  0.5422 -1.3957 -0.9787
 1731TIP3   OH226683   5.822   0.836   3.901 -0.4689 -0.1784 -0.1980
 1731TIP3    H126684   5.909   0.835   3.942 -0.0997 -0.0372 -0.9712
 1731TIP3    H226685   5.763   0.861   3.973 -0.2153 -2.5529  0.9426
 1732TIP3   OH226686   2.269   0.239  14.214 -0.2065  0.0406 -0.3314
 1732TIP3    H126687   2.320   0.164  14.184 -1.2570 -0.4939 -0.8537
 1732TIP3    H226688   2.196   0.245  14.151 -0.7507  0.8172  0.3453
 1733TIP3   OH226689   1.482   2.110   4.318 -0.1419  0.0882  0.4334
 1733TIP3    H126690   1.529   2.152   4.246  1.6944 -1.9473  0.3361
 1733TIP3    H226691   1.545   2.108   4.390 -1.1968  0.1033  1.3889
 1734TIP3   OH226692   2.791   1.297   3.642 -0.0358 -0.1749  0.4873
 1734TIP3    H126693   2.885   1.286   3.624 -0.2117  0.5830 -0.9966
 1734TIP3    H226694   2.788   1.360   3.714  0.5823  0.8950 -0.3938
 1735TIP3   OH226695   4.155   3.895   4.747 -0.4713 -0.5463 -0.0927
 1735TIP3    H126696   4.092   3.946   4.797  0.0742 -0.3758  0.4334
 1735TIP3    H226697   4.104   3.854   4.678 -0.8572  1.1107 -0.8459
 1736TIP3   OH226698   1.681   5.125  10.471 -0.2147 -0.4842  0.0528
 1736TIP3    H126699   1.610   5.078  10.514 -1.3926  2.7107  2.0094
 1736TIP3    H226700   1.636   5.193  10.419  1.3295  1.1764  0.7582
 1737TIP3   OH226701   5.357   6.345   3.330 -0.4505 -0.1364  0.4849
 1737TIP3    H126702   5.307   6.301   3.262  2.3275 -0.7594 -1.2976
 1737TIP3    H226703   5.343   6.438   3.314 -1.3140 -0.2927  0.2920
 1738TIP3   OH226704   3.404   4.674   2.017  0.8415  0.7388 -0.4233
 1738TIP3    H126705   3.457   4.595   2.034  0.3698  0.7791  1.5119
 1738TIP3    H226706   3.437   4.739   2.079 -0.5743  1.1786 -0.0818
 1739TIP3   OH226707   5.200   5.138  15.365  0.4108  0.1809 -0.2365
 1739TIP3    H126708   5.275   5.164  15.419  0.1261  0.4186  0.0505
 1739TIP3    H226709   5.220   5.049  15.337 -0.1464 -0.5613  1.5648
 1740TIP3   OH226710   5.799   5.992   0.226  0.2223 -0.6925  0.4879
 1740TIP3    H126711   5.828   5.962   0.140 -0.7657 -0.0601 -0.0855
 1740TIP3    H226712   5.816   6.086   0.226 -0.4315 -0.5712  0.7040
 1741TIP3   OH226713   4.866   1.753   2.989 -0.0124  0.0106  0.1307
 1741TIP3    H126714   4.814   1.808   3.048 -1.4576  0.2870 -1.3010
 1741TIP3    H226715   4.953   1.793   2.988 -0.1646  0.4225  1.4812
 1742TIP3   OH226716   4.505   2.444   3.959  1.1319  0.5878  0.0543
 1742TIP3    H126717   4.573   2.510   3.969 -0.6077  2.4406  0.4762
 1742TIP3    H226718   4.423   2.491   3.978 -0.2106 -1.6995  0.3512
 1743TIP3   OH226719   5.690   4.887  14.663  0.2493 -0.5558 -0.0254
 1743TIP3    H126720   5.707   4.889  14.758 -2.0781 -0.9211  0.4629
 1743TIP3    H226721   5.661   4.797  14.646 -1.3672  0.0552 -0.6575
 1744TIP3   OH226722   1.134   6.401  12.801  0.2551  0.5822  0.0820
 1744TIP3    H126723   1.074   6.400  12.876 -0.4327  1.4442 -0.4395
 1744TIP3    H226724   1.111   6.480  12.753 -0.2776 -0.6857 -1.8354
 1745TIP3   OH226725   6.095   1.104  11.674  0.6064  0.3294 -0.0142
 1745TIP3    H126726   6.118   1.156  11.752  1.8707 -0.9233  0.4869
 1745TIP3    H226727   6.174   1.055  11.654  0.4554  0.9180 -2.3770
 1746TIP3   OH226728   0.117   5.025   5.692 -0.3786  0.2818 -0.3909
 1746TIP3    H126729   0.048   5.091   5.700 -0.2705  0.2885  0.6538
 1746TIP3    H226730   0.170   5.055   5.618  0.2913  1.9766  0.6916
 1747TIP3   OH226731   4.458   4.055  16.288 -0.1768 -0.1976  0.5624
 1747TIP3    H126732   4.521   3.984  16.276 -1.1666 -0.7100 -2.8271
 1747TIP3    H226733   4.509   4.135  16.278  0.6653 -0.3868  2.7681
 1748TIP3   OH226734   3.777   5.918   5.701  0.4119 -0.3986 -0.4461
 1748TIP3    H126735   3.833   5.983   5.743  0.1910 -0.6026  0.1711
 1748TIP3    H226736   3.758   5.955   5.615  1.4133 -0.2833 -0.6234
 1749TIP3   OH226737   5.023   3.086   4.286  0.0890  0.2727 -0.3122
 1749TIP3    H126738   5.081   3.119   4.354  1.0005  0.1836 -1.0341
 1749TIP3    H226739   5.081   3.051   4.219 -0.7453  1.3446 -1.6569
 1750TIP3   OH226740   5.075   0.044   5.454 -0.0426 -0.1645 -0.0836
 1750TIP3    H126741   5.075   0.139   5.470  0.0394 -0.4837  2.0768
 1750TIP3    H226742   4.991   0.014   5.488  0.0936 -0.9327 -0.4156
 1751TIP3   OH226743   1.223   1.213  11.372  0.3352 -0.6146 -0.4295
 1751TIP3    H126744   1.149   1.273  11.375  1.4828  0.8167  0.7911
 1751TIP3    H226745   1.183   1.127  11.355 -1.6397  0.0353  0.5836
 1752TIP3   OH226746   1.554   6.467   0.831  0.5513 -0.1773  0.0216
 1752TIP3    H126747   1.523   6.554   0.856 -0.4393 -0.2643 -0.8637
 1752TIP3    H226748   1.527   6.456   0.740  1.5110 -1.0385 -0.1862
 1753TIP3   OH226749   4.741   0.650  12.441 -0.0637  0.2512  0.7331
 1753TIP3    H126750   4.796   0.715  12.396  0.9356 -1.0847 -0.0767
 1753TIP3    H226751   4.758   0.664  12.534  2.2512 -0.5635  0.4888
 1754TIP3   OH226752   2.530   4.992  15.463 -0.5142  0.2635 -0.0533
 1754TIP3    H126753   2.473   4.923  15.498 -0.9404  1.6892  2.2386
 1754TIP3    H226754   2.470   5.055  15.423 -0.3401  0.5790  0.1806
 1755TIP3   OH226755   4.035   5.953  15.804 -0.0584  0.1968 -0.0797
 1755TIP3    H126756   3.970   5.962  15.874  0.7307 -1.4894  0.9288
 1755TIP3    H226757   4.105   6.014  15.828 -0.6541  1.0419 -0.4575
 1756TIP3   OH226758   0.793   0.391   1.016 -0.0909 -0.2893 -0.3543
 1756TIP3    H126759   0.875   0.418   1.058  0.4711  2.0406 -2.6724
 1756TIP3    H226760   0.789   0.296   1.030  2.1583 -0.2270  1.2158
 1757TIP3   OH226761   0.865   4.284   1.475  0.7587 -0.6362 -0.3121
 1757TIP3    H126762   0.848   4.267   1.382  0.9035  0.8045 -0.6302
 1757TIP3    H226763   0.840   4.375   1.487 -1.8714 -1.5276  1.7247
 1758TIP3   OH226764   0.079   0.873   4.360  0.0027 -0.0879  0.0629
 1758TIP3    H126765   0.166   0.833   4.361  0.8128  1.6104  0.9421
 1758TIP3    H226766   0.057   0.880   4.267 -0.1341 -2.4072 -0.1328
 1759TIP3   OH226767   1.439   3.757   0.090  0.4640 -0.5084 -0.3461
 1759TIP3    H126768   1.416   3.757   0.183  0.4166 -2.0054 -0.3324
 1759TIP3    H226769   1.469   3.668   0.073  0.0075 -0.3946 -1.8831
 1760TIP3   OH226770   6.170   6.179  16.241  0.4460  0.8597 -0.1138
 1760TIP3    H126771   6.204   6.202  16.155  0.1181  1.1659 -0.1639
 1760TIP3    H226772   6.085   6.222  16.246  0.1090  0.1850  0.0544
 1761TIP3   OH226773   4.333   3.886   2.799 -0.2695  0.1229  0.0544
 1761TIP3    H126774   4.391   3.886   2.876 -1.1007  2.7148  0.7883
 1761TIP3    H226775   4.248   3.861   2.834 -0.5673  0.9517 -0.0381
 1762TIP3   OH226776   3.759   2.798   6.317  0.1769  0.0458  0.0134
 1762TIP3    H126777   3.852   2.791   6.297  0.1567  1.4184 -0.6952
 1762TIP3    H226778   3.743   2.729   6.381  1.8706  0.3865  0.8529
 1763TIP3   OH226779   1.237   4.570  15.171 -0.4734  0.3554 -0.1956
 1763TIP3    H126780   1.221   4.525  15.088  0.0831 -0.1750 -0.0212
 1763TIP3    H226781   1.202   4.510  15.238  1.7932 -0.6478  0.1641
 1764TIP3   OH226782   3.165   5.829   4.572  0.5536 -0.2294  0.0459
 1764TIP3    H126783   3.121   5.790   4.496  0.4719 -0.7351  0.3435
 1764TIP3    H226784   3.110   5.904   4.596  0.2367 -0.4353 -0.0227
 1765TIP3   OH226785   3.373   2.909  16.696 -0.4128 -0.4056  0.1435
 1765TIP3    H126786   3.290   2.873  16.729 -0.1454 -0.5574  0.6536
 1765TIP3    H226787   3.372   3.000  16.726  1.0695 -1.2153  3.0380
 1766TIP3   OH226788   3.712   0.430  15.908  0.4984 -0.3024  0.2872
 1766TIP3    H126789   3.783   0.387  15.861  0.5284 -0.1731  0.2161
 1766TIP3    H226790   3.643   0.442  15.842  0.9405  0.8304  0.0179
 1767TIP3   OH226791   2.037   6.671   0.288  0.2818 -0.2900  0.2306
 1767TIP3    H126792   2.054   6.631   0.373 -0.3364 -0.9177  0.0657
 1767TIP3    H226793   2.059   6.764   0.300  0.6024 -0.4566  0.9500
 1768TIP3   OH226794   1.618   5.817   1.617  0.1279 -0.2657  0.1103
 1768TIP3    H126795   1.567   5.740   1.643  0.1908 -0.0560  0.9036
 1768TIP3    H226796   1.613   5.876   1.693  0.0483  0.5305 -0.4957
 1769TIP3   OH226797   0.366   6.307  13.030  0.1764 -0.1362  0.2185
 1769TIP3    H126798   0.315   6.230  13.002  2.9509 -1.4905 -1.5272
 1769TIP3    H226799   0.331   6.378  12.976 -0.7029 -0.7167 -0.0179
 1770TIP3   OH226800   5.222   5.891   4.147  0.2751 -0.4368  0.1188
 1770TIP3    H126801   5.176   5.975   4.134 -0.9723 -1.2594 -1.1605
 1770TIP3    H226802   5.314   5.912   4.133 -0.1391  0.5284 -1.4279
 1771TIP3   OH226803   0.945   5.760  10.759  0.2136  0.2966 -0.2438
 1771TIP3    H126804   0.997   5.840  10.759  1.7279 -0.6536 -1.0127
 1771TIP3    H226805   0.972   5.713  10.680 -1.6298 -0.3815 -0.5374
 1772TIP3   OH226806   3.852   3.404  11.784  0.3233 -0.5042  0.0869
 1772TIP3    H126807   3.869   3.488  11.740 -1.0003 -0.5912 -0.6517
 1772TIP3    H226808   3.757   3.400  11.791  0.2983 -2.3762 -0.7836
 1773TIP3   OH226809   2.825   5.852  11.334  0.1048 -0.2204 -0.1956
 1773TIP3    H126810   2.852   5.848  11.425 -0.4633 -0.9562 -0.0528
 1773TIP3    H226811   2.904   5.880  11.287  0.0246  1.5943  0.6743
 1774TIP3   OH226812   4.804   1.254   1.453 -0.4256  0.1604  0.4439
 1774TIP3    H126813   4.885   1.203   1.457  0.3160  1.0236 -1.8389
 1774TIP3    H226814   4.834   1.344   1.439 -1.7675  0.7817  1.4524
 1775TIP3   OH226815   3.638   6.782  14.085  0.0002  0.8608 -0.5223
 1775TIP3    H126816   3.655   6.876  14.090 -1.7994  1.2299 -0.5461
 1775TIP3    H226817   3.582   6.772  14.008  0.3172 -0.2619 -0.6207
 1776TIP3   OH226818   5.313   2.342   3.592 -0.4831  0.2392  0.1025
 1776TIP3    H126819   5.225   2.305   3.584  0.2891 -1.6246 -0.2606
 1776TIP3    H226820   5.301   2.436   3.579 -2.4092  0.0162  0.0279
 1777TIP3   OH226821   6.765   5.807   4.003 -0.6958 -0.5805  0.3827
 1777TIP3    H126822   6.851   5.840   4.028 -1.0279  1.1361 -0.5649
 1777TIP3    H226823   6.747   5.737   4.066  0.0243  1.1073  2.6010
 1778TIP3   OH226824   5.934   2.526  16.583  0.5680 -0.4005 -0.8407
 1778TIP3    H126825   5.848   2.509  16.545  1.4807 -1.1481 -2.6736
 1778TIP3    H226826   5.970   2.439  16.601  1.0948 -0.0998 -0.3913
 1779TIP3   OH226827   1.864   0.419  13.628  0.0080 -0.6849  0.2241
 1779TIP3    H126828   1.862   0.511  13.600  0.3723 -0.9197 -0.5770
 1779TIP3    H226829   1.859   0.369  13.547 -1.1030 -1.3879  0.7018
 1780TIP3   OH226830   0.544   5.868  11.830 -0.4477 -0.6046 -0.1268
 1780TIP3    H126831   0.564   5.833  11.917  0.4793  1.5428  0.5828
 1780TIP3    H226832   0.547   5.792  11.772  1.7387 -1.6577  1.2704
 1781TIP3   OH226833   3.167   1.115  14.535  0.0223 -0.1459 -0.4036
 1781TIP3    H126834   3.220   1.110  14.455 -0.7519 -0.9871 -0.8796
 1781TIP3    H226835   3.096   1.052  14.521 -0.4957  0.1740  0.6766
 1782TIP3   OH226836   5.009   3.442   2.990 -0.2958  0.2889 -0.7595
 1782TIP3    H126837   5.053   3.364   3.023 -1.3341  0.5559  1.4905
 1782TIP3    H226838   5.070   3.480   2.927  1.7885 -0.4339  0.7202
 1783TIP3   OH226839   6.751   4.063   1.559  0.3848  0.2743 -0.1108
 1783TIP3    H126840   6.715   3.983   1.598 -0.4844  1.2571  1.2076
 1783TIP3    H226841   6.807   4.099   1.627  0.8063  0.7669 -0.7133
 1784TIP3   OH226842   6.158   1.062   3.031  0.2927  0.2199 -0.2989
 1784TIP3    H126843   6.209   1.075   2.951  2.3041  0.4730  0.9357
 1784TIP3    H226844   6.224   1.058   3.101 -1.3117 -1.0508  1.2326
 1785TIP3   OH226845   3.386   1.257   1.245 -0.3967  0.0342  0.2048
 1785TIP3    H126846   3.395   1.162   1.241 -0.2988 -0.0621  1.9455
 1785TIP3    H226847   3.472   1.291   1.219  0.0032 -0.4026  0.9416
 1786TIP3   OH226848   5.714   1.545   4.046 -0.0472 -0.1141 -0.3104
 1786TIP3    H126849   5.712   1.587   4.133  3.1938  0.6931 -0.4798
 1786TIP3    H226850   5.706   1.618   3.984 -0.2350 -0.4496 -0.6830
 1787TIP3   OH226851   2.683   1.091   0.699  0.6540 -0.1858 -0.1070
 1787TIP3    H126852   2.666   1.147   0.623  0.2892 -0.0728  0.0537
 1787TIP3    H226853   2.672   1.149   0.774  1.0819 -0.2810  0.0317
 1788TIP3   OH226854   1.221   2.341  13.383 -0.0900  0.3860 -1.0215
 1788TIP3    H126855   1.177   2.397  13.447  3.3260  3.5377 -1.1582
 1788TIP3    H226856   1.313   2.341  13.409  0.7473 -1.9218 -3.4441
 1789TIP3   OH226857   5.079   0.544   5.205 -0.9976  0.8275 -0.2099
 1789TIP3    H126858   4.998   0.507   5.168 -2.6461  2.5892  1.3810
 1789TIP3    H226859   5.113   0.601   5.136  0.1550 -1.5327 -1.7033
 1790TIP3   OH226860   4.605   6.132  11.908  0.1519  0.3645  0.4534
 1790TIP3    H126861   4.571   6.167  11.826 -0.5919  1.4839  1.2125
 1790TIP3    H226862   4.687   6.180  11.922  0.3856  0.0251  0.2752
 1791TIP3   OH226863   6.290   1.129   2.812 -0.3160  0.3596 -0.2224
 1791TIP3    H126864   6.343   1.102   2.737 -0.7124  2.3654 -1.3190
 1791TIP3    H226865   6.330   1.211   2.841 -2.0670  1.3056 -0.3297
 1792TIP3   OH226866   3.854   4.199   0.346  0.3300 -0.2103  0.5633
 1792TIP3    H126867   3.863   4.245   0.263 -0.3716  2.1606  1.7037
 1792TIP3    H226868   3.944   4.182   0.373  0.5539 -2.1581 -1.2114
 1793TIP3   OH226869   0.775   2.498   1.706  0.3797 -0.3486 -0.2905
 1793TIP3    H126870   0.737   2.416   1.736  0.9455  0.1968  2.1211
 1793TIP3    H226871   0.702   2.547   1.670 -0.8049 -0.3581  1.9175
 1794TIP3   OH226872   5.519   6.207  15.429 -0.6059  0.0019 -0.1250
 1794TIP3    H126873   5.502   6.288  15.477 -1.7526  0.6801 -1.5963
 1794TIP3    H226874   5.545   6.144  15.497  0.8299  1.7007  0.9986
 1795TIP3   OH226875   5.397   4.764   0.270 -0.1405  0.0230  0.5147
 1795TIP3    H126876   5.453   4.722   0.205 -0.4884 -1.6739  1.2563
 1795TIP3    H226877   5.312   4.773   0.227 -0.0324  0.0956  0.3151
 1796TIP3   OH226878   6.482   1.442   0.888 -0.4703 -0.2244  0.1527
 1796TIP3    H126879   6.560   1.435   0.942 -1.2952 -0.1435  1.3874
 1796TIP3    H226880   6.423   1.374   0.921 -1.3192  0.3775 -0.0893
 1797TIP3   OH226881   6.808   0.500  15.007 -0.1417  0.1401  0.3479
 1797TIP3    H126882   6.845   0.584  14.978  1.0873 -0.1901  0.9270
 1797TIP3    H226883   6.807   0.446  14.929  0.6812  0.1304  0.3387
 1798TIP3   OH226884   6.224   0.421   4.622 -0.0243  0.1349 -0.5549
 1798TIP3    H126885   6.194   0.488   4.560 -1.7777 -0.1494 -0.0700
 1798TIP3    H226886   6.162   0.349   4.612  0.3824 -0.4151  0.6578
 1799TIP3   OH226887   0.954   4.732   5.570 -0.6250 -0.3299 -0.6601
 1799TIP3    H126888   0.903   4.760   5.646 -0.2569 -0.5030 -0.3447
 1799TIP3    H226889   0.994   4.649   5.597  0.1126 -0.0224 -0.7681
 1800TIP3   OH226890   4.271   5.071  16.705 -0.2477 -0.5658 -0.7331
 1800TIP3    H126891   4.259   5.044  16.614  1.1487 -1.4850 -0.6771
 1800TIP3    H226892   4.334   5.008  16.741 -2.9697 -2.1751  1.7689
 1801TIP3   OH226893   4.151   0.274  14.515  0.2580  0.1210  0.0081
 1801TIP3    H126894   4.218   0.315  14.570  0.3045  1.0238 -0.6894
 1801TIP3    H226895   4.073   0.328  14.528 -0.3427 -0.8936  0.7744
 1802TIP3   OH226896   1.639   1.175   2.115 -0.8542 -0.4302  0.6266
 1802TIP3    H126897   1.734   1.169   2.125 -0.6349  1.5152  0.0521
 1802TIP3    H226898   1.606   1.173   2.205 -0.1382  0.5222  0.9260
 1803TIP3   OH226899   3.251   6.398   3.239 -0.1424 -0.0239 -0.0859
 1803TIP3    H126900   3.189   6.457   3.281  0.5483  1.3138 -0.8953
 1803TIP3    H226901   3.253   6.425   3.147  1.9834  0.3287 -0.0021
 1804TIP3   OH226902   4.290   3.152  11.558  0.4313 -0.2596 -0.1067
 1804TIP3    H126903   4.311   3.241  11.529 -1.4175  0.8590  1.6862
 1804TIP3    H226904   4.259   3.107  11.480 -1.5383  1.6746 -0.5263
 1805TIP3   OH226905   3.321   1.997   5.506 -0.6234 -0.6810  0.0877
 1805TIP3    H126906   3.326   1.987   5.601 -0.6474 -1.7204 -0.0096
 1805TIP3    H226907   3.343   2.089   5.490  0.8177 -0.8377  0.9943
 1806TIP3   OH226908   4.488   0.682   4.640 -0.0407  0.2933 -0.3618
 1806TIP3    H126909   4.550   0.657   4.708  0.1673  0.0600 -0.6343
 1806TIP3    H226910   4.403   0.657   4.675  0.1596 -0.8294 -0.6244
 1807TIP3   OH226911   5.742   6.037   5.431  0.5817  0.3808  0.6969
 1807TIP3    H126912   5.697   6.018   5.349  1.5226  1.4589 -0.0904
 1807TIP3    H226913   5.686   5.997   5.498 -0.9108  0.6418 -0.3382
 1808TIP3   OH226914   5.677   1.892  10.672  0.1404  0.1567  0.0782
 1808TIP3    H126915   5.751   1.872  10.614  0.6255 -1.1480  1.0987
 1808TIP3    H226916   5.634   1.808  10.685 -0.3532  0.5556  1.0803
 1809TIP3   OH226917   0.643   0.644  11.098  0.0200  0.1520  0.0000
 1809TIP3    H126918   0.722   0.591  11.086  1.5475  2.0875  0.8720
 1809TIP3    H226919   0.616   0.667  11.009 -1.1616 -2.6124 -0.4616
 1810TIP3   OH226920   4.963   1.373  11.367 -0.1357  0.2275 -0.2072
 1810TIP3    H126921   4.930   1.349  11.281  3.0460  0.1038 -1.5149
 1810TIP3    H226922   4.939   1.299  11.423 -0.3661 -0.7273 -1.5155
 1811TIP3   OH226923   6.069   2.667  14.351 -0.2620 -0.4219  0.1023
 1811TIP3    H126924   6.165   2.674  14.352 -0.3119  0.7068 -1.0465
 1811TIP3    H226925   6.044   2.698  14.264 -1.6002 -1.9331 -0.0876
 1812TIP3   OH226926   4.010   3.756   6.125 -0.8991  0.0666  0.5106
 1812TIP3    H126927   4.022   3.727   6.216  0.3807 -0.0035  0.3296
 1812TIP3    H226928   4.060   3.693   6.073 -1.0466  0.5190 -0.1872
 1813TIP3   OH226929   4.741   2.199  12.263  0.1493  0.6518 -0.2013
 1813TIP3    H126930   4.777   2.172  12.347 -1.2371  0.3250  0.3254
 1813TIP3    H226931   4.805   2.171  12.198  1.4363  1.2796  0.7692
 1814TIP3   OH226932   1.540   1.707  11.424 -0.1155 -0.0951 -0.2667
 1814TIP3    H126933   1.594   1.687  11.501  0.2185  1.0541 -0.1875
 1814TIP3    H226934   1.517   1.621  11.389  0.2090 -0.6365  0.7766
 1815TIP3   OH226935   5.402   5.393   2.355  0.0426  0.1129 -0.2010
 1815TIP3    H126936   5.310   5.385   2.379 -0.3633 -0.9337 -1.9707
 1815TIP3    H226937   5.450   5.368   2.434 -1.1997 -0.9180  0.2465
 1816TIP3   OH226938   4.753   1.821  15.545  0.8169  0.5938 -0.8028
 1816TIP3    H126939   4.747   1.854  15.456  2.7322 -0.5385 -1.4328
 1816TIP3    H226940   4.844   1.839  15.571  0.4806  0.3122  0.6606
 1817TIP3   OH226941   0.316   4.513  11.084 -0.2818 -0.5154  0.9946
 1817TIP3    H126942   0.365   4.549  11.010 -0.4848 -1.9653  0.1178
 1817TIP3    H226943   0.229   4.496  11.049 -0.8512  0.2193  2.0093
 1818TIP3   OH226944   3.352   4.864   2.749 -0.3056  0.3852 -0.4820
 1818TIP3    H126945   3.319   4.808   2.819  0.4943 -0.7822 -1.0050
 1818TIP3    H226946   3.440   4.832   2.732 -0.9788 -0.4244 -3.0449
 1819TIP3   OH226947   5.522   1.313  15.730  0.3686  0.3808  0.0123
 1819TIP3    H126948   5.489   1.244  15.786 -0.5872  1.0988  0.3572
 1819TIP3    H226949   5.534   1.388  15.788 -0.3230  1.0374 -0.6755
 1820TIP3   OH226950   1.741   0.940   3.916  0.4688 -0.5135  0.7277
 1820TIP3    H126951   1.727   0.873   3.849 -3.7550  3.1136 -2.6948
 1820TIP3    H226952   1.663   0.934   3.972  0.0509  1.3278  0.4111
 1821TIP3   OH226953   6.816   3.088  15.219 -0.2734  0.0762  0.0882
 1821TIP3    H126954   6.735   3.077  15.169  0.0228 -0.0045 -0.3820
 1821TIP3    H226955   6.787   3.094  15.310 -0.8796  0.9955 -0.1518
 1822TIP3   OH226956   3.368   4.913   3.461 -0.9662 -0.2117 -0.0191
 1822TIP3    H126957   3.279   4.885   3.482 -0.7055 -0.9955  0.0662
 1822TIP3    H226958   3.362   5.008   3.455 -1.6532 -0.1959  0.7207
 1823TIP3   OH226959   0.343   0.283  14.442  0.3338 -0.4293  0.3134
 1823TIP3    H126960   0.275   0.220  14.417 -1.5706  1.2081  1.1281
 1823TIP3    H226961   0.381   0.246  14.521 -0.9532 -0.4760  0.9436
 1824TIP3   OH226962   1.945   2.145   4.919 -0.4330  0.1613 -0.7420
 1824TIP3    H126963   1.918   2.057   4.945  1.4338 -0.5261 -0.9633
 1824TIP3    H226964   1.986   2.182   4.998 -0.8320  0.6670 -0.7703
 1825TIP3   OH226965   2.178   2.444   0.185  0.3975 -0.5551  0.5138
 1825TIP3    H126966   2.100   2.483   0.145  0.4620 -1.8895 -1.0264
 1825TIP3    H226967   2.164   2.453   0.279 -3.0158 -3.2605  0.4566
 1826TIP3   OH226968   0.140   2.680  11.760 -0.4101 -0.1945 -0.3495
 1826TIP3    H126969   0.202   2.719  11.698  3.3808 -0.6659  2.7380
 1826TIP3    H226970   0.099   2.754  11.804  2.0124  0.4150  1.1026
 1827TIP3   OH226971   0.330   1.437  11.216  0.1971 -0.7074 -0.0307
 1827TIP3    H126972   0.241   1.440  11.251  0.5112  1.3933  0.7079
 1827TIP3    H226973   0.337   1.515  11.161  0.7902 -2.1926 -2.2391
 1828TIP3   OH226974   2.639   2.847  14.630  0.2284  0.2757  0.0807
 1828TIP3    H126975   2.544   2.839  14.623  0.1623  0.2601  0.9796
 1828TIP3    H226976   2.672   2.766  14.591 -0.1744 -0.3274  0.9706
 1829TIP3   OH226977   4.827   5.178  15.791  0.8156 -0.6371 -0.1211
 1829TIP3    H126978   4.765   5.168  15.863 -0.6266 -0.3283 -1.2719
 1829TIP3    H226979   4.856   5.269  15.796  0.4339 -0.5131 -0.1502
 1830TIP3   OH226980   6.767   3.156   1.853  0.5579  0.0545 -0.5307
 1830TIP3    H126981   6.676   3.131   1.835  0.4612 -1.1606  1.3922
 1830TIP3    H226982   6.811   3.152   1.768 -1.1806  0.7613 -1.5117
 1831TIP3   OH226983   6.441   1.395   5.350  0.1201  0.1799 -0.0685
 1831TIP3    H126984   6.349   1.369   5.348  0.3015 -0.8335  2.1172
 1831TIP3    H226985   6.488   1.324   5.305  0.0104 -0.2354  0.4689
 1832TIP3   OH226986   3.221   3.994  14.011  0.6455 -0.4921 -0.1617
 1832TIP3    H126987   3.239   4.088  14.015 -0.1439 -0.3206 -0.5909
 1832TIP3    H226988   3.193   3.979  13.921 -2.7992 -0.4599  0.7546
 1833TIP3   OH226989   5.611   6.767   3.164  0.4675  0.0891 -0.1818
 1833TIP3    H126990   5.558   6.719   3.100  2.9760 -1.7012 -1.0660
 1833TIP3    H226991   5.647   6.841   3.115  0.0483  0.4118 -0.0080
 1834TIP3   OH226992   5.667   2.610  15.603 -0.5652 -0.6039 -0.4249
 1834TIP3    H126993   5.595   2.627  15.543 -1.3781 -0.2959  0.6115
 1834TIP3    H226994   5.678   2.515  15.600 -1.9986 -0.8320  0.4836
 1835TIP3   OH226995   1.370   6.799  11.569  0.1607  0.0415 -0.3332
 1835TIP3    H126996   1.423   6.776  11.646  0.1423 -1.6040 -0.7755
 1835TIP3    H226997   1.351   6.715  11.527 -0.2847  0.8625 -1.8447
 1836TIP3   OH226998   0.472   1.637   4.228  0.2393  0.4760 -0.6707
 1836TIP3    H126999   0.453   1.719   4.273  0.8054  0.8206 -1.0370
 1836TIP3    H227000   0.564   1.620   4.249  0.1729  0.0234 -0.7391
 1837TIP3   OH227001   3.270   6.712  14.907 -0.3222  0.5625 -0.7770
 1837TIP3    H127002   3.347   6.713  14.850 -0.8174 -0.6697 -1.4941
 1837TIP3    H227003   3.288   6.643  14.970 -0.9942  0.0133 -1.1775
 1838TIP3   OH227004   6.728   1.458  11.046  0.0694  0.0997 -0.5443
 1838TIP3    H127005   6.814   1.500  11.052 -0.1126  0.7152 -1.8627
 1838TIP3    H227006   6.745   1.376  11.000 -0.2848  1.0737 -2.4891
 1839TIP3   OH227007   1.653   2.707   3.224 -0.1961 -0.5150 -0.0338
 1839TIP3    H127008   1.692   2.643   3.165  1.3631  0.2048  0.1793
 1839TIP3    H227009   1.659   2.790   3.176  0.0555 -0.1110  0.6843
 1840TIP3   OH227010   2.876   4.937  11.385  0.3780 -0.4915 -0.0941
 1840TIP3    H127011   2.916   4.887  11.456 -2.2379 -2.9722 -0.1948
 1840TIP3    H227012   2.910   4.896  11.305  0.7076  0.0903 -0.2641
 1841TIP3   OH227013   1.652   6.354  12.526  0.0430  0.1096  0.5739
 1841TIP3    H127014   1.738   6.388  12.552 -1.2647  1.5124  3.5893
 1841TIP3    H227015   1.593   6.428  12.540 -1.8547 -1.2260 -0.0808
 1842TIP3   OH227016   1.097   2.397   3.387 -0.0395  0.2204  1.2204
 1842TIP3    H127017   1.067   2.427   3.301  1.9904  2.6790  1.2449
 1842TIP3    H227018   1.135   2.311   3.370  0.1053  0.5491 -0.2999
 1843TIP3   OH227019   0.109   0.461  15.286  1.0821  0.4289  0.2219
 1843TIP3    H127020   0.076   0.501  15.205 -1.4292 -0.2612  0.8406
 1843TIP3    H227021   0.181   0.404  15.256 -0.0168 -0.0920 -1.6059
 1844TIP3   OH227022   6.107   6.405  13.257 -0.1166  0.4386 -0.0242
 1844TIP3    H127023   6.095   6.438  13.346  0.2298 -0.0817  0.2145
 1844TIP3    H227024   6.157   6.325  13.267  1.0094  1.0181 -0.7899
 1845TIP3   OH227025   3.966   4.382  14.766 -0.0145  0.0919  0.4567
 1845TIP3    H127026   4.034   4.391  14.832  1.1018 -0.6777 -0.5427
 1845TIP3    H227027   3.994   4.439  14.695 -0.5873  0.0211  0.1669
 1846TIP3   OH227028   4.484   4.842  14.633 -0.1468  0.3622  0.8425
 1846TIP3    H127029   4.442   4.925  14.655  1.3211  0.7751  2.2066
 1846TIP3    H227030   4.464   4.784  14.706 -1.8426 -0.8201 -0.4605
 1847TIP3   OH227031   2.994   4.201   4.955 -0.3750  0.1698 -0.2572
 1847TIP3    H127032   3.070   4.238   5.000 -1.3338  1.4403  0.3755
 1847TIP3    H227033   3.031   4.157   4.879  1.0655  0.0954  0.4498
 1848TIP3   OH227034   2.725   3.738  11.213  0.1836 -0.0826  0.0335
 1848TIP3    H127035   2.744   3.665  11.154 -0.1651  0.3736 -0.6557
 1848TIP3    H227036   2.658   3.788  11.168  0.0024  0.3500  0.7666
 1849TIP3   OH227037   1.567   5.581   0.889  0.2129  0.5020 -0.5748
 1849TIP3    H127038   1.650   5.553   0.850  1.2212  1.5956  0.6860
 1849TIP3    H227039   1.521   5.500   0.910  0.5889 -0.1108 -2.0368
 1850TIP3   OH227040   4.625   5.245  15.323 -0.0675 -0.3119 -0.4229
 1850TIP3    H127041   4.653   5.235  15.414 -1.1158  1.1516  0.1076
 1850TIP3    H227042   4.532   5.224  15.323 -0.3023  0.6285 -0.9411
 1851TIP3   OH227043   3.248   4.421   6.030 -0.0382  0.4349 -0.3500
 1851TIP3    H127044   3.226   4.328   6.036 -0.8419  0.6819  0.8673
 1851TIP3    H227045   3.336   4.427   6.068 -0.7023  0.3983  1.2823
 1852TIP3   OH227046   6.799   0.316   6.535  0.1431  0.3841 -0.1764
 1852TIP3    H127047   6.869   0.252   6.550 -0.6458 -0.6770 -0.8673
 1852TIP3    H227048   6.755   0.324   6.620 -0.1031 -0.4371 -0.2172
 1853TIP3   OH227049   4.855   3.261   4.142 -0.2222  0.3746  0.3707
 1853TIP3    H127050   4.916   3.219   4.202  1.2791  0.7965 -0.8042
 1853TIP3    H227051   4.769   3.244   4.179  0.6218  0.1626  2.3341
 1854TIP3   OH227052   2.083   5.990  11.791 -0.0155  0.6398  0.3849
 1854TIP3    H127053   2.003   6.019  11.835  1.2116  1.3901  2.2809
 1854TIP3    H227054   2.089   5.897  11.813  0.0708  0.7843  1.0010
 1855TIP3   OH227055   3.727   2.344   2.852  0.0148 -0.1735 -0.0435
 1855TIP3    H127056   3.754   2.363   2.942 -0.8931 -0.2384  0.2571
 1855TIP3    H227057   3.682   2.260   2.858 -0.9514  0.3095 -0.3726
 1856TIP3   OH227058   3.423   6.563   2.359 -0.1171 -0.7577  0.4140
 1856TIP3    H127059   3.372   6.494   2.402  1.3710 -2.5721 -0.5591
 1856TIP3    H227060   3.423   6.538   2.266 -1.2956  1.7644 -0.3299
 1857TIP3   OH227061   5.522   2.086  10.930  0.1879  0.1370  0.1419
 1857TIP3    H127062   5.575   2.012  10.958  1.4884  1.0742  0.2743
 1857TIP3    H227063   5.462   2.102  11.002  0.1741 -0.5345  0.2786
 1858TIP3   OH227064   4.630   5.788   6.373 -0.2159  0.6161  0.1051
 1858TIP3    H127065   4.584   5.851   6.428  1.5027  1.5702  0.5357
 1858TIP3    H227066   4.675   5.731   6.435  0.5269  0.7579 -0.2961
 1859TIP3   OH227067   6.747   1.660   3.961  0.5069 -0.0605 -0.3142
 1859TIP3    H127068   6.695   1.702   4.030  0.8597 -0.4266  0.1887
 1859TIP3    H227069   6.779   1.580   4.002 -1.1213 -1.4447 -1.6223
 1860TIP3   OH227070   1.340   6.491  14.308 -0.5237  0.2224 -0.4056
 1860TIP3    H127071   1.414   6.464  14.253 -0.7123 -0.7963 -0.1774
 1860TIP3    H227072   1.282   6.538  14.249 -0.7880 -0.9740 -1.1359
 1861TIP3   OH227073   2.464   3.257   4.895 -0.2510 -0.5868  0.1225
 1861TIP3    H127074   2.444   3.184   4.836  4.0447 -0.8141 -1.3863
 1861TIP3    H227075   2.558   3.252   4.909 -0.1344  3.2315  2.0207
 1862TIP3   OH227076   4.191   3.347  11.203  0.0018 -0.2917 -0.8565
 1862TIP3    H127077   4.223   3.280  11.142  2.4850  0.7646 -0.8284
 1862TIP3    H227078   4.096   3.347  11.191  0.1288 -2.3501 -2.3591
 1863TIP3   OH227079   4.660   3.628  11.562 -0.0763  0.1759  0.1415
 1863TIP3    H127080   4.629   3.709  11.523 -0.0448  0.8553  1.5101
 1863TIP3    H227081   4.660   3.565  11.489 -2.2620  0.7789 -0.4441
 1864TIP3   OH227082   5.561   2.918  14.900  0.4794 -0.5999  0.1264
 1864TIP3    H127083   5.543   2.854  14.831 -0.8221 -0.3623  0.2213
 1864TIP3    H227084   5.656   2.929  14.898  0.3530  1.2792 -3.3182
 1865TIP3   OH227085   1.605   0.623  13.794  0.1018 -0.4962  0.6679
 1865TIP3    H127086   1.643   0.537  13.776  1.8778 -0.3547  3.2048
 1865TIP3    H227087   1.649   0.653  13.873 -2.3692  1.6272  1.3870
 1866TIP3   OH227088   6.329   1.390  14.583  0.1253  0.0671 -0.6213
 1866TIP3    H127089   6.368   1.462  14.533  1.9455 -0.2034  0.3122
 1866TIP3    H227090   6.308   1.430  14.668  2.1522 -0.6843  0.2929
 1867TIP3   OH227091   6.669   0.545  13.988  0.2320 -0.0274  0.1491
 1867TIP3    H127092   6.600   0.489  14.024  0.7623 -1.0538 -0.3798
 1867TIP3    H227093   6.659   0.537  13.893  1.3433 -0.5473  0.0648
 1868TIP3   OH227094   1.498   5.984   0.606  0.1732 -0.5148 -0.4114
 1868TIP3    H127095   1.567   6.027   0.655 -0.7918 -1.1789  1.6230
 1868TIP3    H227096   1.539   5.907   0.567  1.0220  0.1907 -0.9414
 1869TIP3   OH227097   2.482   2.514   4.750 -0.1412 -0.6794 -0.2144
 1869TIP3    H127098   2.560   2.526   4.696  0.2300  2.9951  0.8574
 1869TIP3    H227099   2.411   2.501   4.687  0.7802 -0.0891 -1.4210
 1870TIP3   OH227100   1.915   5.834  11.336  0.0599 -0.0684  0.1050
 1870TIP3    H127101   1.879   5.888  11.407  0.7427  1.7378 -0.8653
 1870TIP3    H227102   1.846   5.832  11.270  0.2422  0.0577 -0.0883
 1871TIP3   OH227103   1.330   0.181   0.092  0.5218 -0.0248 -0.0393
 1871TIP3    H127104   1.333   0.276   0.081 -0.4454 -0.0623 -0.6570
 1871TIP3    H227105   1.237   0.160   0.098  0.7616 -0.6829  2.4724
 1872TIP3   OH227106   2.394   0.791  11.872 -0.7560 -0.0841 -0.3454
 1872TIP3    H127107   2.429   0.833  11.951  0.6456 -1.3153 -0.2573
 1872TIP3    H227108   2.299   0.792  11.884 -0.6282  0.9510  0.7220
 1873TIP3   OH227109   1.224   2.847   3.027 -0.1892  0.1430  0.5851
 1873TIP3    H127110   1.198   2.933   2.993  1.9003  0.2500 -0.9511
 1873TIP3    H227111   1.191   2.785   2.962 -0.6408 -0.1265  1.0632
 1874TIP3   OH227112   2.433   0.834   0.229 -0.2452 -0.3885 -0.1840
 1874TIP3    H127113   2.468   0.841   0.318  1.0186 -1.8313 -0.5153
 1874TIP3    H227114   2.340   0.855   0.237 -0.1375 -0.4452  1.4684
 1875TIP3   OH227115   0.428   5.708  15.880 -0.3810  0.6038  0.4142
 1875TIP3    H127116   0.514   5.716  15.920 -0.0686 -0.7636  0.0819
 1875TIP3    H227117   0.440   5.739  15.790 -0.0760 -0.1528  0.1884
 1876TIP3   OH227118   5.713   3.501   2.334 -0.2606  0.5971  0.1813
 1876TIP3    H127119   5.632   3.489   2.284  0.3248 -0.3349 -0.5652
 1876TIP3    H227120   5.719   3.595   2.348  0.1963  1.0593 -2.6069
 1877TIP3   OH227121   1.456   4.964  16.985  0.2851 -0.1148 -0.0018
 1877TIP3    H127122   1.389   4.985  17.050  0.4457 -0.0214  0.1347
 1877TIP3    H227123   1.490   5.050  16.957 -0.2344 -0.1204 -0.6861
 1878TIP3   OH227124   4.475   3.424   3.960  0.2809 -0.6430 -0.1880
 1878TIP3    H127125   4.429   3.506   3.979  0.5775 -0.0153 -2.0262
 1878TIP3    H227126   4.556   3.429   4.011  0.4726  0.3832 -0.5800
 1879TIP3   OH227127   4.446   1.987   6.380 -0.7593 -0.2181 -0.0156
 1879TIP3    H127128   4.458   2.025   6.467 -1.7236 -1.7189  0.8052
 1879TIP3    H227129   4.374   2.037   6.341 -1.7339 -0.8832  0.8854
 1880TIP3   OH227130   2.794   4.632  14.245  0.1283 -0.7634  0.3363
 1880TIP3    H127131   2.764   4.698  14.308 -0.2318 -1.9431  1.4251
 1880TIP3    H227132   2.876   4.668  14.211  0.2591 -0.0263  1.3686
 1881TIP3   OH227133   0.832   3.595   2.470 -0.0747  0.7255 -0.6690
 1881TIP3    H127134   0.736   3.591   2.467 -0.1029  1.4453 -3.2019
 1881TIP3    H227135   0.861   3.511   2.437  0.2706 -0.1267  1.6003
 1882TIP3   OH227136   0.573   0.452  16.180 -0.2822  0.0405  0.0678
 1882TIP3    H127137   0.554   0.458  16.274  1.1629 -1.0294  0.4513
 1882TIP3    H227138   0.668   0.457  16.174 -0.3981  1.0776 -1.4442
 1883TIP3   OH227139   1.835   4.826  15.690  0.3292 -0.0111  0.0976
 1883TIP3    H127140   1.799   4.913  15.673  1.5444  0.4826 -0.0357
 1883TIP3    H227141   1.837   4.819  15.786  0.4967  0.2179  0.1103
 1884TIP3   OH227142   3.224   4.582  11.644 -0.6972  0.4318  0.8308
 1884TIP3    H127143   3.289   4.568  11.713  1.3286 -0.5589 -1.1511
 1884TIP3    H227144   3.226   4.677  11.628  0.3326  0.4140  0.7745
 1885TIP3   OH227145   1.019   1.681   1.367 -0.2074 -0.0745 -0.6434
 1885TIP3    H127146   0.962   1.612   1.401  0.7106  0.5483  2.5007
 1885TIP3    H227147   1.094   1.635   1.331 -0.8688 -0.7709 -1.1701
 1886TIP3   OH227148   5.545   3.439   6.259 -0.3157  0.5189  0.0746
 1886TIP3    H127149   5.543   3.344   6.269  1.6419  0.4800  0.5534
 1886TIP3    H227150   5.454   3.463   6.241 -0.7903 -1.4743 -0.5001
 1887TIP3   OH227151   1.221   0.355  11.032 -0.3863 -0.0127  0.0760
 1887TIP3    H127152   1.170   0.422  11.077 -3.4494 -1.3863 -1.0793
 1887TIP3    H227153   1.204   0.370  10.939  1.5155 -0.4491 -0.3844
 1888TIP3   OH227154   1.365   2.834   4.380  0.1066 -0.5558  0.3125
 1888TIP3    H127155   1.341   2.868   4.466  0.2123  0.5878 -0.0900
 1888TIP3    H227156   1.326   2.747   4.376 -0.3934 -0.3827  1.2887
 1889TIP3   OH227157   0.589   3.425  14.604 -0.4807 -0.1388 -0.3834
 1889TIP3    H127158   0.605   3.351  14.664 -2.2748 -1.9033 -1.9184
 1889TIP3    H227159   0.496   3.444  14.616 -0.2758  1.2028 -0.8079
 1890TIP3   OH227160   6.042   4.958  11.627  0.2388 -0.0825 -0.5162
 1890TIP3    H127161   5.988   4.881  11.611  0.4383 -0.4338  0.4132
 1890TIP3    H227162   5.979   5.028  11.647 -0.0259  0.4307 -2.9131
 1891TIP3   OH227163   3.822   5.400   0.780  0.4900  0.0474  0.9399
 1891TIP3    H127164   3.726   5.397   0.782  0.4366 -0.6093 -0.7842
 1891TIP3    H227165   3.844   5.385   0.688  2.1802  2.6179  0.8353
 1892TIP3   OH227166   1.836   2.824   3.840 -0.5938 -0.0527 -0.1798
 1892TIP3    H127167   1.751   2.795   3.875 -2.0360 -0.8220 -3.9073
 1892TIP3    H227168   1.887   2.744   3.832 -0.8638 -0.1244 -1.2455
 1893TIP3   OH227169   5.696   4.839  13.779  0.0194  0.0001 -0.3832
 1893TIP3    H127170   5.642   4.882  13.712  1.3142  2.7787  0.2313
 1893TIP3    H227171   5.648   4.851  13.860 -0.2391 -0.9587 -0.3788
 1894TIP3   OH227172   2.389   4.871   2.176  0.3569 -0.5830  0.5004
 1894TIP3    H127173   2.318   4.935   2.189 -0.2453 -0.8312 -1.2407
 1894TIP3    H227174   2.439   4.906   2.102  0.7636 -1.4804  0.3374
 1895TIP3   OH227175   5.777   5.765  15.080  0.1141  0.1182 -0.2858
 1895TIP3    H127176   5.828   5.818  15.019  1.5574 -0.1791  0.6237
 1895TIP3    H227177   5.707   5.727  15.026  2.4899 -1.8143 -2.2653
 1896TIP3   OH227178   2.174   3.436  13.010  0.1656  0.1074 -0.1885
 1896TIP3    H127179   2.232   3.364  13.036  0.4894  0.5023  0.1828
 1896TIP3    H227180   2.100   3.392  12.967  0.6063 -0.4171 -0.4236
 1897TIP3   OH227181   2.815   0.773  14.639  0.1226  0.4801  0.4997
 1897TIP3    H127182   2.823   0.681  14.664  0.5978  0.3398 -0.1442
 1897TIP3    H227183   2.724   0.783  14.612  0.2022  0.0756  0.0825
 1898TIP3   OH227184   6.455   1.424   0.335  0.5597  0.0010  0.2756
 1898TIP3    H127185   6.527   1.365   0.313 -1.0476 -2.0368  0.1195
 1898TIP3    H227186   6.405   1.376   0.402 -2.5603 -0.3316 -2.0529
 1899TIP3   OH227187   2.555   1.919   4.721  0.2797 -0.1538 -0.5063
 1899TIP3    H127188   2.488   1.886   4.662 -0.2744  0.7164 -0.3730
 1899TIP3    H227189   2.569   2.010   4.694  0.9994 -0.1512 -0.1693
 1900TIP3   OH227190   0.475   2.687   3.911 -0.1756  0.5695  0.0077
 1900TIP3    H127191   0.468   2.607   3.860  1.1143 -0.1097  0.8551
 1900TIP3    H227192   0.395   2.736   3.890  0.2847  0.3339 -2.6065
 1901TIP3   OH227193   4.242   1.816   3.461  0.3150  0.0200 -0.3928
 1901TIP3    H127194   4.226   1.869   3.539  1.7144  0.3112 -0.2720
 1901TIP3    H227195   4.279   1.877   3.397  0.5695 -0.5064 -0.7636
 1902TIP3   OH227196   3.447   3.073   2.264 -0.1583  0.4111  0.2089
 1902TIP3    H127197   3.385   3.136   2.300  0.8403  1.4648  0.1248
 1902TIP3    H227198   3.528   3.087   2.313  0.9013  1.1166 -1.6066
 1903TIP3   OH227199   1.178   6.475   2.565  0.2319  0.2115 -0.3919
 1903TIP3    H127200   1.214   6.508   2.647  1.4406 -0.2138 -0.7338
 1903TIP3    H227201   1.134   6.393   2.589 -0.6495  0.7914  0.0427
 1904TIP3   OH227202   0.971   3.727   0.442 -0.3019 -0.1652  0.1930
 1904TIP3    H127203   0.917   3.650   0.457 -0.3801  0.1272  1.4843
 1904TIP3    H227204   0.919   3.781   0.382 -1.9434  0.5538  2.1331
 1905TIP3   OH227205   5.579   0.805   1.127  0.3092  0.3144 -0.1763
 1905TIP3    H127206   5.582   0.724   1.179 -0.0064  0.7126  0.4722
 1905TIP3    H227207   5.665   0.810   1.085 -0.3344 -1.4407 -1.9136
 1906TIP3   OH227208   1.341   2.014   5.542 -0.5934  1.1364  0.4010
 1906TIP3    H127209   1.404   2.084   5.555  0.3009  0.8195 -1.8787
 1906TIP3    H227210   1.351   1.958   5.620  3.1676  0.2192 -0.5633
 1907TIP3   OH227211   0.813   3.391   1.033  0.3524 -0.2867  0.1172
 1907TIP3    H127212   0.807   3.481   1.064  1.4788 -0.4585  0.9148
 1907TIP3    H227213   0.783   3.338   1.107  0.6286 -0.5994  0.0097
 1908TIP3   OH227214   3.985   5.713   4.714  0.2746 -0.0240  0.6946
 1908TIP3    H127215   4.043   5.640   4.692 -0.3098  0.0580 -1.4006
 1908TIP3    H227216   3.945   5.689   4.797  0.3394 -1.9599  0.2078
 1909TIP3   OH227217   5.806   0.887  15.227  0.0311 -0.3343  0.1143
 1909TIP3    H127218   5.809   0.916  15.318 -0.4625  0.0865  0.0044
 1909TIP3    H227219   5.880   0.930  15.185  0.4122 -0.7309  0.3661
 1910TIP3   OH227220   6.553   6.192  11.521 -0.2643 -0.1106 -0.1813
 1910TIP3    H127221   6.618   6.242  11.570 -0.8609  0.1715  0.3473
 1910TIP3    H227222   6.585   6.102  11.523  0.2606  0.0725 -0.1910
 1911TIP3   OH227223   4.392   2.889  12.274  0.4404  0.1564  0.1929
 1911TIP3    H127224   4.361   2.979  12.261  1.0469  0.3612  0.1467
 1911TIP3    H227225   4.416   2.885  12.366  0.0454 -0.0771  0.2882
 1912TIP3   OH227226   4.375   1.585  15.156 -0.1328  0.7567  0.2968
 1912TIP3    H127227   4.396   1.534  15.234 -0.1623  1.4686  0.7669
 1912TIP3    H227228   4.285   1.615  15.169 -0.6346 -0.2506 -0.6272
 1913TIP3   OH227229   6.383   1.715  15.393 -0.2553  0.0418 -0.6436
 1913TIP3    H127230   6.312   1.764  15.435  1.3981  0.4609  1.8649
 1913TIP3    H227231   6.451   1.781  15.378  1.8024 -1.2184  2.3025
 1914TIP3   OH227232   4.567   0.465  14.344  0.8894  0.1320 -0.4978
 1914TIP3    H127233   4.488   0.410  14.335  1.0400  0.2071 -2.7263
 1914TIP3    H227234   4.620   0.419  14.409 -1.2530  0.4391  1.5870
 1915TIP3   OH227235   0.308   3.590  12.400  0.2049 -0.4013  0.8780
 1915TIP3    H127236   0.322   3.675  12.357 -0.8508  0.4819  2.1997
 1915TIP3    H227237   0.328   3.526  12.332  0.4810  0.9068 -0.3364
 1916TIP3   OH227238   6.633   2.298   2.473  0.2376  0.1159  0.1476
 1916TIP3    H127239   6.629   2.227   2.536 -1.3363 -0.4478 -0.5472
 1916TIP3    H227240   6.634   2.378   2.526 -0.7490 -0.3550  0.9007
 1917TIP3   OH227241   4.771   0.648  14.535  0.5429  0.3106 -0.2039
 1917TIP3    H127242   4.813   0.563  14.545 -1.4395 -0.8683 -1.1279
 1917TIP3    H227243   4.832   0.711  14.574  2.3138 -1.4530  0.0074
 1918TIP3   OH227244   3.361   6.017   2.729  0.3814  0.2152 -0.2035
 1918TIP3    H127245   3.319   6.100   2.752 -1.3196 -0.9424  1.1365
 1918TIP3    H227246   3.313   5.987   2.652 -0.2068 -0.3472  0.3718
 1919TIP3   OH227247   2.969   4.369   2.164  0.2874 -0.5597  0.3674
 1919TIP3    H127248   2.928   4.397   2.082  0.0856  1.8363  1.1864
 1919TIP3    H227249   2.958   4.274   2.166 -1.5577 -0.4470 -1.3903
 1920TIP3   OH227250   2.009   1.564   0.660 -0.4721 -0.1593 -1.0817
 1920TIP3    H127251   2.052   1.479   0.667  0.0070  0.1129 -0.6626
 1920TIP3    H227252   2.046   1.616   0.731 -1.4680  0.1058 -0.7374
 1921TIP3   OH227253   5.667   3.585  15.660  0.1134 -0.1924 -0.0248
 1921TIP3    H127254   5.608   3.660  15.668 -0.2893 -0.5845  0.7696
 1921TIP3    H227255   5.716   3.584  15.742  0.1593 -0.7573 -0.0531
 1922TIP3   OH227256   5.634   3.632  14.524  0.1050 -0.0868  0.7414
 1922TIP3    H127257   5.541   3.651  14.534 -0.1607 -0.6127 -0.4704
 1922TIP3    H227258   5.678   3.715  14.542 -0.6879  0.4597  0.2343
 1923TIP3   OH227259   3.524   4.927   4.485 -0.2439 -0.1108  0.4189
 1923TIP3    H127260   3.616   4.902   4.495 -0.8483 -2.0677  1.7116
 1923TIP3    H227261   3.507   4.986   4.558 -0.2244 -0.4590  0.7083
 1924TIP3   OH227262   3.147   2.628  14.620  0.2022  0.7947  0.5551
 1924TIP3    H127263   3.120   2.632  14.528  0.7633  1.2622  0.4043
 1924TIP3    H227264   3.064   2.628  14.669 -0.1029  0.2580  0.0452
 1925TIP3   OH227265   2.350   6.765   5.883 -0.0266  0.0897  0.1097
 1925TIP3    H127266   2.299   6.831   5.931  1.9970  0.6787  1.5994
 1925TIP3    H227267   2.300   6.684   5.894 -0.6429  0.6199  1.5287
 1926TIP3   OH227268   0.104   0.072  13.510 -0.0100  0.0401  0.2433
 1926TIP3    H127269   0.075   0.025  13.588  1.5732 -0.2624  0.6925
 1926TIP3    H227270   0.149   0.150  13.544  1.7270 -0.6881 -0.2764
 1927TIP3   OH227271   6.235   3.432   3.790 -0.7359 -0.4852 -0.2450
 1927TIP3    H127272   6.184   3.494   3.739 -0.9614  0.1498  0.7281
 1927TIP3    H227273   6.184   3.419   3.870 -0.0790 -0.9679  0.1066
 1928TIP3   OH227274   6.614   0.062   5.072 -0.0518 -0.1227  0.2821
 1928TIP3    H127275   6.709   0.055   5.062 -0.3205 -2.6061 -1.3649
 1928TIP3    H227276   6.583   0.085   4.984 -0.9478  1.5942  1.0151
 1929TIP3   OH227277   4.386   6.552  13.280  0.2152  0.0770 -0.2742
 1929TIP3    H127278   4.294   6.577  13.274  0.0079 -0.6493 -0.2391
 1929TIP3    H227279   4.398   6.531  13.372 -0.2501 -2.2140 -0.6718
 1930TIP3   OH227280   0.497   5.841   2.668  0.6783 -0.2976 -0.3368
 1930TIP3    H127281   0.483   5.927   2.630  0.9548 -0.2217 -0.2678
 1930TIP3    H227282   0.564   5.854   2.735  0.2200 -0.4390  0.1554
 1931TIP3   OH227283   0.097   6.075   1.858  0.4209 -0.8169  0.2659
 1931TIP3    H127284   0.156   6.141   1.821 -0.1991 -0.2453  0.2697
 1931TIP3    H227285   0.021   6.126   1.887  0.0139 -1.5219  0.4370
 1932TIP3   OH227286   2.867   3.845  15.851 -0.1619  0.4970 -0.0943
 1932TIP3    H127287   2.857   3.919  15.791 -2.3040 -0.6720 -1.3242
 1932TIP3    H227288   2.946   3.800  15.821  1.3523  2.3750  0.8775
 1933TIP3   OH227289   5.972   6.525   0.132  0.4543  0.1588 -0.2281
 1933TIP3    H127290   6.019   6.602   0.165  0.0411  1.5294 -2.5418
 1933TIP3    H227291   5.880   6.549   0.139  0.3452  0.2933 -1.7454
 1934TIP3   OH227292   3.442   0.736   2.455  0.0972  0.1626 -0.2290
 1934TIP3    H127293   3.523   0.756   2.408  0.1287 -2.0116 -1.2489
 1934TIP3    H227294   3.376   0.792   2.415  0.0865 -1.7181 -3.1722
 1935TIP3   OH227295   0.505   4.680  14.449 -0.8923  0.3918 -0.5159
 1935TIP3    H127296   0.487   4.753  14.390 -0.1706  0.1581 -1.0268
 1935TIP3    H227297   0.560   4.718  14.518 -2.2689  0.8250  0.4098
 1936TIP3   OH227298   1.630   4.139   5.277 -0.1095 -0.1298 -0.2862
 1936TIP3    H127299   1.706   4.082   5.291 -1.2472 -1.8095 -0.7074
 1936TIP3    H227300   1.628   4.194   5.355  0.9743 -0.7311  0.1957
 1937TIP3   OH227301   5.695   5.330   5.442  0.2827  0.3668  0.1082
 1937TIP3    H127302   5.755   5.313   5.515  0.7339  1.4855  0.0142
 1937TIP3    H227303   5.716   5.262   5.378  1.4469  0.7176  0.0877
 1938TIP3   OH227304   3.707   6.278   4.142  0.7862  0.6006  0.7249
 1938TIP3    H127305   3.760   6.288   4.221  0.2897  0.0377  1.1398
 1938TIP3    H227306   3.770   6.277   4.070  1.6793 -2.9273  1.3638
 1939TIP3   OH227307   6.445   0.932   1.895 -0.6328  0.1788 -0.1951
 1939TIP3    H127308   6.530   0.923   1.937 -0.7839  0.7929  0.2511
 1939TIP3    H227309   6.391   0.863   1.934 -1.1478  1.5224  1.5937
 1940TIP3   OH227310   0.901   4.935   2.384  0.7344 -0.8351 -0.0712
 1940TIP3    H127311   0.847   4.885   2.445 -0.9531 -0.3857 -1.1059
 1940TIP3    H227312   0.918   4.875   2.312  1.3731 -0.8719  0.1041
 1941TIP3   OH227313   4.387   1.622   0.460 -0.4112  0.3683  0.4912
 1941TIP3    H127314   4.310   1.656   0.504  0.3303 -0.5619  2.6617
 1941TIP3    H227315   4.458   1.680   0.487  0.0673 -0.2144  0.5094
 1942TIP3   OH227316   4.542   5.221   0.813  0.1397 -0.5180 -0.3400
 1942TIP3    H127317   4.490   5.261   0.882  2.7783  0.8305  1.0192
 1942TIP3    H227318   4.583   5.145   0.855  0.0573 -1.0022 -1.1026
 1943TIP3   OH227319   3.321   1.309   4.079  0.5765  0.3001 -0.0018
 1943TIP3    H127320   3.372   1.258   4.143  3.9545  3.5943  0.3008
 1943TIP3    H227321   3.370   1.300   3.997 -0.5560  0.5531 -0.7256
 1944TIP3   OH227322   4.753   0.137   5.731  0.5451 -0.7237 -0.0473
 1944TIP3    H127323   4.775   0.067   5.670 -0.2999  0.1546 -1.4163
 1944TIP3    H227324   4.713   0.205   5.676 -1.0074 -0.2270  1.5905
 1945TIP3   OH227325   1.349   0.752  13.815  0.0406  0.0141  0.2356
 1945TIP3    H127326   1.423   0.695  13.795 -2.3036 -3.6878  1.0837
 1945TIP3    H227327   1.336   0.742  13.909 -2.4882 -0.8447 -0.1321
 1946TIP3   OH227328   1.091   0.919   1.347  0.6004  0.2541  0.3785
 1946TIP3    H127329   1.058   0.844   1.396  1.5297  0.4908  1.3974
 1946TIP3    H227330   1.181   0.895   1.324  0.5342  0.5997 -0.2711
 1947TIP3   OH227331   3.693   2.816  15.294  0.0383 -0.0345 -0.0044
 1947TIP3    H127332   3.719   2.748  15.232  1.1232  0.8797 -0.5859
 1947TIP3    H227333   3.679   2.769  15.376 -1.5072 -1.2835 -0.9125
 1948TIP3   OH227334   1.665   5.732   4.978 -0.0694  0.1823  0.1419
 1948TIP3    H127335   1.639   5.784   4.902  2.5902 -1.8697 -2.4257
 1948TIP3    H227336   1.624   5.647   4.964  1.8900 -0.7782 -0.0336
 1949TIP3   OH227337   0.175   1.493   2.820  0.2253 -0.1843  0.5958
 1949TIP3    H127338   0.134   1.419   2.864 -1.1149  0.6055  0.7519
 1949TIP3    H227339   0.199   1.553   2.891  0.2930  0.0084  0.4109
 1950TIP3   OH227340   1.769   1.298  13.773  0.5364 -0.0156  0.0380
 1950TIP3    H127341   1.858   1.303  13.807  0.2608  0.9344  0.6921
 1950TIP3    H227342   1.716   1.343  13.840 -0.4065 -0.4343 -0.4057
 1951TIP3   OH227343   6.006   5.518  12.865 -0.5532 -0.5304 -0.5038
 1951TIP3    H127344   5.978   5.501  12.955 -0.9759  0.2435 -0.4804
 1951TIP3    H227345   5.925   5.519  12.814 -0.3475 -0.6166 -0.8383
 1952TIP3   OH227346   4.277   2.392  16.219  0.2728  0.5130 -0.5066
 1952TIP3    H127347   4.279   2.474  16.170  1.2924  0.6609 -0.2423
 1952TIP3    H227348   4.187   2.360  16.210 -0.4390  2.1944  0.2666
 1953TIP3   OH227349   2.054   2.629  14.276  0.3918  0.2424 -0.4720
 1953TIP3    H127350   2.062   2.640  14.371  0.2407 -1.6863 -0.1977
 1953TIP3    H227351   2.002   2.549  14.265  1.2866 -0.1604 -2.1743
 1954TIP3   OH227352   3.866   2.497  16.837 -0.3055 -0.3266 -0.2286
 1954TIP3    H127353   3.792   2.529  16.786  1.6603 -0.1119 -3.1358
 1954TIP3    H227354   3.891   2.571  16.892  0.2436  1.0493 -2.2440
 1955TIP3   OH227355   4.813   2.536  16.218 -0.3668  0.3845 -0.2604
 1955TIP3    H127356   4.724   2.558  16.191 -0.3784 -0.4437 -0.9264
 1955TIP3    H227357   4.802   2.481  16.295 -0.4892 -0.6731 -1.0132
 1956TIP3   OH227358   0.146   4.733  14.687  0.2939  0.1248 -0.1255
 1956TIP3    H127359   0.133   4.692  14.601  0.6275 -1.1271  0.3975
 1956TIP3    H227360   0.141   4.661  14.749 -1.7199  1.2397  1.1050
 1957TIP3   OH227361   0.918   1.947   5.348 -0.1112  0.2616  0.4517
 1957TIP3    H127362   0.963   2.007   5.407 -2.7971  0.6540  2.2715
 1957TIP3    H227363   0.825   1.961   5.365 -0.9197 -2.4825 -1.0217
 1958TIP3   OH227364   1.128   2.445   6.251  0.3479  0.2110  0.4012
 1958TIP3    H127365   1.168   2.392   6.182  0.3330 -0.7055  1.0795
 1958TIP3    H227366   1.040   2.464   6.219  0.3324 -0.2309  0.1797
 1959TIP3   OH227367   5.007   1.736   1.300 -0.0098 -0.1066 -0.2198
 1959TIP3    H127368   4.935   1.799   1.302 -0.5000 -0.6807  1.7417
 1959TIP3    H227369   5.083   1.787   1.328 -0.2943 -0.2422  0.8182
 1960TIP3   OH227370   0.474   3.496  15.267 -0.0367 -0.7838 -0.2541
 1960TIP3    H127371   0.448   3.430  15.331 -0.9667 -0.9476 -0.7835
 1960TIP3    H227372   0.404   3.562  15.271  0.2878 -0.4178 -0.5503
 1961TIP3   OH227373   0.019   4.883   3.694 -0.2537  0.2721  0.1325
 1961TIP3    H127374  -0.017   4.968   3.668 -0.5524 -0.2827 -1.3349
 1961TIP3    H227375  -0.042   4.819   3.659  1.0399 -0.6213 -0.5711
 1962TIP3   OH227376   3.117   2.456  12.365 -0.3720  0.3189 -0.1249
 1962TIP3    H127377   3.093   2.389  12.301 -1.3282  0.9159 -0.4233
 1962TIP3    H227378   3.033   2.495  12.392  0.1035  0.8510  0.6322
 1963TIP3   OH227379   2.225   2.699   0.343  0.2094 -0.4886  0.0465
 1963TIP3    H127380   2.138   2.659   0.344  0.6935 -1.6097  1.8743
 1963TIP3    H227381   2.271   2.653   0.273 -0.7437  0.3755 -1.1897
 1964TIP3   OH227382   4.452   1.135  15.462  0.2154 -0.3722  0.0626
 1964TIP3    H127383   4.509   1.072  15.418  1.6885 -0.0249  1.3613
 1964TIP3    H227384   4.477   1.220  15.425  0.1383 -0.2818  0.2181
 1965TIP3   OH227385   5.750   2.079  11.865  0.2973  0.6116 -0.2309
 1965TIP3    H127386   5.741   2.172  11.846  1.0055  0.8975  0.7613
 1965TIP3    H227387   5.810   2.075  11.940  0.0377 -0.6221 -0.0643
 1966TIP3   OH227388   5.985   1.791   4.225  0.0020 -0.1097  0.4239
 1966TIP3    H127389   6.053   1.859   4.222  1.1328 -1.1589  0.9217
 1966TIP3    H227390   5.955   1.783   4.135 -1.3130  2.1269  0.5916
 1967TIP3   OH227391   4.786   5.868  17.077 -0.2312  0.4016  0.5226
 1967TIP3    H127392   4.863   5.925  17.080  0.8478 -1.0035  0.2430
 1967TIP3    H227393   4.744   5.890  16.994  0.4505  0.4495  0.1844
 1968TIP3   OH227394   2.619   0.121  13.715 -0.1450  1.1802  0.3348
 1968TIP3    H127395   2.620   0.212  13.743  0.3042  1.5205 -0.7449
 1968TIP3    H227396   2.575   0.122  13.630 -1.7611  0.1356  1.0845
 1969TIP3   OH227397   2.069   0.018   1.459 -0.1812 -0.4596 -0.4922
 1969TIP3    H127398   2.041  -0.065   1.421  0.2794 -1.6215  1.5414
 1969TIP3    H227399   2.163   0.009   1.470 -0.2079  0.0827  0.2885
 1970TIP3   OH227400   2.305   4.824   1.506 -0.2229 -0.0025  0.2407
 1970TIP3    H127401   2.214   4.801   1.490 -0.5276  0.6419  1.0103
 1970TIP3    H227402   2.312   4.830   1.602 -0.2150  3.2600  0.1227
 1971TIP3   OH227403   4.486   0.009  13.780 -0.0416 -0.0648 -0.3694
 1971TIP3    H127404   4.394   0.017  13.805 -0.2662 -1.7406 -0.5019
 1971TIP3    H227405   4.535   0.044  13.855 -0.7760  0.7393 -0.2531
 1972TIP3   OH227406   3.053   1.128   5.032 -0.0110 -0.0793 -0.3725
 1972TIP3    H127407   3.065   1.202   4.972 -0.6565  0.3866  0.0557
 1972TIP3    H227408   3.016   1.168   5.111  1.5154 -0.5578  0.6339
 1973TIP3   OH227409   0.154   3.784  13.978 -0.6978  0.1315  0.0350
 1973TIP3    H127410   0.133   3.877  13.988 -0.2232  0.2313  0.1735
 1973TIP3    H227411   0.126   3.761  13.890  1.3411  1.0303 -0.9183
 1974TIP3   OH227412   6.188   4.786   5.566  0.2883 -0.3631  0.7117
 1974TIP3    H127413   6.272   4.768   5.524  0.0207 -1.8646  0.7827
 1974TIP3    H227414   6.197   4.750   5.654  0.1363  0.9596  1.2950
 1975TIP3   OH227415   0.484   5.267  15.793 -0.1419 -1.0083  0.3053
 1975TIP3    H127416   0.552   5.297  15.734  0.5559 -0.5389  1.3088
 1975TIP3    H227417   0.402   5.302  15.756  0.3873  0.1297  0.1572
 1976TIP3   OH227418   0.503   5.829  13.545 -0.1256  0.2878  0.0775
 1976TIP3    H127419   0.576   5.828  13.483  1.3908  0.3055  1.7856
 1976TIP3    H227420   0.445   5.759  13.515  2.0992 -1.8000  0.3417
 1977TIP3   OH227421   0.132   0.724  15.402 -0.3607  0.3259 -0.4882
 1977TIP3    H127422   0.153   0.644  15.353  1.4749  1.2504 -1.2832
 1977TIP3    H227423   0.210   0.778  15.395 -0.4786  1.0385  2.4634
 1978TIP3   OH227424   1.501   2.833   0.125  0.1054 -0.5096  0.5101
 1978TIP3    H127425   1.518   2.927   0.113  0.1165 -0.7224 -1.3969
 1978TIP3    H227426   1.429   2.830   0.188  1.1811  0.6943  1.8738
 1979TIP3   OH227427   2.264   1.350  10.216  0.2789  0.0662 -0.2148
 1979TIP3    H127428   2.191   1.389  10.264  0.3688 -0.8381  0.6761
 1979TIP3    H227429   2.339   1.408  10.235 -0.1535  0.9251 -1.0329
 1980TIP3   OH227430   3.678   3.175   3.519 -0.4355  0.8279 -0.2111
 1980TIP3    H127431   3.765   3.195   3.486 -0.5387  2.7235  0.5596
 1980TIP3    H227432   3.639   3.119   3.451  0.8879  1.0674 -1.2055
 1981TIP3   OH227433   5.616   1.050   2.490 -0.0262 -0.2283  0.1862
 1981TIP3    H127434   5.698   1.001   2.495 -0.6249 -1.3722 -0.4821
 1981TIP3    H227435   5.590   1.041   2.398 -2.5065 -2.7193  0.9876
 1982TIP3   OH227436   6.363   2.939   2.326 -0.0404  0.1534 -0.0097
 1982TIP3    H127437   6.275   2.968   2.304  0.4334 -0.3967 -3.1570
 1982TIP3    H227438   6.418   3.015   2.307  0.3066  0.0843  0.6891
 1983TIP3   OH227439   6.049   0.233   4.557 -0.4395 -0.4149  0.1024
 1983TIP3    H127440   6.034   0.147   4.519 -2.0172 -0.4319  0.6971
 1983TIP3    H227441   5.962   0.268   4.574  0.1346  1.5268 -0.5918
 1984TIP3   OH227442   3.349   6.242   1.282 -0.1855  0.1702 -0.0821
 1984TIP3    H127443   3.431   6.246   1.233  0.7961 -1.3495  1.3100
 1984TIP3    H227444   3.368   6.288   1.364 -0.5763 -0.5304  0.4149
 1985TIP3   OH227445   4.325   3.915  12.210 -0.0053 -0.3080  0.0923
 1985TIP3    H127446   4.389   3.924  12.140 -0.2426 -2.4964 -0.4843
 1985TIP3    H227447   4.373   3.935  12.290  1.2848 -1.3955 -0.3752
 1986TIP3   OH227448   5.441   2.599   6.002  0.1965 -0.7498 -0.2914
 1986TIP3    H127449   5.521   2.556   6.033  0.1001 -0.5675  0.2149
 1986TIP3    H227450   5.472   2.676   5.954  0.3072  0.5543  1.7266
 1987TIP3   OH227451   0.625   5.408   1.183 -0.1821 -0.4731 -0.3224
 1987TIP3    H127452   0.559   5.470   1.215  0.4576 -0.9413  2.1722
 1987TIP3    H227453   0.709   5.444   1.213  0.5757 -0.6840 -2.0706
 1988TIP3   OH227454   0.708   0.485  13.129  0.2263  0.0743 -0.2492
 1988TIP3    H127455   0.674   0.479  13.218  0.4914  1.8108  0.0174
 1988TIP3    H227456   0.632   0.468  13.073 -0.1938  0.0332  0.3201
 1989TIP3   OH227457   5.503   5.362  11.006  0.0898  0.0004  0.0607
 1989TIP3    H127458   5.445   5.313  11.065 -0.1328 -1.1963 -1.0853
 1989TIP3    H227459   5.466   5.450  11.003 -0.0844 -0.0032  1.4204
 1990TIP3   OH227460   6.483   5.987   0.866 -0.2995  0.4407 -0.7314
 1990TIP3    H127461   6.397   6.013   0.900  0.2830  0.8126  0.5220
 1990TIP3    H227462   6.512   5.917   0.925  1.6217  2.4705  0.8711
 1991TIP3   OH227463   4.202   2.815  12.003  0.1079  0.2279  0.1633
 1991TIP3    H127464   4.183   2.752  11.934 -0.3437  1.4366 -0.8589
 1991TIP3    H227465   4.262   2.878  11.963 -1.1013  1.6272  0.4413
 1992TIP3   OH227466   0.947   6.339  12.970  0.5100  0.4763 -0.1829
 1992TIP3    H127467   0.881   6.315  12.904  0.8720  0.0567 -0.3935
 1992TIP3    H227468   0.952   6.263  13.028 -1.2368  1.5533  1.5296
 1993TIP3   OH227469   6.210   4.272  15.688 -0.5118 -0.6237  0.1362
 1993TIP3    H127470   6.231   4.346  15.632  0.1312  0.0101  1.1878
 1993TIP3    H227471   6.160   4.213  15.632 -0.8697  0.5089 -0.7731
 1994TIP3   OH227472   2.446   4.016   0.329 -0.1950 -0.0067  0.0306
 1994TIP3    H127473   2.486   3.971   0.403 -0.0887 -0.2949 -0.1993
 1994TIP3    H227474   2.493   4.099   0.323 -0.1577 -0.0117  0.2429
 1995TIP3   OH227475   0.018   2.799   3.271  0.0924 -0.5449 -0.3429
 1995TIP3    H127476  -0.039   2.876   3.266  0.3246 -0.2012  1.4914
 1995TIP3    H227477  -0.005   2.747   3.194 -2.7610 -0.4658  0.3302
 1996TIP3   OH227478   6.362   5.512  16.661  0.5007 -0.0327 -0.1581
 1996TIP3    H127479   6.457   5.497  16.665  0.4401 -0.1627  1.6026
 1996TIP3    H227480   6.333   5.504  16.752 -1.3957 -1.1550 -0.8082
 1997TIP3   OH227481   0.493   4.602   0.752 -0.3732 -0.3197  0.2567
 1997TIP3    H127482   0.538   4.650   0.682 -0.9895  0.3690  0.3119
 1997TIP3    H227483   0.403   4.635   0.750  0.1673  1.7916  3.1062
 1998TIP3   OH227484   0.347   4.258  16.470 -0.2198 -0.4423 -0.1995
 1998TIP3    H127485   0.254   4.277  16.476 -0.2212 -0.7372  1.1316
 1998TIP3    H227486   0.389   4.344  16.467 -0.5111 -0.3050 -0.3769
 1999TIP3   OH227487   5.508   3.674  14.225 -0.3451  0.3165 -0.1137
 1999TIP3    H127488   5.529   3.588  14.263  0.1131 -0.9099 -2.9233
 1999TIP3    H227489   5.424   3.661  14.182  0.1823  0.9770 -1.3852
 2000TIP3   OH227490   5.210   1.273  12.579 -0.1208  0.2404  0.0353
 2000TIP3    H127491   5.303   1.288  12.593  0.0659 -1.1756  0.4550
 2000TIP3    H227492   5.190   1.194  12.630 -1.7473  0.9990  0.6689
 2001TIP3   OH227493   5.288   1.142   2.340 -0.0290  0.3819  0.2285
 2001TIP3    H127494   5.300   1.233   2.311 -2.4730  0.6896  0.0168
 2001TIP3    H227495   5.238   1.101   2.270  0.5241 -0.9989  0.6094
 2002TIP3   OH227496   5.652   6.597  12.724 -0.3978  0.1533 -0.2193
 2002TIP3    H127497   5.654   6.641  12.810  2.5205  0.4840 -0.3437
 2002TIP3    H227498   5.624   6.508  12.744  0.0805  0.2626  1.0884
 2003TIP3   OH227499   1.613   3.710   3.245  0.3857  0.0843 -0.1998
 2003TIP3    H127500   1.612   3.743   3.155  0.2844  0.5160 -0.0429
 2003TIP3    H227501   1.704   3.682   3.259 -0.0834 -2.0804 -1.1742
 2004TIP3   OH227502   2.059   2.910   4.100  0.0811  0.1565  0.2129
 2004TIP3    H127503   2.130   2.916   4.036  0.4192 -1.2681  0.4295
 2004TIP3    H227504   1.983   2.946   4.054  0.1908 -1.3186 -1.2077
 2005TIP3   OH227505   6.243   5.484   1.801 -0.2626  0.4080 -0.0118
 2005TIP3    H127506   6.307   5.510   1.867  0.3466 -0.2960 -0.3182
 2005TIP3    H227507   6.161   5.524   1.831  0.2577  1.1234  0.5090
 2006TIP3   OH227508   0.377   1.274   2.820 -0.1221  0.4690 -0.1435
 2006TIP3    H127509   0.413   1.205   2.764 -0.9084  1.0606 -1.4323
 2006TIP3    H227510   0.418   1.354   2.788 -1.2012  0.9188 -0.4544
 2007TIP3   OH227511   2.647   5.497  13.548 -0.2212  0.1055 -0.1136
 2007TIP3    H127512   2.642   5.577  13.600 -1.3244  0.7660 -1.1872
 2007TIP3    H227513   2.741   5.482  13.537  0.0251  1.9150 -0.8489
 2008TIP3   OH227514   4.742   3.771   6.838  0.1946  0.1205  0.5463
 2008TIP3    H127515   4.661   3.750   6.885  1.1046 -1.7121  1.4468
 2008TIP3    H227516   4.798   3.813   6.904  0.6197 -0.3086  0.4721
 2009TIP3   OH227517   4.846   5.616  15.053  0.5945 -0.1058  0.0392
 2009TIP3    H127518   4.914   5.662  15.103  1.0250  0.0637 -0.6894
 2009TIP3    H227519   4.804   5.685  15.000  1.3629 -0.5552 -1.1935
 2010TIP3   OH227520   3.452   5.688  14.044  0.0854 -0.0158 -0.2267
 2010TIP3    H127521   3.525   5.637  14.078  2.1687  1.1467 -2.6306
 2010TIP3    H227522   3.432   5.750  14.114  1.5947 -0.1722  0.3806
 2011TIP3   OH227523   2.161   1.398   1.116  0.0727 -0.0701 -0.2112
 2011TIP3    H127524   2.251   1.380   1.091  0.2571 -0.6833  0.8392
 2011TIP3    H227525   2.112   1.320   1.087 -0.2719  0.5821 -1.4577
 2012TIP3   OH227526   1.480   3.446   5.915  0.5188  0.3243  0.2473
 2012TIP3    H127527   1.549   3.461   5.979  0.8347  2.9222 -0.5919
 2012TIP3    H227528   1.421   3.384   5.957  2.5072 -0.7368  1.6170
 2013TIP3   OH227529   1.985   1.352   2.623  0.2085  0.0318 -0.6147
 2013TIP3    H127530   2.002   1.341   2.717  1.3183 -1.0164 -0.9062
 2013TIP3    H227531   1.916   1.289   2.603  1.5502 -1.4034 -0.9049
 2014TIP3   OH227532   0.074   4.689   1.246 -0.0514  0.0560  0.2492
 2014TIP3    H127533  -0.018   4.684   1.218 -0.0114  1.0723 -0.1242
 2014TIP3    H227534   0.079   4.772   1.295  0.5187 -0.3270  0.8563
 2015TIP3   OH227535   5.000   1.517  12.183  0.2206  0.6453 -0.3277
 2015TIP3    H127536   5.066   1.583  12.162 -1.0833  1.2548 -2.9430
 2015TIP3    H227537   5.042   1.462  12.249  2.4611  2.3344 -0.2125
 2016TIP3   OH227538   5.291   2.906  15.519 -0.2855  0.7081 -0.3971
 2016TIP3    H127539   5.352   2.979  15.509  1.5580 -0.7448 -0.4362
 2016TIP3    H227540   5.244   2.925  15.600  0.4368  1.7365 -0.2023
 2017TIP3   OH227541   5.168   4.114   0.109 -0.6096 -0.5229 -0.3447
 2017TIP3    H127542   5.246   4.063   0.132 -0.6501 -0.6115 -0.4055
 2017TIP3    H227543   5.193   4.205   0.128 -0.3364 -0.5019 -0.7680
 2018TIP3   OH227544   6.507   1.058  10.754 -0.0071  0.4031 -0.3225
 2018TIP3    H127545   6.430   1.072  10.700  0.8718 -1.5660 -2.2052
 2018TIP3    H227546   6.478   0.999  10.824 -0.2073 -0.4814 -1.1312
 2019TIP3   OH227547   6.742   1.079   4.345 -0.0142  0.0680 -0.0051
 2019TIP3    H127548   6.780   1.167   4.342  2.2649 -0.7146  2.2207
 2019TIP3    H227549   6.817   1.020   4.353 -1.5404 -1.8669  1.2625
 2020TIP3   OH227550   5.856   0.785   2.054 -0.4747 -0.7445  0.1715
 2020TIP3    H127551   5.829   0.819   2.139 -1.0854 -1.1665  0.1579
 2020TIP3    H227552   5.876   0.863   2.002  0.5182 -0.5029  0.8888
 2021TIP3   OH227553   3.094   4.248   0.993 -0.0179  0.0937 -0.3641
 2021TIP3    H127554   3.160   4.213   1.053  0.0798  0.6719 -0.1299
 2021TIP3    H227555   3.010   4.224   1.034  0.0482  0.0878 -0.2297
 2022TIP3   OH227556   1.474   4.073  13.743 -0.6444  0.6684  0.0617
 2022TIP3    H127557   1.385   4.068  13.778 -0.5768  0.4944  0.2087
 2022TIP3    H227558   1.514   3.989  13.765 -1.1920 -0.2200 -2.0738
 2023TIP3   OH227559   5.748   1.640   4.796 -0.2324 -0.7226  0.2269
 2023TIP3    H127560   5.756   1.731   4.768  2.4359 -0.7869  0.4862
 2023TIP3    H227561   5.789   1.589   4.726 -0.4897 -1.6020  0.6923
 2024TIP3   OH227562   4.262   4.070   2.256 -0.3185  0.0543 -0.0818
 2024TIP3    H127563   4.247   4.153   2.303  1.6512 -0.1193  0.9369
 2024TIP3    H227564   4.180   4.022   2.266 -1.1705  1.4873  0.1232
 2025TIP3   OH227565   1.477   5.124  12.909 -0.1270  0.0320  0.1075
 2025TIP3    H127566   1.446   5.034  12.903 -2.0802  0.6436  0.2377
 2025TIP3    H227567   1.460   5.150  12.999  1.1478  0.3128  0.2868
 2026TIP3   OH227568   1.715   6.294  10.688 -0.0964 -0.0423 -0.1074
 2026TIP3    H127569   1.775   6.220  10.702  0.2364  0.5010  1.4659
 2026TIP3    H227570   1.736   6.356  10.758 -1.8118  0.6153 -0.1416
 2027TIP3   OH227571   4.016   0.484  13.896 -0.3040  0.0117  0.0446
 2027TIP3    H127572   4.104   0.516  13.877 -1.0833  0.9800 -2.2176
 2027TIP3    H227573   3.965   0.503  13.817 -2.8696  0.5868  1.6987
 2028TIP3   OH227574   1.473   6.011   1.391  0.2413 -0.8285  0.0098
 2028TIP3    H127575   1.509   5.945   1.450 -0.2242 -2.9008 -1.8797
 2028TIP3    H227576   1.549   6.038   1.338  0.6710  1.0642  1.5083
 2029TIP3   OH227577   5.245   2.490   4.933 -0.0519  0.2265  0.2957
 2029TIP3    H127578   5.178   2.559   4.926  0.6267  0.8552 -0.1227
 2029TIP3    H227579   5.220   2.426   4.865 -0.2573  0.4278  0.1785
 2030TIP3   OH227580   3.219   3.194   2.621 -0.5310 -0.3096 -0.1059
 2030TIP3    H127581   3.299   3.161   2.581 -0.6088 -0.2981 -0.2737
 2030TIP3    H227582   3.150   3.136   2.587 -0.4741 -0.9226  0.7738
 2031TIP3   OH227583   3.823   4.884   2.131  0.3526 -0.2501  0.3436
 2031TIP3    H127584   3.891   4.886   2.198  1.1706  0.2752 -0.4756
 2031TIP3    H227585   3.862   4.838   2.057 -0.1189  0.1825 -0.1922
 2032TIP3   OH227586   1.585   0.212   0.985 -0.4481  1.1409  0.6138
 2032TIP3    H127587   1.659   0.216   0.925 -0.9362  1.2447  0.0097
 2032TIP3    H227588   1.522   0.275   0.950 -1.2318  0.3412  0.5529
 2033TIP3   OH227589   5.969   0.761   4.137 -0.0053 -0.5018 -0.0359
 2033TIP3    H127590   5.989   0.828   4.203  1.4729 -0.6646 -0.2916
 2033TIP3    H227591   5.976   0.678   4.183 -0.4449 -0.5513 -0.0538
 2034TIP3   OH227592   4.828   3.813   0.799 -0.9572  0.7701  0.3146
 2034TIP3    H127593   4.920   3.803   0.825 -1.3178 -0.3400  1.2769
 2034TIP3    H227594   4.832   3.844   0.709  0.3566  0.8733  0.3766
 2035TIP3   OH227595   3.157   3.355  15.902 -0.4507  0.3081  0.0814
 2035TIP3    H127596   3.137   3.424  15.965 -0.7268  0.3950 -0.1020
 2035TIP3    H227597   3.252   3.344  15.908 -0.4152  0.6552  0.1605
 2036TIP3   OH227598   3.903   1.389  14.919  0.1327 -0.3272 -0.7566
 2036TIP3    H127599   3.921   1.459  14.857  0.0890  0.1018 -0.2963
 2036TIP3    H227600   3.970   1.323  14.902  0.8359  0.3008 -0.4924
 2037TIP3   OH227601   1.983   2.033   2.499 -0.6541 -0.0838 -0.4845
 2037TIP3    H127602   1.897   2.021   2.538 -1.1880  2.9640 -0.4442
 2037TIP3    H227603   1.974   2.112   2.446  1.8617 -0.2369 -1.2625
 2038TIP3   OH227604   3.869   1.783  14.482  0.1772 -0.1386 -0.3725
 2038TIP3    H127605   3.894   1.857  14.427  1.2828 -0.1976  0.0158
 2038TIP3    H227606   3.912   1.800  14.566  0.2855 -1.1119 -0.2172
 2039TIP3   OH227607   1.700   3.023  15.327  0.0635  0.5147  0.8889
 2039TIP3    H127608   1.624   2.974  15.295  1.9316 -1.8115 -0.3630
 2039TIP3    H227609   1.699   3.010  15.422 -1.2912  0.8462  0.9304
 2040TIP3   OH227610   5.276   2.868  11.394 -0.3306 -0.0038  0.1885
 2040TIP3    H127611   5.191   2.830  11.412 -0.5300 -0.1799 -1.0146
 2040TIP3    H227612   5.304   2.907  11.477 -1.1898 -0.6877  0.8108
 2041TIP3   OH227613   4.081   6.515   3.195 -0.0721  0.1148 -0.0943
 2041TIP3    H127614   4.162   6.511   3.144  0.6668 -0.5939  1.0581
 2041TIP3    H227615   4.111   6.516   3.286 -1.2426  3.2354  0.3844
 2042TIP3   OH227616   5.124   5.224   2.509 -0.1885 -0.3377  0.2232
 2042TIP3    H127617   5.060   5.277   2.461  1.3210  0.5463 -0.9377
 2042TIP3    H227618   5.107   5.134   2.481 -0.1477  0.0328 -1.0715
 2043TIP3   OH227619   0.508   4.264  16.215  0.0375  0.8050 -0.5499
 2043TIP3    H127620   0.567   4.325  16.170  1.9510 -1.4905 -1.3578
 2043TIP3    H227621   0.496   4.302  16.302  0.8596  2.5036 -1.1346
 2044TIP3   OH227622   2.341   6.309  11.344  0.7614  0.0432  0.1395
 2044TIP3    H127623   2.283   6.295  11.269  1.6599  2.6915 -1.1594
 2044TIP3    H227624   2.282   6.342  11.413  0.5227  2.0924 -0.9610
 2045TIP3   OH227625   3.740   2.396  11.927  0.4283  0.2435 -0.0828
 2045TIP3    H127626   3.814   2.454  11.945  0.5615  0.5918 -1.6474
 2045TIP3    H227627   3.730   2.399  11.832  0.3062 -2.1223 -0.2010
 2046TIP3   OH227628   4.239   5.663   3.545  0.8083 -0.8069  0.0220
 2046TIP3    H127629   4.254   5.741   3.493  3.0819 -1.2770 -0.1295
 2046TIP3    H227630   4.144   5.652   3.546  0.4090  1.9870  0.1474
 2047TIP3   OH227631   5.343   1.271  13.046 -0.0276  0.3583 -0.1264
 2047TIP3    H127632   5.359   1.211  13.120  0.1373  2.2852  1.4856
 2047TIP3    H227633   5.251   1.257  13.024 -0.0133 -0.4420  0.2689
 2048TIP3   OH227634   6.158   4.695  14.026  0.4086 -0.3865  0.0584
 2048TIP3    H127635   6.134   4.618  14.077 -1.0548  0.7383  1.1595
 2048TIP3    H227636   6.231   4.734  14.073 -0.4216  0.2065  0.8910
 2049TIP3   OH227637   4.853   3.814  13.092 -0.5028 -0.0448  0.0660
 2049TIP3    H127638   4.841   3.909  13.097  0.3239 -0.0076  2.2274
 2049TIP3    H227639   4.948   3.802  13.091 -0.5986 -0.8585  0.0541
 2050TIP3   OH227640   6.652   4.717  13.225 -0.0617 -0.3164  0.1833
 2050TIP3    H127641   6.657   4.764  13.142  1.4003  0.4768  0.6764
 2050TIP3    H227642   6.646   4.625  13.201 -0.3507 -0.0516 -0.7959
 2051TIP3   OH227643   4.493   6.052   3.314  0.0498 -0.2837  0.0470
 2051TIP3    H127644   4.576   6.099   3.319  0.4277 -0.8710 -0.4611
 2051TIP3    H227645   4.430   6.117   3.283  0.6521 -0.2076 -1.0770
 2052TIP3   OH227646   3.103   4.618   1.697 -0.1449 -0.2297  0.8249
 2052TIP3    H127647   3.073   4.708   1.694  1.2097  0.2217 -0.5043
 2052TIP3    H227648   3.190   4.622   1.736  0.0482 -0.9099  0.4870
 2053TIP3   OH227649   1.000   3.487   3.060  0.5591  0.1805 -0.3148
 2053TIP3    H127650   0.962   3.564   3.101  1.9793 -0.1359  1.7543
 2053TIP3    H227651   1.068   3.521   3.002  1.8228  0.5494  1.2868
 2054TIP3   OH227652   1.101   0.621   0.349 -0.0852 -0.3732  1.0002
 2054TIP3    H127653   1.016   0.665   0.354 -1.0441 -2.0952  0.5299
 2054TIP3    H227654   1.115   0.603   0.256  0.7412 -0.2435  1.0843
 2055TIP3   OH227655   4.244   0.628   5.463  0.1232  0.2073 -0.0982
 2055TIP3    H127656   4.203   0.555   5.415  0.9701  0.6381 -1.5337
 2055TIP3    H227657   4.272   0.589   5.546 -0.2597 -0.8708 -0.4508
 2056TIP3   OH227658   0.207   1.649   0.170  0.0030  0.2145  0.5502
 2056TIP3    H127659   0.300   1.672   0.173 -0.1803  1.0717  0.0731
 2056TIP3    H227660   0.165   1.705   0.235 -0.2156  0.0270  0.5744
 2057TIP3   OH227661   5.977   4.163  16.289 -0.6483 -0.1259 -0.3038
 2057TIP3    H127662   5.926   4.193  16.365  0.2140  0.9228 -0.1133
 2057TIP3    H227663   5.982   4.068  16.300 -1.7152 -0.1412  0.1972
 2058TIP3   OH227664   1.605   0.548  14.558 -0.9320  0.6328  0.2032
 2058TIP3    H127665   1.653   0.564  14.639  1.2595 -1.6112 -0.5508
 2058TIP3    H227666   1.624   0.457  14.536 -2.0143  0.9752 -2.4964
 2059TIP3   OH227667   0.202   5.780   0.622 -0.1762  0.2677  0.4305
 2059TIP3    H127668   0.111   5.795   0.645 -1.2992 -2.2571 -1.8598
 2059TIP3    H227669   0.236   5.725   0.693 -1.1095 -0.6149  0.2034
 2060TIP3   OH227670   2.734   5.296  11.605  0.4390  0.4176 -0.2594
 2060TIP3    H127671   2.717   5.387  11.629  0.2580  0.3793 -0.2401
 2060TIP3    H227672   2.826   5.296  11.577  0.5241  0.5487  0.0126
 2061TIP3   OH227673   5.661   6.631  13.768  0.1367  0.5816 -0.0244
 2061TIP3    H127674   5.753   6.649  13.789  0.2436  0.8997 -0.7348
 2061TIP3    H227675   5.622   6.607  13.851  1.0402 -0.2942  0.1603
 2062TIP3   OH227676   4.753   5.437   3.238  0.0483  0.0808  0.0147
 2062TIP3    H127677   4.848   5.444   3.228  0.3306 -1.9054  0.9256
 2062TIP3    H227678   4.726   5.375   3.171 -0.2352 -1.2755  1.3402
 2063TIP3   OH227679   4.612   3.961  12.438 -0.6149  0.1380 -0.5208
 2063TIP3    H127680   4.649   3.889  12.489  0.3316 -0.7756 -2.4181
 2063TIP3    H227681   4.527   3.979  12.480  0.5054  0.1067  1.9447
 2064TIP3   OH227682   4.563   0.243  12.212  0.1999 -0.1195  0.0165
 2064TIP3    H127683   4.472   0.264  12.232 -0.5210 -2.5036 -0.4529
 2064TIP3    H227684   4.609   0.255  12.296 -0.8276 -0.3316  0.6291
 2065TIP3   OH227685   4.404   2.724   4.177  0.5668  0.0942 -0.6253
 2065TIP3    H127686   4.340   2.658   4.149 -1.4671  1.3545  0.7701
 2065TIP3    H227687   4.473   2.673   4.220 -1.3424 -1.1590  1.1512
 2066TIP3   OH227688   2.499   0.379   0.400 -0.3367  0.3946 -0.1043
 2066TIP3    H127689   2.459   0.300   0.363  1.2040 -0.6385  0.3246
 2066TIP3    H227690   2.538   0.423   0.324  0.9030 -0.5646 -0.0563
 2067TIP3   OH227691   3.848   3.679   3.252  0.3027 -0.2330 -0.1315
 2067TIP3    H127692   3.932   3.725   3.257 -0.0934  0.4475  0.6292
 2067TIP3    H227693   3.869   3.592   3.218  1.4161 -0.3420  0.8054
 2068TIP3   OH227694   2.506   1.064   3.941 -0.1385  0.2072  0.2086
 2068TIP3    H127695   2.565   1.119   3.993  0.0565 -1.1981  1.5406
 2068TIP3    H227696   2.419   1.101   3.956  0.1468  1.0787 -0.1815
 2069TIP3   OH227697   1.624   1.670   3.470  0.2735 -0.2059 -0.4697
 2069TIP3    H127698   1.566   1.729   3.423 -0.7074  0.2090  1.1657
 2069TIP3    H227699   1.622   1.589   3.420 -1.9664 -0.2916 -0.3271
 2070TIP3   OH227700   6.078   3.567  17.054  0.2952  0.0755 -0.2072
 2070TIP3    H127701   6.128   3.573  16.973 -0.0922  1.3471 -0.3817
 2070TIP3    H227702   6.077   3.657  17.088 -2.7166  0.3226 -0.7376
 2071TIP3   OH227703   4.856   4.103   5.653 -0.1434  0.1543 -0.3205
 2071TIP3    H127704   4.893   4.061   5.575 -0.5771  0.6909 -0.8282
 2071TIP3    H227705   4.802   4.035   5.694 -3.0226  0.8533 -2.5875
 2072TIP3   OH227706   1.689   0.801   2.218 -0.0938  0.1346  0.2056
 2072TIP3    H127707   1.669   0.757   2.136  0.0971 -2.6316  1.5382
 2072TIP3    H227708   1.617   0.776   2.277  1.6106 -1.0504  1.9118
 2073TIP3   OH227709   2.156   3.022  15.556 -0.6550  0.2323 -0.0581
 2073TIP3    H127710   2.084   3.057  15.609 -0.2592  1.4317 -0.2759
 2073TIP3    H227711   2.137   2.929  15.548 -2.5510  0.6313 -0.6740
 2074TIP3   OH227712   2.243   4.170  16.721  0.5382  0.0907  0.0827
 2074TIP3    H127713   2.250   4.175  16.817  1.3671  2.0031 -0.0495
 2074TIP3    H227714   2.284   4.086  16.699 -0.2944 -0.7120  1.4377
 2075TIP3   OH227715   3.199   0.362   1.470  0.6441 -0.2731  0.8453
 2075TIP3    H127716   3.190   0.269   1.489  0.8682 -0.4076  0.3294
 2075TIP3    H227717   3.239   0.364   1.383  0.9381  0.3046  0.9918
 2076TIP3   OH227718   5.221   0.393  10.475 -0.3797 -0.7245  0.1213
 2076TIP3    H127719   5.171   0.473  10.461  1.1683  0.1356 -0.8761
 2076TIP3    H227720   5.169   0.342  10.536 -1.9761  0.5235 -0.1358
 2077TIP3   OH227721   0.062   0.162  15.036 -0.2453 -0.8502 -0.3787
 2077TIP3    H127722   0.065   0.161  14.941 -0.2395 -0.4654 -0.3836
 2077TIP3    H227723   0.068   0.070  15.061  1.6526 -0.8410 -0.6902
 2078TIP3   OH227724   1.126   2.584  12.572  0.0667  0.1542 -0.0764
 2078TIP3    H127725   1.172   2.559  12.652  0.9474 -0.1418 -0.6574
 2078TIP3    H227726   1.154   2.519  12.507 -0.3771  0.5806 -0.7074
 2079TIP3   OH227727   2.894   2.836  14.401  0.0341 -0.4871  0.6282
 2079TIP3    H127728   2.847   2.878  14.329  1.5704  2.3427  1.1485
 2079TIP3    H227729   2.834   2.768  14.432 -1.6912 -0.1382 -1.6926
 2080TIP3   OH227730   2.584   1.352  16.375  0.1353  0.1618 -0.0956
 2080TIP3    H127731   2.517   1.325  16.437  0.2377  0.1225 -0.0021
 2080TIP3    H227732   2.620   1.433  16.412 -0.8629  0.9906 -0.8741
 2081TIP3   OH227733   0.023   2.576  11.521 -0.4662  0.5146  0.5391
 2081TIP3    H127734   0.095   2.592  11.459 -0.8399  0.4967  0.0900
 2081TIP3    H227735   0.059   2.598  11.606 -0.5934  2.6617  0.0892
 2082TIP3   OH227736   0.499   1.074   5.274  0.0622 -0.4687 -0.2700
 2082TIP3    H127737   0.516   1.012   5.203 -0.4274 -2.3517  1.1705
 2082TIP3    H227738   0.459   1.021   5.343 -1.3518  1.6707  0.6665
 2083TIP3   OH227739   3.774   6.590  13.366 -0.8033  0.1734 -0.1477
 2083TIP3    H127740   3.867   6.613  13.365 -1.0059  1.3030 -2.7182
 2083TIP3    H227741   3.770   6.502  13.328 -0.7882  0.1066  0.0045
 2084TIP3   OH227742   0.849   2.664   0.801 -0.2920  0.3179 -0.0350
 2084TIP3    H127743   0.844   2.715   0.720  1.0451 -0.7946 -0.8674
 2084TIP3    H227744   0.905   2.589   0.779 -1.9103 -1.3633  1.2255
 2085TIP3   OH227745   6.117   0.621   3.206  0.2001 -0.4587  0.6466
 2085TIP3    H127746   6.082   0.628   3.294  0.0292 -2.6416  0.8154
 2085TIP3    H227747   6.139   0.528   3.196  2.1030  0.0927 -0.9048
 2086TIP3   OH227748   1.667   4.423  11.187  0.0916 -0.1515  0.5463
 2086TIP3    H127749   1.627   4.346  11.147  0.9021  0.1409 -0.8695
 2086TIP3    H227750   1.751   4.391  11.221 -0.8240 -0.5305  2.5972
 2087TIP3   OH227751   1.442   3.423  13.937  0.1135  0.4718 -0.6915
 2087TIP3    H127752   1.420   3.446  13.846 -1.0614  2.2567 -0.0008
 2087TIP3    H227753   1.391   3.344  13.954 -0.8014  0.9417 -1.1489
 2088TIP3   OH227754   6.715   5.753   6.083 -0.0389  0.2280  0.1035
 2088TIP3    H127755   6.743   5.839   6.116 -0.3874  0.8197 -1.0874
 2088TIP3    H227756   6.654   5.721   6.150 -2.4490  2.3780 -0.8524
 2089TIP3   OH227757   6.738   1.658  15.669  0.2336  0.3801  0.3706
 2089TIP3    H127758   6.782   1.593  15.724  0.2222 -0.4654 -0.5751
 2089TIP3    H227759   6.694   1.606  15.602  0.6425  1.3848 -0.7211
 2090TIP3   OH227760   3.102   0.881  16.526  0.2622 -0.3587 -0.2432
 2090TIP3    H127761   3.157   0.909  16.452  1.1433 -1.6276 -0.0908
 2090TIP3    H227762   3.135   0.795  16.549 -1.0375 -0.6407  0.6400
 2091TIP3   OH227763   5.556   3.534   5.544 -0.7913  0.1097 -0.1993
 2091TIP3    H127764   5.604   3.577   5.615  0.1339 -0.1277 -0.6626
 2091TIP3    H227765   5.484   3.594   5.524 -1.8765 -0.4390  1.8207
 2092TIP3   OH227766   6.366   5.749   4.418 -0.0289 -0.1799 -0.0736
 2092TIP3    H127767   6.393   5.821   4.475  1.1489 -0.0678 -0.7381
 2092TIP3    H227768   6.315   5.691   4.475  0.3183  0.4004  0.8556
 2093TIP3   OH227769   2.862   6.201   3.623  0.3409  0.1057 -0.9749
 2093TIP3    H127770   2.913   6.200   3.542 -0.6654  2.1651 -1.7176
 2093TIP3    H227771   2.902   6.270   3.675 -0.0132 -0.1152 -0.4042
 2094TIP3   OH227772   3.933   5.231   2.674  0.4674  0.4752  0.5731
 2094TIP3    H127773   3.986   5.289   2.729  0.3929  0.9049  0.1967
 2094TIP3    H227774   3.967   5.144   2.692 -0.3195  0.4567  2.1787
 2095TIP3   OH227775   0.924   2.053   1.770  0.1023  0.8874  0.3408
 2095TIP3    H127776   0.972   2.079   1.691  1.7365 -2.5177  0.0385
 2095TIP3    H227777   0.978   2.086   1.842 -0.9063  3.1833  0.1345
 2096TIP3   OH227778   0.405   1.495  15.246 -0.6550  0.0983 -0.1011
 2096TIP3    H127779   0.425   1.415  15.198  0.0154  0.1708  0.0557
 2096TIP3    H227780   0.452   1.486  15.329 -2.1960 -0.2569  0.7783
 2097TIP3   OH227781   4.923   6.613   2.878 -0.5116  0.3669  0.0446
 2097TIP3    H127782   4.828   6.612   2.892 -0.5857  0.3164 -0.4670
 2097TIP3    H227783   4.936   6.669   2.802 -0.0869  0.7628  0.3999
 2098TIP3   OH227784   2.757   1.941  16.532 -0.1520 -0.5996 -0.2746
 2098TIP3    H127785   2.840   1.975  16.498  0.3843 -2.3277 -0.7741
 2098TIP3    H227786   2.699   1.939  16.456 -0.0501 -1.1447 -0.3445
 2099TIP3   OH227787   4.237   1.615   4.851  0.0118  0.5717 -0.4508
 2099TIP3    H127788   4.261   1.563   4.927 -0.3570 -1.0737 -1.4118
 2099TIP3    H227789   4.312   1.606   4.791 -0.1712  0.9256 -0.7411
 2100TIP3   OH227790   5.355   4.593  14.668 -0.2665  0.0263  0.2311
 2100TIP3    H127791   5.372   4.685  14.686  0.0161 -0.1074  0.6685
 2100TIP3    H227792   5.262   4.589  14.646 -0.5888  0.2360  1.4839
 2101TIP3   OH227793   2.313   0.762   3.478 -0.1245 -0.1849 -0.3425
 2101TIP3    H127794   2.249   0.729   3.415 -0.3203  0.2186 -0.3627
 2101TIP3    H227795   2.290   0.855   3.489 -2.2075 -0.9278  2.8173
 2102TIP3   OH227796   4.975   6.355  14.585 -0.0872  0.1824  0.2340
 2102TIP3    H127797   4.992   6.446  14.563 -0.3415 -0.0197 -0.8662
 2102TIP3    H227798   4.944   6.316  14.503 -1.2173 -0.5934  1.0045
 2103TIP3   OH227799   0.629   3.982  12.801  0.0886  0.3945 -0.4360
 2103TIP3    H127800   0.563   4.039  12.763  0.3411  0.1244 -1.3155
 2103TIP3    H227801   0.618   3.898  12.756  1.3060  0.4759 -0.9449
 2104TIP3   OH227802   3.578   4.015  14.670  0.4107  0.2695  0.3997
 2104TIP3    H127803   3.544   4.062  14.746 -1.4596 -1.4816  0.7278
 2104TIP3    H227804   3.532   4.054  14.595 -0.3299 -0.2883  0.5559
 2105TIP3   OH227805   3.370   6.437  11.253 -0.2166 -0.0363  0.1693
 2105TIP3    H127806   3.436   6.406  11.191  1.4189 -1.4917  2.4450
 2105TIP3    H227807   3.416   6.500  11.308 -0.8339 -0.6993  1.4937
 2106TIP3   OH227808   2.982   3.581  13.615  0.4906 -0.0193 -0.4441
 2106TIP3    H127809   2.890   3.602  13.596  0.7249 -0.7530 -2.6171
 2106TIP3    H227810   3.024   3.577  13.529  1.6964 -3.6988  0.1430
 2107TIP3   OH227811   6.516   4.131   0.246 -0.3084  0.4415 -0.3070
 2107TIP3    H127812   6.473   4.200   0.297 -0.6435 -0.4341  0.6152
 2107TIP3    H227813   6.598   4.171   0.218 -0.8050  1.4506 -0.3845
 2108TIP3   OH227814   0.031   1.860  16.558  0.4806 -0.4994  0.1439
 2108TIP3    H127815   0.052   1.795  16.625  0.2579 -0.1186  0.5847
 2108TIP3    H227816  -0.061   1.843  16.536 -0.3106  1.1248  1.9323
 2109TIP3   OH227817   1.492   2.416  11.427  0.2428  0.4054  0.3291
 2109TIP3    H127818   1.485   2.447  11.517  1.5739  0.6606  0.3588
 2109TIP3    H227819   1.558   2.472  11.387  1.1060 -0.9717 -0.2325
 2110TIP3   OH227820   1.797   5.761  11.926  0.7113 -0.4304 -0.8440
 2110TIP3    H127821   1.778   5.682  11.977  1.9829 -1.5321 -1.9520
 2110TIP3    H227822   1.740   5.753  11.849 -0.0248  0.3719 -0.3890
 2111TIP3   OH227823   1.647   4.298   1.843  0.4598 -0.6290  0.1514
 2111TIP3    H127824   1.734   4.296   1.884  0.8275  1.2829 -0.4543
 2111TIP3    H227825   1.663   4.277   1.751  0.0990 -1.4522  0.2653
 2112TIP3   OH227826   4.688   4.332   5.489 -0.5256 -0.1666  0.3463
 2112TIP3    H127827   4.737   4.312   5.569  1.7563 -1.2244 -1.2079
 2112TIP3    H227828   4.754   4.367   5.429 -1.3893 -2.4618 -2.1608
 2113TIP3   OH227829   3.083   3.219  13.912 -0.1399  0.3724  0.8033
 2113TIP3    H127830   3.014   3.269  13.868 -0.4655  1.0673  2.0320
 2113TIP3    H227831   3.037   3.146  13.953 -0.3255  1.3362  2.3809
 2114TIP3   OH227832   4.589   6.787  17.232  0.6837  0.0612  0.2586
 2114TIP3    H127833   4.512   6.736  17.257  0.1993  0.2270 -0.8527
 2114TIP3    H227834   4.567   6.877  17.256 -0.6814  0.5920 -2.5443
 2115TIP3   OH227835   0.838   5.373   3.496 -0.0049  0.3143 -0.5008
 2115TIP3    H127836   0.878   5.325   3.423  0.0865 -0.4941  0.0575
 2115TIP3    H227837   0.757   5.409   3.460  0.5009  0.7312 -1.2503
 2116TIP3   OH227838   5.039   4.576   5.008  0.1008 -0.1239 -0.3757
 2116TIP3    H127839   5.001   4.632   4.940 -2.1205 -0.4636  0.5035
 2116TIP3    H227840   5.047   4.490   4.967 -0.0804 -0.0400 -0.5904
 2117TIP3   OH227841   5.847   1.735   3.266 -0.3061 -0.3143  0.7240
 2117TIP3    H127842   5.761   1.775   3.255  0.0855  0.0720 -1.5715
 2117TIP3    H227843   5.837   1.647   3.228  0.8198  0.5617 -1.8386
 2118TIP3   OH227844   5.400   3.117   5.869 -0.1282  0.0404  0.0160
 2118TIP3    H127845   5.323   3.115   5.925 -0.3654 -0.1153 -0.3138
 2118TIP3    H227846   5.447   3.197   5.896 -0.3690  0.1018  0.2578
 2119TIP3   OH227847   6.590   4.491  14.508 -0.6763  0.7694 -0.2010
 2119TIP3    H127848   6.529   4.516  14.578 -0.1557  0.7893  0.2532
 2119TIP3    H227849   6.571   4.552  14.437  0.6196  2.5802  0.9093
 2120TIP3   OH227850   1.732   1.357  12.268 -0.4476  0.2751  0.0301
 2120TIP3    H127851   1.703   1.357  12.177  1.3526 -0.5597 -0.5838
 2120TIP3    H227852   1.654   1.334  12.318 -1.6250  1.4047 -1.2302
 2121TIP3   OH227853   0.531   5.434   5.647 -0.2954 -0.4587 -0.0516
 2121TIP3    H127854   0.535   5.513   5.592  0.4969  1.5772  2.6822
 2121TIP3    H227855   0.438   5.426   5.670 -0.1129  1.1234  1.4505
 2122TIP3   OH227856   5.230   4.057   5.634  0.0399  0.3573 -0.2423
 2122TIP3    H127857   5.320   4.077   5.607  0.9341 -0.4410  1.9530
 2122TIP3    H227858   5.191   4.142   5.654  0.9135  0.5978  0.4928
 2123TIP3   OH227859   1.812   1.251  13.073 -0.0829  0.1238 -0.4869
 2123TIP3    H127860   1.904   1.277  13.069 -0.3236  2.1278  3.0821
 2123TIP3    H227861   1.766   1.319  13.024  0.0288  2.0734  1.9221
 2124TIP3   OH227862   6.609   3.245   2.976 -0.0055  0.6172  0.4001
 2124TIP3    H127863   6.540   3.312   2.969 -0.7184 -0.1625 -0.2866
 2124TIP3    H227864   6.663   3.259   2.899  0.2308  0.8153  0.6005
 2125TIP3   OH227865   3.654   2.444   3.736 -0.2752  0.3171  0.3051
 2125TIP3    H127866   3.675   2.499   3.811  0.0887 -0.0293  0.4637
 2125TIP3    H227867   3.660   2.354   3.769 -1.5658  0.1852  0.2339
 2126TIP3   OH227868   2.385   5.231   2.137 -0.4754 -0.0717  0.8181
 2126TIP3    H127869   2.453   5.218   2.071 -0.5741  0.7635  0.5359
 2126TIP3    H227870   2.356   5.321   2.124  0.1501  0.4372  2.6131
 2127TIP3   OH227871   4.981   1.514  15.359  0.5063  0.1587  0.6130
 2127TIP3    H127872   4.943   1.438  15.314 -0.5616  0.1064  1.5457
 2127TIP3    H227873   5.012   1.478  15.443  0.8958  0.5703  0.6469
 2128TIP3   OH227874   3.221   5.550  12.103  0.2166  0.1221  0.3118
 2128TIP3    H127875   3.236   5.619  12.039  0.7298  1.3901  1.7347
 2128TIP3    H227876   3.138   5.572  12.144 -0.0377 -0.5915  0.1975
 2129TIP3   OH227877   3.409   1.993  16.355 -0.3571  0.5281 -0.1734
 2129TIP3    H127878   3.402   1.898  16.367  0.6420  0.2747 -1.2978
 2129TIP3    H227879   3.465   2.023  16.426 -1.4972  0.4502  0.7790
 2130TIP3   OH227880   4.841   2.157  13.125  0.0985 -0.3645  0.1084
 2130TIP3    H127881   4.798   2.240  13.147  1.8400  0.3322  1.0431
 2130TIP3    H227882   4.828   2.148  13.030 -1.1814  0.3240  0.1909
 2131TIP3   OH227883   1.224   6.777   0.424 -0.1621  0.2983  0.3678
 2131TIP3    H127884   1.160   6.708   0.408 -0.2731  0.2336  1.0596
 2131TIP3    H227885   1.306   6.744   0.387 -0.4130  0.1682 -0.0700
 2132TIP3   OH227886   4.840   4.107   1.725 -0.1625 -0.9523  0.6502
 2132TIP3    H127887   4.844   4.182   1.666  1.0142 -2.5902 -1.4842
 2132TIP3    H227888   4.902   4.128   1.795 -0.5808  0.4344  0.6399
 2133TIP3   OH227889   1.183   6.010  17.018 -0.0333  0.0486 -0.5386
 2133TIP3    H127890   1.189   6.099  16.984 -0.2543  0.5051  0.5714
 2133TIP3    H227891   1.097   6.005  17.059  0.1725 -0.5161 -0.1559
 2134TIP3   OH227892   1.084   2.125  16.232  0.2844 -0.2126 -0.2016
 2134TIP3    H127893   1.081   2.199  16.293  0.2307  0.4667 -1.0101
 2134TIP3    H227894   1.178   2.109  16.219  0.2971 -0.2169 -0.1053
 2135TIP3   OH227895   2.963   2.498   2.821 -0.4631  0.4773  0.2216
 2135TIP3    H127896   2.927   2.577   2.862 -0.2268  0.5235  0.3467
 2135TIP3    H227897   2.989   2.443   2.895  1.6047  1.3039  0.1894
 2136TIP3   OH227898   6.163   2.554  10.438 -0.0955  0.5986  0.3967
 2136TIP3    H127899   6.202   2.543  10.351  0.2084  1.1835  0.4506
 2136TIP3    H227900   6.149   2.648  10.445  0.5616  0.6369  1.2699
 2137TIP3   OH227901   3.287   1.686   4.763  0.4283  0.3689 -0.0580
 2137TIP3    H127902   3.308   1.612   4.820  1.1544  0.2142 -0.5133
 2137TIP3    H227903   3.192   1.690   4.763  0.4110  0.5584  1.3964
 2138TIP3   OH227904   1.420   2.752   0.641  0.3566  0.1575 -0.5328
 2138TIP3    H127905   1.419   2.733   0.548  0.3027 -0.5697 -0.3897
 2138TIP3    H227906   1.409   2.667   0.683 -1.1435  0.6392  0.1257
 2139TIP3   OH227907   1.873   6.515  11.157  0.4353  0.0311  0.5472
 2139TIP3    H127908   1.925   6.542  11.082 -2.2129 -0.5392 -1.6703
 2139TIP3    H227909   1.882   6.420  11.160  0.4060  0.0362  0.8489
 2140TIP3   OH227910   5.994   6.239   6.918  0.4585  0.4815 -0.4378
 2140TIP3    H127911   6.002   6.334   6.924 -0.7840  0.5383  0.7664
 2140TIP3    H227912   6.043   6.205   6.993  0.6882  0.1717 -0.7213
 2141TIP3   OH227913   5.607   5.305   0.161 -0.1160 -0.1050 -0.0652
 2141TIP3    H127914   5.682   5.264   0.205 -0.6845 -0.0097  1.0144
 2141TIP3    H227915   5.626   5.399   0.164  0.6147 -0.1806 -1.4858
 2142TIP3   OH227916   0.608   4.244   1.370 -0.4733  0.1075 -0.2813
 2142TIP3    H127917   0.640   4.223   1.457 -2.6052  4.2979  1.8115
 2142TIP3    H227918   0.570   4.162   1.338  1.5767 -1.9177  2.0476
 2143TIP3   OH227919   2.753   6.377   0.090  0.5993  0.6826  0.2015
 2143TIP3    H127920   2.702   6.338   0.020  0.7356  0.8934 -0.0165
 2143TIP3    H227921   2.814   6.436   0.046 -0.4014  2.0625  0.5884
 2144TIP3   OH227922   6.382   5.002  15.080 -0.0992 -0.1111 -0.2066
 2144TIP3    H127923   6.377   5.059  15.004  1.4083 -0.2712 -0.4662
 2144TIP3    H227924   6.293   4.969  15.093 -0.0208 -1.9006 -3.2979
 2145TIP3   OH227925   5.476   0.180  17.009 -0.4744  0.4239  0.2145
 2145TIP3    H127926   5.509   0.141  16.928  0.0284 -0.2478  0.7275
 2145TIP3    H227927   5.555   0.198  17.060 -0.7580  1.2893  0.3628
 2146TIP3   OH227928   2.529   4.518   2.582 -0.1281 -0.1630 -0.2308
 2146TIP3    H127929   2.578   4.590   2.621 -1.2551  0.5518 -0.0649
 2146TIP3    H227930   2.549   4.523   2.488 -0.7047  0.7935 -0.3135
 2147TIP3   OH227931   4.450   1.039   4.124  0.2916 -0.2104 -0.4228
 2147TIP3    H127932   4.533   1.059   4.080  1.4579 -0.5583  1.4429
 2147TIP3    H227933   4.467   0.955   4.167 -1.0889 -0.3448 -0.1039
 2148TIP3   OH227934   0.229   6.334  15.569  1.0910 -0.6923  0.0501
 2148TIP3    H127935   0.193   6.283  15.641 -0.3455  1.4625  0.9762
 2148TIP3    H227936   0.324   6.320  15.574  0.7588 -3.2402  0.1810
 2149TIP3   OH227937   2.612   4.774   0.788 -0.0011  0.1435  0.1743
 2149TIP3    H127938   2.640   4.703   0.845  1.2966  0.5844  0.1148
 2149TIP3    H227939   2.674   4.845   0.805 -1.6332  1.5046  0.6893
 2150TIP3   OH227940   3.994   5.953  12.340 -0.5863  0.1828 -0.1707
 2150TIP3    H127941   3.936   5.880  12.319 -0.9508 -0.8610  3.6159
 2150TIP3    H227942   3.937   6.017  12.383  0.4246  0.8632  0.1916
 2151TIP3   OH227943   5.111   4.567  12.285  0.1191 -0.2140  0.2032
 2151TIP3    H127944   5.183   4.506  12.296  1.3293  0.9601 -0.8109
 2151TIP3    H227945   5.041   4.533  12.340  0.3965 -3.0147 -1.0363
 2152TIP3   OH227946   3.057   0.098  16.441  0.4801  0.1544 -0.2520
 2152TIP3    H127947   3.038   0.114  16.348 -1.0238  0.9729  0.1539
 2152TIP3    H227948   3.002   0.161  16.487  0.1961 -1.1251  1.2281
 2153TIP3   OH227949   4.570   0.472   3.680  0.9184 -0.0165  0.2531
 2153TIP3    H127950   4.620   0.550   3.705 -1.8179  2.1462 -0.4067
 2153TIP3    H227951   4.538   0.491   3.592 -0.3976 -1.5684  0.3355
 2154TIP3   OH227952   1.168   2.152   2.540 -0.1003 -0.5244  0.0647
 2154TIP3    H127953   1.085   2.113   2.513  0.4592 -0.4835 -1.8297
 2154TIP3    H227954   1.162   2.243   2.512  0.6399 -0.5544 -0.2133
 2155TIP3   OH227955   1.245   1.471  12.220  0.0192  0.4089 -0.3194
 2155TIP3    H127956   1.269   1.380  12.205  1.4115  0.5574  0.8442
 2155TIP3    H227957   1.322   1.510  12.261 -0.9213  1.8643  0.1301
 2156TIP3   OH227958   4.161   2.099  16.195 -0.7953 -0.2235  0.0553
 2156TIP3    H127959   4.204   2.034  16.252 -0.9479  0.0207  0.4562
 2156TIP3    H227960   4.111   2.154  16.256 -0.7742  0.1870 -0.2958
 2157TIP3   OH227961   5.931   6.585   3.776 -0.2736 -0.2457 -0.3471
 2157TIP3    H127962   5.966   6.519   3.717 -1.1686 -0.5304 -0.5807
 2157TIP3    H227963   5.849   6.547   3.809  0.8350 -0.6768  2.1144
 2158TIP3   OH227964   1.691   6.352  14.859  0.0986 -0.2684  0.1533
 2158TIP3    H127965   1.671   6.302  14.780  0.9273  0.3092 -0.4334
 2158TIP3    H227966   1.726   6.435  14.827 -2.7026  1.4298  1.0331
 2159TIP3   OH227967   2.618   4.410  14.192  0.3612 -0.2151  0.0829
 2159TIP3    H127968   2.596   4.392  14.283 -0.3576  0.6887  0.1028
 2159TIP3    H227969   2.653   4.499  14.193 -0.9101  0.3273 -0.6917
 2160TIP3   OH227970   4.133   3.435   4.292 -0.6166  0.2420 -0.3536
 2160TIP3    H127971   4.142   3.444   4.197 -0.1411 -0.8591 -0.4306
 2160TIP3    H227972   4.102   3.521   4.322  1.3675  1.3526 -1.2294
 2161TIP3   OH227973   4.354   6.476   3.102 -0.3697  0.1785  0.2650
 2161TIP3    H127974   4.384   6.406   3.043  0.1503  0.5708  0.0616
 2161TIP3    H227975   4.331   6.548   3.044 -3.3221 -0.6400  0.2599
 2162TIP3   OH227976   1.199   5.504  13.739 -0.6016  0.2685 -0.0697
 2162TIP3    H127977   1.105   5.516  13.727 -0.7994  0.3496  1.3311
 2162TIP3    H227978   1.234   5.593  13.738 -0.7887  0.3763  1.0217
 2163TIP3   OH227979   5.291   6.787  14.662  0.2142 -0.1418  0.0784
 2163TIP3    H127980   5.232   6.720  14.697  0.4869 -1.8374 -2.4507
 2163TIP3    H227981   5.240   6.867  14.663 -1.1870 -1.0073  0.4578
 2164TIP3   OH227982   3.397   2.459  13.899 -0.1269  0.2282 -0.5208
 2164TIP3    H127983   3.443   2.376  13.904  0.4747  0.5844  0.1148
 2164TIP3    H227984   3.438   2.514  13.966 -0.2473  1.1657 -1.1853
 2165TIP3   OH227985   0.179   4.697  12.032 -0.3050  0.2508  0.6278
 2165TIP3    H127986   0.148   4.788  12.029 -2.8281 -0.4785  2.1150
 2165TIP3    H227987   0.147   4.659  11.950 -0.7174  0.2971  0.7619
 2166TIP3   OH227988   6.250   5.525   3.195  0.1565 -0.6289  0.4770
 2166TIP3    H127989   6.278   5.455   3.137 -2.6123 -2.0528  0.6777
 2166TIP3    H227990   6.317   5.528   3.264  0.7013 -2.6362  0.0916
 2167TIP3   OH227991   6.443   1.713   2.330 -0.9461  0.5025 -0.0277
 2167TIP3    H127992   6.481   1.710   2.243 -1.1694  1.1583 -0.1562
 2167TIP3    H227993   6.372   1.649   2.328 -0.7040  0.2404 -0.2043
 2168TIP3   OH227994   0.691   4.424  13.175  0.1685 -0.6483  0.0274
 2168TIP3    H127995   0.773   4.449  13.218  1.0554  0.3297 -2.0953
 2168TIP3    H227996   0.656   4.506  13.141 -1.2607 -1.1854  0.1351
 2169TIP3   OH227997   3.468   2.102  16.611  0.0122  0.7632  0.1741
 2169TIP3    H127998   3.515   2.167  16.663 -1.6545  0.3512  2.3294
 2169TIP3    H227999   3.491   2.018  16.651  3.3221 -0.3620 -3.4486
 2170TIP3   OH228000   1.406   1.979   1.161  0.1471  0.3326 -0.0004
 2170TIP3    H128001   1.496   1.947   1.156  0.8607  2.0265  1.0861
 2170TIP3    H228002   1.365   1.925   1.229  0.5375 -0.0018 -0.0280
 2171TIP3   OH228003   2.667   5.215  14.244 -0.7290 -0.5434  0.0606
 2171TIP3    H128004   2.727   5.147  14.276 -0.9901 -0.6809  0.2683
 2171TIP3    H228005   2.697   5.234  14.156  0.1919  0.0445  0.4807
 2172TIP3   OH228006   2.588   5.974   3.374 -0.1364 -0.5353  0.1372
 2172TIP3    H128007   2.642   5.951   3.450  3.2546  0.2853 -1.8579
 2172TIP3    H228008   2.526   5.901   3.367  0.2336 -1.2438  2.8894
 2173TIP3   OH228009   1.643   6.240   4.281  0.1780  0.1928  0.4245
 2173TIP3    H128010   1.665   6.204   4.368 -0.9894  0.4365  0.8379
 2173TIP3    H228011   1.631   6.334   4.297 -1.7905 -0.0185  0.3779
 2174TIP3   OH228012   3.734   4.441  16.826  0.1845 -0.2068  0.0866
 2174TIP3    H128013   3.778   4.356  16.824 -0.7601 -0.6976 -0.7548
 2174TIP3    H228014   3.755   4.478  16.912 -0.4187 -1.8401  0.9682
 2175TIP3   OH228015   1.240   1.632   5.023 -0.6006  0.6601  0.1385
 2175TIP3    H128016   1.181   1.630   5.098 -0.9280 -0.6572 -0.1250
 2175TIP3    H228017   1.222   1.550   4.977  1.1454  0.4356 -0.1789
 2176TIP3   OH228018   5.972   2.365  11.197  0.0853  0.3149  0.3160
 2176TIP3    H128019   6.057   2.400  11.169 -1.2867  2.3621 -1.5802
 2176TIP3    H228020   5.908   2.426  11.163 -2.1615 -0.4023  2.8734
 2177TIP3   OH228021   1.063   5.495  16.449  0.5498 -0.6189 -0.3586
 2177TIP3    H128022   1.003   5.557  16.407  1.6242  0.7335  0.0083
 2177TIP3    H228023   1.031   5.489  16.539  0.8530 -0.0183 -0.2031
 2178TIP3   OH228024   4.609   1.508   4.108  0.2493  1.1109 -0.5906
 2178TIP3    H128025   4.607   1.414   4.090 -2.5722  0.6215  1.4872
 2178TIP3    H228026   4.645   1.515   4.196  2.9435  2.3147 -1.7035
 2179TIP3   OH228027   3.687   0.594   5.534  0.6456 -0.4873 -0.2790
 2179TIP3    H128028   3.641   0.663   5.488  0.5655  0.1046  0.6636
 2179TIP3    H228029   3.667   0.514   5.485  1.2123  0.2192 -1.7238
 2180TIP3   OH228030   2.951   5.208   3.422 -0.3742 -0.0705  0.6603
 2180TIP3    H128031   2.985   5.297   3.409  0.7015 -0.4846  0.5918
 2180TIP3    H228032   2.869   5.207   3.373 -0.1913  0.7651  0.3162
 2181TIP3   OH228033   3.165   6.355  12.226 -0.3129 -0.0173  0.1622
 2181TIP3    H128034   3.130   6.443  12.237 -0.3769 -0.0489  0.2131
 2181TIP3    H228035   3.252   6.369  12.188  1.0024  0.2692  2.9778
 2182TIP3   OH228036   4.320   1.796  12.501 -0.2918 -0.4248  0.1300
 2182TIP3    H128037   4.287   1.831  12.584 -1.5238  1.1577 -0.9668
 2182TIP3    H228038   4.285   1.855  12.434  2.4799 -0.3253 -1.3722
 2183TIP3   OH228039   2.601   4.914  10.744  0.3789 -0.1703  0.3380
 2183TIP3    H128040   2.567   4.960  10.667  0.1043 -0.1428  0.4745
 2183TIP3    H228041   2.696   4.928  10.740  0.2051  1.4484  1.0439
 2184TIP3   OH228042   5.943   2.031  15.771 -0.0521  0.5173  0.4260
 2184TIP3    H128043   5.981   1.944  15.783  0.7535  0.1743 -3.3029
 2184TIP3    H228044   6.018   2.091  15.775 -0.2952  0.7966  0.8641
 2185TIP3   OH228045   3.773   2.268   1.324 -0.4025  0.3419 -0.0722
 2185TIP3    H128046   3.710   2.273   1.396 -0.0658  0.5675  0.2069
 2185TIP3    H228047   3.847   2.220   1.359 -0.3010  0.3160 -0.3156
 2186TIP3   OH228048   5.415   4.526   2.870 -0.5331  0.2090 -0.2701
 2186TIP3    H128049   5.383   4.436   2.862 -1.3561  0.1864  2.3053
 2186TIP3    H228050   5.346   4.580   2.831 -0.0992 -0.2299 -1.7004
 2187TIP3   OH228051   3.553   4.721   3.506 -0.0284 -0.2468 -0.4204
 2187TIP3    H128052   3.591   4.755   3.425 -0.0288  1.5899  0.2974
 2187TIP3    H228053   3.469   4.768   3.514 -0.3222 -0.8839  0.3257
 2188TIP3   OH228054   5.858   3.898  16.971 -1.0325 -0.4963 -0.0921
 2188TIP3    H128055   5.856   3.975  17.029 -0.0063 -2.0201  2.1147
 2188TIP3    H228056   5.843   3.824  17.030  0.4615 -2.1766 -1.7034
 2189TIP3   OH228057   0.804   6.079   0.051 -0.1950 -0.4916 -0.1853
 2189TIP3    H128058   0.835   6.006  -0.002  0.5639  0.1445 -0.6390
 2189TIP3    H228059   0.883   6.112   0.093 -0.4553  0.3787 -0.3717
 2190TIP3   OH228060   0.533   2.193   2.139  0.0521 -0.5857 -0.1378
 2190TIP3    H128061   0.625   2.203   2.116  0.2541  0.5608  1.0029
 2190TIP3    H228062   0.507   2.110   2.100  1.9409 -1.6018  0.6427
 2191TIP3   OH228063   5.144   0.396   3.730  0.2028 -0.2468 -0.1899
 2191TIP3    H128064   5.050   0.397   3.711 -0.0308 -2.6776  0.4266
 2191TIP3    H228065   5.155   0.321   3.788  2.2303  1.3086  1.5954
 2192TIP3   OH228066   4.472   1.594   1.331  0.5066 -0.0731 -0.1476
 2192TIP3    H128067   4.440   1.543   1.405 -1.6149 -1.6857 -2.0464
 2192TIP3    H228068   4.430   1.679   1.341  0.2816 -0.2557  0.5161
 2193TIP3   OH228069   6.381   1.647   1.306  0.3596 -0.1443 -0.3852
 2193TIP3    H128070   6.302   1.617   1.350 -0.7186 -2.4499 -3.5171
 2193TIP3    H228071   6.445   1.660   1.377 -1.3688 -2.9115  1.8981
 2194TIP3   OH228072   1.608   2.801   4.506 -0.3861 -0.3473  0.1229
 2194TIP3    H128073   1.569   2.714   4.495  0.7349 -0.8635  0.1726
 2194TIP3    H228074   1.701   2.785   4.517 -0.0811  0.9122 -0.4700
 2195TIP3   OH228075   0.669   2.835  16.444  0.1955 -0.0450 -0.4968
 2195TIP3    H128076   0.581   2.818  16.409 -0.1531 -1.6524  0.9742
 2195TIP3    H228077   0.695   2.751  16.483  1.3928  1.0531  1.1825
 2196TIP3   OH228078   0.438   5.658   5.474 -0.1168  0.2196  0.7669
 2196TIP3    H128079   0.363   5.681   5.419  0.4860 -0.5757 -0.4215
 2196TIP3    H228080   0.442   5.728   5.540 -0.9079  1.1396 -0.1312
 2197TIP3   OH228081   5.239   5.410  14.068 -0.2173 -0.1158 -0.5700
 2197TIP3    H128082   5.266   5.354  14.141  2.0630  2.4194  0.6651
 2197TIP3    H228083   5.154   5.445  14.096 -1.2747 -2.1564 -0.9924
 2198TIP3   OH228084   1.331   0.838  11.355  0.4413 -0.6366 -0.4602
 2198TIP3    H128085   1.387   0.800  11.423  0.9471 -0.3545 -0.7095
 2198TIP3    H228086   1.366   0.803  11.273  0.2329 -0.4809 -0.6171
 2199TIP3   OH228087   5.636   5.858   0.524 -0.2975  0.5355 -0.3512
 2199TIP3    H128088   5.588   5.941   0.518  0.9227  1.2529 -0.5915
 2199TIP3    H228089   5.661   5.853   0.616 -1.2358 -0.0903 -0.1172
 2200TIP3   OH228090   4.497   4.105   2.442  0.0732  0.4046  0.3941
 2200TIP3    H128091   4.543   4.043   2.386 -1.4088 -1.5298  1.1814
 2200TIP3    H228092   4.409   4.110   2.405  0.0605  1.8315  0.5454
 2201TIP3   OH228093   3.931   2.036  12.490  0.1996 -0.1155  0.3840
 2201TIP3    H128094   3.918   1.960  12.432 -0.3718  0.3514 -0.1188
 2201TIP3    H228095   3.888   2.108  12.444  1.2719  0.6532  0.5610
 2202TIP3   OH228096   5.460   0.690   0.537  0.0392 -0.0756 -0.0199
 2202TIP3    H128097   5.429   0.774   0.505  0.7343  0.1920 -0.0163
 2202TIP3    H228098   5.542   0.710   0.582  0.4502 -0.8046 -0.4090
 2203TIP3   OH228099   3.775   0.197  11.642 -0.0796  0.7165  0.2577
 2203TIP3    H128100   3.735   0.276  11.607  0.8554 -0.0709 -2.9688
 2203TIP3    H228101   3.830   0.164  11.571  0.8625 -1.9590  2.0350
 2204TIP3   OH228102   0.291   1.666   2.500  0.5334 -0.2582 -0.0239
 2204TIP3    H128103   0.275   1.575   2.525  0.1441 -0.1567  0.1012
 2204TIP3    H228104   0.365   1.661   2.439  0.9553 -0.5902  0.4989
 2205TIP3   OH228105   0.501   2.262  12.772 -0.1508 -0.0462  0.2256
 2205TIP3    H128106   0.586   2.305  12.769 -0.2062  0.0656  0.2638
 2205TIP3    H228107   0.517   2.181  12.821  0.1610 -0.5550 -0.7038
 2206TIP3   OH228108   3.958   2.276  16.289 -0.0753  0.2831 -0.3530
 2206TIP3    H128109   3.863   2.285  16.284 -0.0626 -0.2950 -2.3458
 2206TIP3    H228110   3.987   2.273  16.198  1.8571  0.3902  0.2152
 2207TIP3   OH228111   5.761   3.638  17.164 -0.4513  0.2350 -0.1416
 2207TIP3    H128112   5.758   3.576  17.237 -2.5409  0.0290 -0.3443
 2207TIP3    H228113   5.783   3.584  17.088  1.3156  0.3814  0.2269
 2208TIP3   OH228114   4.595   5.717  12.747 -0.0142 -0.2590  0.4001
 2208TIP3    H128115   4.542   5.792  12.773  1.8333  0.5175  2.2316
 2208TIP3    H228116   4.661   5.753  12.688  0.5674 -0.5103  0.8827
 2209TIP3   OH228117   5.922   6.231  11.243 -0.3666 -0.0964 -0.3525
 2209TIP3    H128118   5.945   6.320  11.215  2.1041 -0.3682  0.6245
 2209TIP3    H228119   5.866   6.198  11.172 -0.6231  1.9031 -1.1527
 2210TIP3   OH228120   2.665   0.848   2.162 -0.4437  0.3578  0.5492
 2210TIP3    H128121   2.588   0.809   2.120 -1.4710  1.9708  0.8243
 2210TIP3    H228122   2.629   0.903   2.231  1.0052  0.8123  0.9780
 2211TIP3   OH228123   1.914   3.416  12.099 -0.1579  0.1534  0.2357
 2211TIP3    H128124   1.926   3.334  12.148 -0.7916  0.2721  0.6057
 2211TIP3    H228125   2.002   3.441  12.072  0.0539 -0.5988  0.2042
 2212TIP3   OH228126   3.438   1.055   0.804  0.0095  0.1220 -0.1982
 2212TIP3    H128127   3.441   0.963   0.778 -0.9969 -0.0963  0.3906
 2212TIP3    H228128   3.413   1.053   0.897 -2.2719  1.0174 -0.7219
 2213TIP3   OH228129   2.114   6.418  11.994 -0.3679 -0.1148  0.5870
 2213TIP3    H128130   2.110   6.341  11.938 -0.3219  0.0840  0.3049
 2213TIP3    H228131   2.204   6.422  12.025 -0.5275 -0.5333  1.1185
 2214TIP3   OH228132   6.638   3.424  10.825  0.7012 -0.6729 -0.4157
 2214TIP3    H128133   6.702   3.396  10.760  0.9478  2.0318 -1.4588
 2214TIP3    H228134   6.626   3.518  10.809 -0.5414 -0.2472  2.3394
 2215TIP3   OH228135   2.422   3.157  17.016  0.2355 -0.5892  0.2057
 2215TIP3    H128136   2.416   3.135  17.109 -0.3940  0.4789  0.4352
 2215TIP3    H228137   2.370   3.237  17.007 -0.6183 -1.2666 -1.2625
 2216TIP3   OH228138   3.585   4.202  16.410  0.0243 -0.2551  0.0706
 2216TIP3    H128139   3.553   4.219  16.499  0.8639  0.8835  0.1837
 2216TIP3    H228140   3.669   4.158  16.423  0.8951  1.2959 -0.0983
 2217TIP3   OH228141   0.923   5.961  14.383 -0.7122  0.3136  0.4454
 2217TIP3    H128142   0.882   5.973  14.468 -1.3240 -0.5711  0.2850
 2217TIP3    H228143   1.010   6.002  14.392 -0.6307 -0.0847  1.5877
 2218TIP3   OH228144   1.232   2.318   4.426 -0.1394 -0.7176  0.3979
 2218TIP3    H128145   1.288   2.241   4.438  0.3412 -0.4091  0.1672
 2218TIP3    H228146   1.281   2.375   4.368  0.3362  0.5749  1.9753
 2219TIP3   OH228147   5.122   1.906   6.024  0.4445  0.1472 -0.1451
 2219TIP3    H128148   5.114   1.899   6.119 -1.7977  3.3808  0.0726
 2219TIP3    H228149   5.173   1.986   6.010 -0.5600  0.5649 -1.6435
 2220TIP3   OH228150   1.633   4.242  12.717 -0.0765  0.3213  0.1745
 2220TIP3    H128151   1.689   4.165  12.732 -1.2514 -0.9543 -1.5999
 2220TIP3    H228152   1.665   4.278  12.635 -1.3315  0.0220 -0.4665
 2221TIP3   OH228153   1.510   5.609   2.583 -0.8533  0.1240 -0.0084
 2221TIP3    H128154   1.415   5.609   2.590 -1.0286 -1.6280 -1.6571
 2221TIP3    H228155   1.532   5.526   2.541  1.4593  0.2486  0.7703
 2222TIP3   OH228156   5.062   5.865  13.937  0.2424  0.4281  0.5525
 2222TIP3    H128157   5.107   5.947  13.960  0.0143  0.3956  1.1454
 2222TIP3    H228158   5.008   5.888  13.862  3.0491 -0.1158 -1.8045
 2223TIP3   OH228159   3.223   5.912   2.524 -0.2164  0.5071  0.4963
 2223TIP3    H128160   3.291   5.845   2.532  1.0067  1.9057  2.3299
 2223TIP3    H228161   3.187   5.898   2.436  1.0896 -1.5010  0.2104
 2224TIP3   OH228162   1.128   1.506  16.681  0.4157 -0.3576  0.5977
 2224TIP3    H128163   1.122   1.578  16.743  0.5340  1.0394 -0.9548
 2224TIP3    H228164   1.160   1.545  16.600 -0.5985 -1.9241 -0.6471
 2225TIP3   OH228165   3.823   6.407   1.383  0.3790 -0.2447  0.4381
 2225TIP3    H128166   3.918   6.406   1.394  0.2986 -1.5172  1.1078
 2225TIP3    H228167   3.788   6.399   1.471 -0.4038  1.8286  0.3819
 2226TIP3   OH228168   1.839   1.182   1.358  0.1954  0.0643 -0.2426
 2226TIP3    H128169   1.771   1.166   1.423  0.2464  0.5980 -0.0543
 2226TIP3    H228170   1.908   1.119   1.379 -0.5206 -0.9626 -0.8604
 2227TIP3   OH228171   0.451   3.920  12.505 -0.3629 -0.2544 -0.7708
 2227TIP3    H128172   0.503   3.851  12.546 -0.4582  0.5926  0.8679
 2227TIP3    H228173   0.478   4.001  12.550  0.0156  0.8711 -2.8816
 2228TIP3   OH228174   4.660   0.942   0.001  0.5225  0.1356  0.3514
 2228TIP3    H128175   4.669   0.934   0.096  0.0792 -1.0714  0.3072
 2228TIP3    H228176   4.634   1.033  -0.013  3.0707  1.0815  1.1836
 2229TIP3   OH228177   6.787   1.019   4.770  0.3370  0.4254  0.0264
 2229TIP3    H128178   6.814   0.931   4.744  0.0806  0.2970  0.1903
 2229TIP3    H228179   6.867   1.071   4.766  0.6240  0.0282  0.5895
 2230TIP3   OH228180   4.900   5.495  12.728 -0.4461 -0.4945 -0.4231
 2230TIP3    H128181   4.855   5.579  12.734 -1.4120 -1.0694  0.6882
 2230TIP3    H228182   4.945   5.486  12.812  1.2874 -0.2259 -1.2664
 2231TIP3   OH228183   0.111   5.241   5.955 -0.1397 -0.2400  0.4608
 2231TIP3    H128184   0.059   5.222   5.877 -0.7940  1.0311  0.5627
 2231TIP3    H228185   0.056   5.298   6.008  0.9160  0.1999  1.1212
 2232TIP3   OH228186   2.131   6.148   2.714 -0.4908  0.1663  0.0950
 2232TIP3    H128187   2.085   6.180   2.636 -3.6713 -0.3464  1.5979
 2232TIP3    H228188   2.094   6.200   2.786  0.7550 -0.8492  1.5212
 2233TIP3   OH228189   6.079   2.206  15.282  0.2905  0.2175 -0.4071
 2233TIP3    H128190   6.028   2.277  15.322 -0.5763  0.0230 -1.1253
 2233TIP3    H228191   6.076   2.135  15.346  1.0364  0.7637  0.2500
 2234TIP3   OH228192   1.974   4.591   0.983 -0.6197  0.1084  0.3724
 2234TIP3    H128193   2.070   4.585   0.975 -0.4159  2.6796 -0.1087
 2234TIP3    H228194   1.941   4.518   0.931  1.1016 -0.1202 -0.4733
 2235TIP3   OH228195   0.267   3.687  17.029  0.0973  0.5833 -0.1391
 2235TIP3    H128196   0.278   3.750  16.958  1.3415  1.1492  0.5177
 2235TIP3    H228197   0.352   3.684  17.072 -0.0969 -1.1308  0.2131
 2236TIP3   OH228198   3.069   6.221  14.455 -0.1436  0.2971 -0.1107
 2236TIP3    H128199   3.064   6.145  14.513  0.5861 -0.1004 -0.5563
 2236TIP3    H228200   3.009   6.284  14.493 -0.0492 -0.1487  0.7947
 2237TIP3   OH228201   6.025   2.068   1.420  0.5540 -0.5244  0.2956
 2237TIP3    H128202   5.947   2.012   1.413 -0.3065  0.5065  1.4132
 2237TIP3    H228203   6.086   2.017   1.474 -0.3616 -0.2730  1.6138
 2238TIP3   OH228204   6.777   2.039  15.737  0.4501 -0.2082  0.0309
 2238TIP3    H128205   6.835   2.086  15.677  1.3762 -1.0883  0.2157
 2238TIP3    H228206   6.725   1.982  15.679 -2.0344  2.2807 -0.4235
 2239TIP3   OH228207   5.078   5.785  16.360 -0.3672  0.5243 -0.4901
 2239TIP3    H128208   5.114   5.793  16.449 -1.0958 -0.4575 -0.0882
 2239TIP3    H228209   5.150   5.750  16.309  0.7523  3.0531 -0.8141
 2240TIP3   OH228210   0.613   5.681   2.381  0.1236 -0.0382 -0.2614
 2240TIP3    H128211   0.696   5.638   2.360  1.1318  1.1701  1.0375
 2240TIP3    H228212   0.572   5.697   2.296  0.9277 -1.1923 -0.8973
 2241TIP3   OH228213   1.709   1.273  15.646  0.1461 -0.3488 -0.1600
 2241TIP3    H128214   1.691   1.206  15.580  1.4318 -0.2963 -0.5980
 2241TIP3    H228215   1.793   1.246  15.684 -0.2711 -0.0266  1.0165
 2242TIP3   OH228216   0.866   5.855  12.026  0.5345 -0.1152  0.1385
 2242TIP3    H128217   0.886   5.774  11.980 -0.0841  0.4501 -1.1995
 2242TIP3    H228218   0.829   5.912  11.958 -1.8077  0.2762  1.6264
 2243TIP3   OH228219   1.208   6.445  15.188 -0.1158  0.1594  0.0643
 2243TIP3    H128220   1.275   6.383  15.159 -0.3874 -0.5126  0.8172
 2243TIP3    H228221   1.157   6.464  15.110  0.8596  0.5748 -0.4898
 2244TIP3   OH228222   0.732   3.256   2.074 -0.0926  0.4111 -0.3797
 2244TIP3    H128223   0.636   3.252   2.081  0.0056  0.7003  4.0416
 2244TIP3    H228224   0.763   3.189   2.134  2.4865  1.3128 -0.5942
 2245TIP3   OH228225   6.654   5.111  12.307  0.2251  0.1750  0.0245
 2245TIP3    H128226   6.725   5.085  12.248 -0.0296  0.3175 -0.3483
 2245TIP3    H228227   6.694   5.110  12.394  1.2910  2.2852 -0.3803
 2246TIP3   OH228228   2.813   3.611  17.225  0.3047 -0.1741 -0.1463
 2246TIP3    H128229   2.799   3.541  17.289 -1.3388  1.2445  1.1163
 2246TIP3    H228230   2.884   3.664  17.261 -0.2867  0.3416  0.2757
 2247TIP3   OH228231   2.989   2.870  12.166  0.6043 -0.0781 -0.1156
 2247TIP3    H128232   2.925   2.801  12.184  1.7383 -0.9073  0.8769
 2247TIP3    H228233   3.063   2.849  12.223  1.9131  0.6454 -1.5051
 2248TIP3   OH228234   6.484   0.413  15.129 -0.6132 -0.6890 -0.5813
 2248TIP3    H128235   6.533   0.364  15.196  0.2013  0.2577 -0.4487
 2248TIP3    H228236   6.544   0.483  15.103 -0.2050 -2.0166 -3.5837
 2249TIP3   OH228237   4.189   2.804   2.954 -0.1105  0.0546  0.5441
 2249TIP3    H128238   4.181   2.709   2.955  0.9016 -0.0571 -0.1267
 2249TIP3    H228239   4.211   2.825   2.864  0.6150  0.8348  0.8881
 2250TIP3   OH228240   3.323   3.070   6.690 -0.0614  0.0328  0.2671
 2250TIP3    H128241   3.251   3.033   6.740  0.6484 -1.2819  0.3402
 2250TIP3    H228242   3.293   3.158   6.667 -1.4950 -0.3252  0.6816
 2251TIP3   OH228243   6.748   0.384   5.696  0.1009 -0.2645 -0.3890
 2251TIP3    H128244   6.748   0.289   5.681  1.1860 -0.1907 -0.8718
 2251TIP3    H228245   6.676   0.397   5.758  1.1129 -1.6516  1.1735
 2252TIP3   OH228246   5.675   4.098   1.234 -0.6104 -0.1029 -0.3974
 2252TIP3    H128247   5.704   4.113   1.144 -1.0786 -1.1337 -0.7374
 2252TIP3    H228248   5.657   4.004   1.238 -0.7665 -0.0397  0.7257
 2253TIP3   OH228249   6.762   4.712  12.746  0.1249 -0.0672  0.3113
 2253TIP3    H128250   6.695   4.648  12.772 -0.4761  0.7434  0.7861
 2253TIP3    H228251   6.747   4.787  12.802  1.0622  0.3652  0.0057
 2254TIP3   OH228252   5.190   1.849  12.645 -0.1960  0.1121  0.5815
 2254TIP3    H128253   5.208   1.856  12.739 -0.0410 -1.6160  0.7061
 2254TIP3    H228254   5.099   1.821  12.639 -0.0367 -0.3448  0.2344
 2255TIP3   OH228255   1.380   5.428   4.682 -0.6239  0.5088 -0.0442
 2255TIP3    H128256   1.420   5.357   4.731 -2.5479 -1.4692 -1.1752
 2255TIP3    H228257   1.444   5.451   4.615 -0.4869 -1.0943 -0.4854
 2256TIP3   OH228258   2.413   3.396  13.627  0.4417  0.3674  0.6545
 2256TIP3    H128259   2.474   3.442  13.684  0.0587  0.6878  0.8066
 2256TIP3    H228260   2.467   3.330  13.583  0.6447 -0.2070  1.7406
 2257TIP3   OH228261   6.633   0.068  12.008 -1.3387  0.1425 -0.1804
 2257TIP3    H128262   6.571   0.119  12.060 -0.2249  0.2050  1.1432
 2257TIP3    H228263   6.678   0.132  11.953 -0.1060  0.6037  1.3125
 2258TIP3   OH228264   3.211   2.666  15.729 -0.1143 -0.4273  0.0877
 2258TIP3    H128265   3.237   2.588  15.680  0.4510 -0.2322  0.0681
 2258TIP3    H228266   3.118   2.654  15.745 -0.0112 -1.1644  0.1866
 2259TIP3   OH228267   6.046   2.786  16.033  0.0779  0.3947 -0.1950
 2259TIP3    H128268   6.123   2.833  16.066 -0.0221  1.1012 -0.9332
 2259TIP3    H228269   6.065   2.694  16.049  1.2359  0.5331 -0.6802
 2260TIP3   OH228270   4.943   0.669  13.707 -0.1501 -0.0546  0.0739
 2260TIP3    H128271   4.911   0.608  13.774  1.6651 -0.9942  0.1464
 2260TIP3    H228272   5.010   0.720  13.752  0.3907 -0.0164 -0.7614
 2261TIP3   OH228273   2.026   5.434   5.772  0.0945 -0.0907  0.2848
 2261TIP3    H128274   1.931   5.433   5.770  0.0769 -2.0037 -0.2979
 2261TIP3    H228275   2.050   5.348   5.809  1.5919  0.8644  1.7185
 2262TIP3   OH228276   4.131   4.887   2.924  0.1097 -0.0900 -0.2106
 2262TIP3    H128277   4.080   4.842   2.992 -0.6515  0.6320 -0.2746
 2262TIP3    H228278   4.155   4.971   2.965  2.2350 -0.8572  0.2176
 2263TIP3   OH228279   5.091   5.544  11.318  0.0302  0.3442 -0.2678
 2263TIP3    H128280   5.117   5.476  11.256  2.0369 -0.4077  1.2607
 2263TIP3    H228281   5.018   5.506  11.366  1.5509 -1.1216  1.0277
 2264TIP3   OH228282   5.895   3.612  10.571 -0.1771  0.2429  0.0962
 2264TIP3    H128283   5.860   3.690  10.614 -0.3464 -1.2384  2.8895
 2264TIP3    H228284   5.819   3.556  10.556  0.2287 -0.4532  0.5444
 2265TIP3   OH228285   0.366   1.202   3.563 -0.0343 -0.5245  0.7167
 2265TIP3    H128286   0.301   1.137   3.591 -1.7437  1.1118  0.7420
 2265TIP3    H228287   0.396   1.242   3.644 -1.9012  1.3472  0.5613
 2266TIP3   OH228288   1.710   3.299   6.402  0.8042  0.1201  0.3601
 2266TIP3    H128289   1.770   3.345   6.344  0.8588  0.4217  0.6537
 2266TIP3    H228290   1.728   3.206   6.387  0.6445  0.1889 -0.2842
 2267TIP3   OH228291   0.777   0.083   0.381  0.0923 -0.2436  0.2509
 2267TIP3    H128292   0.791   0.172   0.415  0.2406 -0.3245  0.4046
 2267TIP3    H228293   0.683   0.068   0.393 -0.4141  0.7659 -1.9215
 2268TIP3   OH228294   2.627   0.688  12.893 -0.0572  0.6226 -0.1781
 2268TIP3    H128295   2.703   0.679  12.951  0.1693 -2.7888 -0.8343
 2268TIP3    H228296   2.565   0.741  12.943  1.5565  0.9426  1.5945
 2269TIP3   OH228297   4.346   6.170   1.675 -0.1913  0.0326  0.0978
 2269TIP3    H128298   4.406   6.124   1.734  0.2276  0.4214 -0.0224
 2269TIP3    H228299   4.281   6.210   1.734  0.3093  0.5411  0.3046
 2270TIP3   OH228300   4.400   5.283   0.207  0.2314  0.8022 -0.6099
 2270TIP3    H128301   4.413   5.243   0.293 -1.0832  0.0875 -0.7147
 2270TIP3    H228302   4.488   5.307   0.178  0.7213  0.8727  0.8357
 2271TIP3   OH228303   0.882   6.632  13.552  0.0449  0.2159  0.5398
 2271TIP3    H128304   0.892   6.711  13.499 -0.2943 -0.5188 -0.6811
 2271TIP3    H228305   0.819   6.579  13.504 -0.8372 -0.1962  2.0890
 2272TIP3   OH228306   6.802   5.527   5.962  0.1445 -0.4413 -0.4003
 2272TIP3    H128307   6.764   5.615   5.959  0.8615 -0.1161 -0.2308
 2272TIP3    H228308   6.797   5.503   6.055  0.5591 -0.2970 -0.3371
 2273TIP3   OH228309   3.845   4.512   0.848  0.2302 -0.4040  0.3358
 2273TIP3    H128310   3.932   4.552   0.840 -0.5467  1.3661  0.3566
 2273TIP3    H228311   3.845   4.474   0.935  0.2778  1.4753  1.2141
 2274TIP3   OH228312   5.000   1.923   3.409 -0.0501 -0.0207 -1.0009
 2274TIP3    H128313   5.028   1.842   3.451 -0.2029  0.4001 -0.0502
 2274TIP3    H228314   4.904   1.922   3.416 -0.0333  0.4168 -0.6163
 2275TIP3   OH228315   3.219   4.196  13.501 -0.1101 -0.3164  0.2025
 2275TIP3    H128316   3.211   4.286  13.534  0.8333  0.2726 -1.0764
 2275TIP3    H228317   3.296   4.161  13.546 -0.1314 -0.2738  0.2715
 2276TIP3   OH228318   4.290   2.584  16.032  0.4437  0.3360 -0.2740
 2276TIP3    H128319   4.248   2.514  15.982  0.2204  0.3308 -0.0809
 2276TIP3    H228320   4.299   2.656  15.969  0.7531  0.1068 -0.4963
 2277TIP3   OH228321   4.632   3.935  10.761  0.4223  0.0534  0.2376
 2277TIP3    H128322   4.666   4.017  10.795 -0.3796  0.1096  0.9419
 2277TIP3    H228323   4.541   3.932  10.792  0.3070 -0.8763 -0.1586
 2278TIP3   OH228324   2.906   4.112   3.831  0.2059  0.2598  0.0579
 2278TIP3    H128325   2.886   4.043   3.894 -0.0543  0.1517 -0.1408
 2278TIP3    H228326   2.967   4.072   3.770  0.3585  0.3258  0.1666
 2279TIP3   OH228327   4.819   3.227   3.248  0.3002  0.3828  0.3402
 2279TIP3    H128328   4.803   3.141   3.286 -0.7571 -0.7605 -2.3920
 2279TIP3    H228329   4.890   3.264   3.301  0.0677 -1.6936  2.2566
 2280TIP3   OH228330   2.273   2.211  14.829  0.0313 -0.4470 -0.0059
 2280TIP3    H128331   2.290   2.140  14.768  0.2720 -0.2229 -0.2023
 2280TIP3    H228332   2.258   2.167  14.913 -0.2411 -0.7493 -0.2112
 2281TIP3   OH228333   6.265   4.011   0.235  0.1639 -0.6319 -0.3863
 2281TIP3    H128334   6.212   4.044   0.308 -1.3242 -0.2145 -1.6073
 2281TIP3    H228335   6.354   4.040   0.255  0.1421 -1.9841  2.1192
 2282TIP3   OH228336   4.571   6.418   3.315 -0.5107 -0.1107 -0.3550
 2282TIP3    H128337   4.543   6.385   3.229 -1.1532  0.8957 -0.5411
 2282TIP3    H228338   4.563   6.513   3.308  3.5883  0.3703 -0.6510
 2283TIP3   OH228339   4.012   5.389  14.883 -0.0718 -0.2096  0.1260
 2283TIP3    H128340   3.966   5.316  14.841 -0.4525  0.1978 -0.1785
 2283TIP3    H228341   4.064   5.348  14.952 -0.4768 -0.7408  0.1261
 2284TIP3   OH228342   1.148   6.601  13.619  0.1539  0.3620 -1.2650
 2284TIP3    H128343   1.073   6.562  13.575  0.1299  1.1873 -1.9787
 2284TIP3    H228344   1.113   6.680  13.662  0.3610  0.0629 -0.5337
 2285TIP3   OH228345   3.843   4.085  16.489 -0.4830  0.5323  0.3572
 2285TIP3    H128346   3.878   4.030  16.559 -1.4440  1.6315  1.7630
 2285TIP3    H228347   3.865   4.174  16.515 -1.8069  1.0384 -0.1527
 2286TIP3   OH228348   5.736   0.785   0.371 -0.3404 -0.4132  0.0463
 2286TIP3    H128349   5.783   0.748   0.296 -2.2361 -0.6099 -1.1049
 2286TIP3    H228350   5.646   0.756   0.359 -1.0450  1.0653  1.4437
 2287TIP3   OH228351   5.569   5.581   5.065  0.2812 -0.1051 -0.1982
 2287TIP3    H128352   5.629   5.637   5.114  0.4855  0.8818 -1.5346
 2287TIP3    H228353   5.489   5.580   5.118  0.2062  1.5974 -0.2198
 2288TIP3   OH228354   3.919   0.858   3.143 -0.1522  0.0227 -0.0880
 2288TIP3    H128355   3.890   0.801   3.072  0.2165 -0.0655 -0.1699
 2288TIP3    H228356   3.987   0.807   3.188  1.1840  0.9341 -1.0118
 2289TIP3   OH228357   0.807   0.204   4.584  0.0039 -0.3721 -0.2023
 2289TIP3    H128358   0.818   0.112   4.608 -0.8013 -0.5222 -0.3804
 2289TIP3    H228359   0.766   0.244   4.662  2.0707  0.2660  0.6196
 2290TIP3   OH228360   5.869   6.225  12.877  0.1993 -0.2731  0.9123
 2290TIP3    H128361   5.917   6.151  12.914 -0.3200 -0.1862  1.7891
 2290TIP3    H228362   5.919   6.302  12.905 -1.4136 -0.0345  3.5260
 2291TIP3   OH228363   5.001   5.507  11.996  0.6060 -0.3077 -0.1180
 2291TIP3    H128364   4.946   5.487  11.920  1.0328 -0.8418 -0.2983
 2291TIP3    H228365   4.940   5.531  12.065  0.2638  2.0255 -1.1369
 2292TIP3   OH228366   4.677   5.717  11.164 -0.7628  0.5197  0.4296
 2292TIP3    H128367   4.702   5.625  11.152 -1.2294  0.4086  0.2773
 2292TIP3    H228368   4.670   5.752  11.076 -1.8590  0.3477  0.4411
 2293TIP3   OH228369   4.839   2.259  14.275  0.0051  0.4996  0.1483
 2293TIP3    H128370   4.847   2.174  14.232 -0.2472  0.4363  0.2228
 2293TIP3    H228371   4.747   2.282  14.264  0.2035  1.0548 -0.4190
 2294TIP3   OH228372   0.827   5.455   5.664  0.3332 -0.2032 -0.8885
 2294TIP3    H128373   0.733   5.450   5.682  0.5467  0.8930  0.7101
 2294TIP3    H228374   0.866   5.387   5.719  0.5468 -0.2481 -1.0924
 2295TIP3   OH228375   5.504   4.228   5.980  0.3056  1.3109  0.2752
 2295TIP3    H128376   5.423   4.187   6.012  0.2731 -0.1118 -1.4466
 2295TIP3    H228377   5.483   4.255   5.890  1.8081  0.6335 -0.3092
 2296TIP3   OH228378   2.252   4.485   3.811  0.9227  0.1909 -0.6144
 2296TIP3    H128379   2.293   4.398   3.809  3.8824  1.4739 -0.4361
 2296TIP3    H228380   2.325   4.546   3.815 -1.0116  2.8000 -2.0678
 2297TIP3   OH228381   2.660   1.489  14.982  0.4778  0.6043 -0.6016
 2297TIP3    H128382   2.643   1.456  14.894  0.3965  0.8702 -0.6855
 2297TIP3    H228383   2.644   1.584  14.976  0.0092  0.5550 -0.1835
 2298TIP3   OH228384   4.097   1.197   3.294  0.3320 -0.5039 -0.3531
 2298TIP3    H128385   4.150   1.132   3.340  0.3370 -0.5632 -0.4423
 2298TIP3    H228386   4.099   1.169   3.203 -0.2520 -0.7869 -0.2869
 2299TIP3   OH228387   1.949   5.472  13.754 -0.2191 -0.0384  0.2045
 2299TIP3    H128388   2.005   5.427  13.817  2.1105  1.0841 -0.9438
 2299TIP3    H228389   1.999   5.473  13.673 -1.9603  0.9814 -0.9351
 2300TIP3   OH228390   1.289   4.971   0.040  0.7019 -0.2963  0.0479
 2300TIP3    H128391   1.370   4.942   0.082 -0.6767 -0.3287  2.8982
 2300TIP3    H228392   1.223   4.910   0.071 -0.8003  0.9894 -0.4851
 2301TIP3   OH228393   6.290   0.586  12.068  0.0805  0.6700 -0.8164
 2301TIP3    H128394   6.256   0.654  12.010 -1.2922  1.5045  0.8782
 2301TIP3    H228395   6.289   0.626  12.155  1.4892 -0.7423 -0.1043
 2302TIP3   OH228396   5.819   5.322   6.700  0.5263  0.3234 -0.4930
 2302TIP3    H128397   5.850   5.275   6.777 -0.2346  0.3612 -0.1586
 2302TIP3    H228398   5.779   5.254   6.645  0.2772  0.4285 -0.4438
 2303TIP3   OH228399   5.949   0.456  14.745 -0.1383  0.3482  0.4476
 2303TIP3    H128400   5.995   0.471  14.662 -1.0060  1.3736  0.1399
 2303TIP3    H228401   5.992   0.515  14.806 -0.7669  0.9939  0.2638
 2304TIP3   OH228402   3.040   4.102   2.544 -0.2510  0.1097 -0.1769
 2304TIP3    H128403   3.083   4.185   2.562  0.6355 -0.4368  0.3644
 2304TIP3    H228404   2.947   4.118   2.561  0.0808  0.6289  1.2780
 2305TIP3   OH228405   0.694   2.626  12.785 -0.5264 -0.0716 -0.0155
 2305TIP3    H128406   0.725   2.627  12.875  1.7756  0.4439 -0.7543
 2305TIP3    H228407   0.725   2.543  12.750 -1.0535 -0.0849 -0.4684
 2306TIP3   OH228408   1.164   0.392  10.763 -0.2341  0.3475 -0.1191
 2306TIP3    H128409   1.145   0.454  10.692 -0.6335 -0.0042 -0.3258
 2306TIP3    H228410   1.088   0.334  10.764  0.9821 -1.3530 -1.1937
 2307TIP3   OH228411   1.254   4.874   5.365 -0.7314 -0.1124  0.1546
 2307TIP3    H128412   1.284   4.783   5.362 -2.2773 -0.6808  0.6981
 2307TIP3    H228413   1.267   4.906   5.276 -0.3013 -0.9125 -0.0868
 2308TIP3   OH228414   3.664   5.877  13.567  0.0263 -0.6205 -0.1178
 2308TIP3    H128415   3.607   5.828  13.627  0.1553 -0.8745 -0.2009
 2308TIP3    H228416   3.649   5.969  13.590  1.7805 -0.7492  1.9037
 2309TIP3   OH228417   2.562   6.233   3.494 -0.2698 -0.2626 -0.1539
 2309TIP3    H128418   2.574   6.178   3.417  0.6057 -0.2890 -0.0070
 2309TIP3    H228419   2.634   6.210   3.552 -0.9500 -0.2798  0.7061
 2310TIP3   OH228420   3.442   1.642   2.609 -0.1745  0.1875  0.4029
 2310TIP3    H128421   3.430   1.731   2.578 -0.5404  0.1567  0.4562
 2310TIP3    H228422   3.536   1.625   2.597  0.3173  1.2718  2.2175
 2311TIP3   OH228423   5.558   4.645   0.956 -0.3860 -0.8722  0.1567
 2311TIP3    H128424   5.614   4.568   0.964 -1.8405 -1.8990  0.9135
 2311TIP3    H228425   5.477   4.611   0.917 -0.4250  0.6125 -1.1547
 2312TIP3   OH228426   0.755   5.540  15.788 -0.3221 -0.0710 -1.0322
 2312TIP3    H128427   0.835   5.533  15.734  2.0378 -4.4781  2.3651
 2312TIP3    H228428   0.685   5.511  15.729  1.4480 -1.1001 -2.7828
 2313TIP3   OH228429   0.749   4.476   4.379 -0.4778  0.1068  0.4716
 2313TIP3    H128430   0.804   4.467   4.456  1.4604  0.0099 -0.8503
 2313TIP3    H228431   0.781   4.554   4.335 -1.2018 -0.1148 -0.4926
 2314TIP3   OH228432   3.369   1.557   3.082  0.2496  0.3863  0.0433
 2314TIP3    H128433   3.356   1.543   2.989 -0.2920  1.7727 -0.1123
 2314TIP3    H228434   3.387   1.470   3.117 -2.1661 -0.5949 -0.9318
 2315TIP3   OH228435   3.801   3.590  13.480  0.4404 -0.7935 -0.4683
 2315TIP3    H128436   3.853   3.513  13.504  1.2120 -0.3625 -0.7534
 2315TIP3    H228437   3.860   3.645  13.429 -0.0063  0.1437 -0.0014
 2316TIP3   OH228438   3.063   1.783   0.376  0.1391  0.2605 -0.0758
 2316TIP3    H128439   3.109   1.719   0.323 -1.1808 -1.2877  0.5672
 2316TIP3    H228440   3.133   1.830   0.423  1.2115  0.4815 -1.8046
 2317TIP3   OH228441   0.969   3.178   5.808 -0.0751 -0.0929 -0.1669
 2317TIP3    H128442   1.058   3.215   5.809 -0.6415  1.3864  1.9143
 2317TIP3    H228443   0.980   3.088   5.839  0.7674 -0.1340 -0.5623
 2318TIP3   OH228444   2.493   3.388  10.680 -0.2294  0.2020 -0.0052
 2318TIP3    H128445   2.420   3.450  10.686  0.0921  0.5034  0.8504
 2318TIP3    H228446   2.571   3.443  10.679  0.0332 -0.1660  0.0888
 2319TIP3   OH228447   1.949   4.240   2.440  0.5284 -0.5311  0.1552
 2319TIP3    H128448   2.025   4.286   2.476 -0.0715  0.4288  0.2386
 2319TIP3    H228449   1.905   4.202   2.516 -1.0452  1.9560  0.6242
 2320TIP3   OH228450   4.955   2.930   0.091  0.0449  0.2192  0.1677
 2320TIP3    H128451   5.039   2.973   0.077  1.1001 -1.4121  1.1830
 2320TIP3    H228452   4.977   2.837   0.097 -1.9412 -0.3210 -0.3223
 2321TIP3   OH228453   2.825   2.518   3.183 -0.4425  0.2047  0.1234
 2321TIP3    H128454   2.829   2.454   3.254 -0.8884  0.2502  0.1946
 2321TIP3    H228455   2.878   2.480   3.113 -1.2005 -0.5372 -0.0661
 2322TIP3   OH228456   4.064   1.278  14.699 -0.8708 -0.2318 -0.1311
 2322TIP3    H128457   4.080   1.225  14.777 -1.1231 -0.9699 -0.5759
 2322TIP3    H228458   4.021   1.219  14.637 -1.4831  0.5837 -0.5086
 2323TIP3   OH228459   2.678   6.521  14.495 -0.5793  0.1431 -0.3105
 2323TIP3    H128460   2.728   6.581  14.441 -1.1602 -0.4676 -1.5525
 2323TIP3    H228461   2.625   6.578  14.551 -0.5443  0.7854 -0.9186
 2324TIP3   OH228462   1.995   5.958   4.988 -0.0162 -0.3857  0.2661
 2324TIP3    H128463   2.042   6.037   4.961 -0.0946  0.2901  1.9616
 2324TIP3    H228464   1.927   5.947   4.922 -0.9928  1.9053  0.7622
 2325TIP3   OH228465   5.146   1.484  12.748  0.1243  0.6450 -0.3482
 2325TIP3    H128466   5.167   1.394  12.722 -0.2680  0.6304 -0.6420
 2325TIP3    H228467   5.066   1.504  12.699 -1.7214 -0.0151  2.1910
 2326TIP3   OH228468   3.458   4.869  12.028 -0.2448 -0.9348 -0.4245
 2326TIP3    H128469   3.468   4.827  12.114  2.4080 -0.6812 -0.5105
 2326TIP3    H228470   3.480   4.960  12.043 -2.8064 -0.1690 -0.8647
 2327TIP3   OH228471   5.959   1.601   2.203 -0.4375 -0.0754 -0.0662
 2327TIP3    H128472   5.940   1.550   2.124 -0.7831 -2.1581  1.2990
 2327TIP3    H228473   6.055   1.602   2.209 -0.3949  0.4524 -0.7079
 2328TIP3   OH228474   1.377   6.741   4.768 -0.0048 -0.3835  0.0802
 2328TIP3    H128475   1.417   6.689   4.838 -1.3126  0.9045  1.8809
 2328TIP3    H228476   1.303   6.688   4.738  1.0854 -1.3495 -1.0569
 2329TIP3   OH228477   0.481   0.856   0.179  0.3964 -0.2299 -0.1627
 2329TIP3    H128478   0.519   0.910   0.110 -0.4281 -0.1869 -0.6005
 2329TIP3    H228479   0.439   0.784   0.131  0.0064 -0.3195  0.3142
 2330TIP3   OH228480   5.615   1.485  14.756  0.1538 -0.3119 -0.2777
 2330TIP3    H128481   5.526   1.517  14.770  0.5717  1.0463 -0.5847
 2330TIP3    H228482   5.662   1.509  14.837  0.6860  0.6735 -0.8576
 2331TIP3   OH228483   3.111   4.028  15.862  0.6097 -0.0619  0.2974
 2331TIP3    H128484   3.056   3.953  15.836 -0.3889  1.0595 -0.9460
 2331TIP3    H228485   3.201   3.994  15.859  0.1381 -1.3858  0.4182
 2332TIP3   OH228486   0.534   0.109   5.732  0.3746 -0.4016 -0.5793
 2332TIP3    H128487   0.566   0.147   5.814  1.7351  0.1215 -1.3131
 2332TIP3    H228488   0.519   0.185   5.675 -0.1600 -0.7795 -0.9506
 2333TIP3   OH228489   5.858   3.122  12.135 -0.0755 -0.7293  0.1493
 2333TIP3    H128490   5.853   3.103  12.041  0.4825 -1.1195  0.1950
 2333TIP3    H228491   5.838   3.216  12.141  1.6397 -0.2748 -0.5640
 2334TIP3   OH228492   2.041   6.701  11.334 -0.4473  0.1725 -0.1966
 2334TIP3    H128493   2.047   6.709  11.239 -0.3792  0.4271 -0.1719
 2334TIP3    H228494   1.997   6.617  11.349 -0.0663 -0.0696 -0.4424
 2335TIP3   OH228495   5.505   1.645  10.682  0.0705  0.5063 -0.3131
 2335TIP3    H128496   5.489   1.555  10.709  1.6313  0.2263 -0.2415
 2335TIP3    H228497   5.418   1.685  10.679 -0.6538 -1.0275 -0.4732
 2336TIP3   OH228498   5.686   3.579   4.975 -0.3859 -0.5618  0.2338
 2336TIP3    H128499   5.595   3.608   4.966  0.2192  1.0245 -1.4690
 2336TIP3    H228500   5.709   3.547   4.888  1.0294  0.2140  0.2947
 2337TIP3   OH228501   5.046   2.762  12.334 -0.1739 -0.0113 -0.6083
 2337TIP3    H128502   4.969   2.818  12.332  0.6637  1.2581  0.5915
 2337TIP3    H228503   5.116   2.816  12.297  0.4678 -0.5759 -0.2399
 2338TIP3   OH228504   3.080   5.782   2.316 -0.8825  0.3954 -0.9593
 2338TIP3    H128505   3.048   5.710   2.371  1.6158  0.0842  0.2347
 2338TIP3    H228506   3.001   5.829   2.290 -2.3887 -1.1291  0.5538
 2339TIP3   OH228507   6.550   1.928  15.592 -0.0835  0.2710  0.5853
 2339TIP3    H128508   6.529   1.846  15.637 -1.5384  0.0920 -0.3878
 2339TIP3    H228509   6.480   1.988  15.618  0.8893  1.1906  1.1727
 2340TIP3   OH228510   5.187   3.699  16.837 -0.4181  0.3035  0.2545
 2340TIP3    H128511   5.122   3.695  16.767 -0.5060  1.4319  0.2448
 2340TIP3    H228512   5.139   3.738  16.911  0.3235  1.5211  0.1292
 2341TIP3   OH228513   5.843   3.419   1.651 -0.0130  0.2209 -0.0980
 2341TIP3    H128514   5.801   3.503   1.670 -1.6266 -0.5504 -0.1094
 2341TIP3    H228515   5.924   3.421   1.702  1.1194  2.6714 -1.7751
 2342TIP3   OH228516   0.943   3.407  10.810  0.3649 -0.1186  0.0094
 2342TIP3    H128517   1.030   3.443  10.792  0.6940 -0.6665  0.4768
 2342TIP3    H228518   0.897   3.477  10.856  1.5393 -0.7997  2.3551
 2343TIP3   OH228519   2.717   4.621  12.851 -0.5201  0.2801 -0.3303
 2343TIP3    H128520   2.728   4.531  12.880 -2.4146  0.4168  0.9497
 2343TIP3    H228521   2.651   4.616  12.782  0.0647  0.6013 -0.9258
 2344TIP3   OH228522   2.215   6.052   5.814  0.0136  0.4395 -0.0530
 2344TIP3    H128523   2.183   5.997   5.885  0.4597  0.7068  0.3619
 2344TIP3    H228524   2.259   5.991   5.754  0.2995  0.3073  0.2862
 2345TIP3   OH228525   3.882   5.063   5.993  0.1526  0.1087 -0.0305
 2345TIP3    H128526   3.824   4.987   5.990  1.5112 -1.0093  0.8014
 2345TIP3    H228527   3.969   5.027   5.982  0.6813  1.8584 -2.2723
 2346TIP3   OH228528   5.469   4.573  16.309  0.3050 -0.0084 -0.2285
 2346TIP3    H128529   5.512   4.561  16.225 -0.4371  0.1190 -0.6336
 2346TIP3    H228530   5.526   4.527  16.372  0.8175 -0.1730 -0.8030
 2347TIP3   OH228531   0.338   3.764   4.950  0.0961  0.1694 -0.0516
 2347TIP3    H128532   0.267   3.732   4.895  0.1191  0.9718 -0.5604
 2347TIP3    H228533   0.306   3.846   4.986 -0.6234 -1.1772  2.6006
 2348TIP3   OH228534   2.340   1.586   5.482 -0.4251 -0.3301  0.0546
 2348TIP3    H128535   2.269   1.581   5.417  0.8612  1.6416 -1.6333
 2348TIP3    H228536   2.360   1.679   5.489  0.3392 -0.6129  2.4035
 2349TIP3   OH228537   1.391   0.742  14.558 -0.2554  0.5156 -0.3317
 2349TIP3    H128538   1.461   0.677  14.552 -1.3441 -0.5574 -2.6565
 2349TIP3    H228539   1.388   0.765  14.651  1.3537 -1.4387  0.2763
 2350TIP3   OH228540   0.364   1.504  13.824  0.5799 -0.1995  0.5106
 2350TIP3    H128541   0.268   1.510  13.829  0.3133 -1.1486 -1.9701
 2350TIP3    H228542   0.389   1.448  13.897 -1.2496 -3.3238 -1.0639
 2351TIP3   OH228543   0.621   0.068  16.660  0.3452 -0.0182  0.5478
 2351TIP3    H128544   0.573   0.144  16.626 -0.8507 -1.1448 -0.4171
 2351TIP3    H228545   0.644   0.092  16.749  0.7359  1.7888  0.0042
 2352TIP3   OH228546   0.935   3.943  11.636 -0.5336 -0.3495  0.5220
 2352TIP3    H128547   1.015   3.940  11.688 -0.7940 -1.0357  0.8888
 2352TIP3    H228548   0.899   3.855  11.641 -1.8268  0.1861  1.1720
 2353TIP3   OH228549   1.023   0.967  12.992  0.8090 -0.2818 -0.0058
 2353TIP3    H128550   1.063   1.054  12.991 -1.9376  1.1919  2.1262
 2353TIP3    H228551   0.982   0.958  12.906 -0.1827  1.2901  0.2616
 2354TIP3   OH228552   3.100   1.057   0.314  0.1586  0.0168 -0.1523
 2354TIP3    H128553   3.108   1.051   0.219  0.4543  0.3152 -0.1505
 2354TIP3    H228554   3.190   1.071   0.345 -0.1030  1.3292  0.0570
 2355TIP3   OH228555   0.119   1.152  14.131  0.2730 -0.3703 -0.0361
 2355TIP3    H128556   0.080   1.106  14.057 -0.1418  0.8755 -0.6066
 2355TIP3    H228557   0.122   1.086  14.200 -0.4049 -1.2332 -0.7977
 2356TIP3   OH228558   6.168   3.764   3.248 -0.3379  0.3090  0.0581
 2356TIP3    H128559   6.114   3.843   3.242 -1.3535 -0.3193  0.7827
 2356TIP3    H228560   6.106   3.693   3.260  0.5768 -0.6054 -0.4732
 2357TIP3   OH228561   5.349   4.861  12.417 -0.0022 -0.4598  0.0718
 2357TIP3    H128562   5.346   4.833  12.509  0.6114  0.2409  0.3046
 2357TIP3    H228563   5.337   4.955  12.420 -0.8225 -0.5300 -0.6383
 2358TIP3   OH228564   5.299   4.234  13.051 -0.1282  0.1800  0.4648
 2358TIP3    H128565   5.321   4.171  13.120  0.1249  1.3198  1.4712
 2358TIP3    H228566   5.359   4.214  12.979  0.5949 -0.1287  1.1399
 2359TIP3   OH228567   5.132   0.708   2.095  0.7896  0.3205 -0.1571
 2359TIP3    H128568   5.054   0.721   2.150  0.7308  1.7702 -0.5422
 2359TIP3    H228569   5.098   0.673   2.013  0.6405  0.1571 -0.0268
 2360TIP3   OH228570   6.212   3.582   2.397  0.2994  0.2014 -0.2625
 2360TIP3    H128571   6.126   3.554   2.431  1.4398 -0.8984  1.9475
 2360TIP3    H228572   6.192   3.658   2.343 -2.2031 -0.7764 -0.8955
 2361TIP3   OH228573   0.935   0.801   5.066  0.3465 -0.3564 -0.4062
 2361TIP3    H128574   0.951   0.823   5.158 -1.8702  0.2271 -0.1145
 2361TIP3    H228575   1.015   0.829   5.021  0.3145  2.1254  0.9209
 2362TIP3   OH228576   4.980   0.866  13.198 -0.1328 -0.0096  0.0762
 2362TIP3    H128577   4.905   0.856  13.140 -0.3500 -0.6695  0.4522
 2362TIP3    H228578   4.954   0.822  13.279  0.7574 -0.4931  0.1183
 2363TIP3   OH228579   2.222   3.854   1.921  0.4982 -0.4078  0.4088
 2363TIP3    H128580   2.130   3.829   1.913  0.5102 -1.6458  3.1238
 2363TIP3    H228581   2.269   3.791   1.866 -0.2172  0.0894 -0.8098
 2364TIP3   OH228582   2.063   4.724  14.933 -0.2976  0.1633 -0.8985
 2364TIP3    H128583   2.116   4.658  14.888  1.1330 -0.3596  1.3889
 2364TIP3    H228584   1.989   4.675  14.969  0.4744 -0.1348  0.3328
 2365TIP3   OH228585   3.892   3.965  14.229 -0.1696  0.2660 -0.2501
 2365TIP3    H128586   3.971   4.016  14.208  0.7049 -1.1127 -0.4546
 2365TIP3    H228587   3.858   3.938  14.144 -1.1045  1.1716 -0.1811
 2366TIP3   OH228588   3.250   4.898  14.993  0.3659 -0.6205  0.8497
 2366TIP3    H128589   3.176   4.856  15.037  0.5556  0.3303  2.1504
 2366TIP3    H228590   3.210   4.956  14.928  0.0301 -1.0981  0.6263
 2367TIP3   OH228591   1.087   3.925  11.858  0.4904 -0.4256  0.2510
 2367TIP3    H128592   1.149   3.998  11.859 -0.9940  0.8832  1.3528
 2367TIP3    H228593   1.054   3.920  11.948  0.3870 -2.3291  0.1437
 2368TIP3   OH228594   1.006   0.739   5.744  0.2594  0.6976  0.6648
 2368TIP3    H128595   1.096   0.752   5.772  0.3830  1.1145  0.0865
 2368TIP3    H228596   0.983   0.652   5.776  0.9058  0.5401  0.7103
 2369TIP3   OH228597   4.718   1.899   0.085 -0.1522  0.1249  0.7673
 2369TIP3    H128598   4.777   1.917   0.158  0.3397  0.4195  0.3099
 2369TIP3    H228599   4.666   1.979   0.076  0.7755  0.6586 -0.1023
 2370TIP3   OH228600   1.115   6.637  16.985 -0.0936 -0.2532 -0.0607
 2370TIP3    H128601   1.088   6.649  17.076 -1.0645 -0.9990 -0.2391
 2370TIP3    H228602   1.197   6.589  16.991  1.0236  1.5838  0.4704
 2371TIP3   OH228603   0.430   3.063   4.029  0.7125 -0.0714 -0.0333
 2371TIP3    H128604   0.437   2.992   4.093 -0.9999  0.8304  1.2197
 2371TIP3    H228605   0.336   3.074   4.015  0.9528  1.7116 -0.4822
 2372TIP3   OH228606   1.748   4.820  13.512  0.3066  0.2783 -0.0277
 2372TIP3    H128607   1.667   4.820  13.563 -0.2808  1.1281 -0.9007
 2372TIP3    H228608   1.815   4.788  13.572 -0.4352  0.8228  1.1321
 2373TIP3   OH228609   5.805   6.226   1.812  0.0734  0.0790 -0.1219
 2373TIP3    H128610   5.819   6.301   1.870 -2.1370 -0.5202  1.2991
 2373TIP3    H228611   5.758   6.262   1.736 -1.2711  0.1380  0.7061
 2374TIP3   OH228612   0.750   6.045  11.867 -0.0214  0.3672  0.0525
 2374TIP3    H128613   0.711   6.120  11.910 -0.7352 -0.6231  1.2041
 2374TIP3    H228614   0.675   5.996  11.832  0.3832 -0.1188 -0.1603
 2375TIP3   OH228615   5.934   1.459  14.733  0.5545 -0.5859 -0.0653
 2375TIP3    H128616   5.916   1.381  14.679  0.4275 -0.0621 -0.8012
 2375TIP3    H228617   5.860   1.517  14.716 -0.0026 -0.8009  1.4643
 2376TIP3   OH228618   2.288   6.739   2.015 -0.0471 -0.0548  0.5289
 2376TIP3    H128619   2.279   6.790   2.096  0.4696 -0.5378  0.9000
 2376TIP3    H228620   2.242   6.790   1.949  1.1437  1.3225  0.7026
 2377TIP3   OH228621   0.670   2.757   5.341  0.0408  0.3834 -0.4240
 2377TIP3    H128622   0.714   2.840   5.360 -0.0526  0.3215  0.0736
 2377TIP3    H228623   0.694   2.699   5.414  0.4384 -0.1559 -0.9793
 2378TIP3   OH228624   5.640   1.400  14.085 -0.2507  0.0574  0.1714
 2378TIP3    H128625   5.722   1.394  14.036  0.4052 -0.2658  1.2523
 2378TIP3    H228626   5.645   1.327  14.147 -0.0356  1.6725  2.1509
 2379TIP3   OH228627   0.629   2.012  11.455  0.5313 -0.0980  0.1462
 2379TIP3    H128628   0.611   2.086  11.512  2.0786 -1.0302  1.9833
 2379TIP3    H228629   0.720   2.024  11.427  1.0911 -1.6422  1.1354
 2380TIP3   OH228630   6.278   3.180   4.307  0.5568  0.2487  0.0498
 2380TIP3    H128631   6.295   3.251   4.245  0.6963  1.0316  0.9548
 2380TIP3    H228632   6.324   3.206   4.386 -0.4560 -0.2243  0.8217
 2381TIP3   OH228633   3.854   3.974  15.046  0.0350  0.3981  0.0728
 2381TIP3    H128634   3.907   3.914  14.994 -1.4566 -1.8291  0.9914
 2381TIP3    H228635   3.767   3.969  15.008 -0.8165 -0.3776  1.9946
 2382TIP3   OH228636   3.721   3.871   5.907  0.3172  0.4086 -0.4451
 2382TIP3    H128637   3.657   3.942   5.897  0.4729  0.5506 -0.4291
 2382TIP3    H228638   3.710   3.842   5.997 -0.9311 -0.7206 -0.9212
 2383TIP3   OH228639   5.786   4.022  15.966 -0.4382 -0.2782 -0.2320
 2383TIP3    H128640   5.730   4.030  16.044 -0.8939 -0.4538 -0.5357
 2383TIP3    H228641   5.866   4.068  15.989 -0.8662  0.3232  0.0690
 2384TIP3   OH228642   1.646   1.913  15.597 -0.8870 -0.5727 -0.3207
 2384TIP3    H128643   1.559   1.919  15.637 -0.2227  0.0914  1.0743
 2384TIP3    H228644   1.633   1.855  15.522 -2.2764 -1.5067  0.5858
 2385TIP3   OH228645   4.535   1.137  12.037  0.0871 -0.0923  0.2592
 2385TIP3    H128646   4.498   1.053  12.007 -0.6417 -0.1861  1.3572
 2385TIP3    H228647   4.622   1.114  12.070  1.2407  0.1377 -2.4006
 2386TIP3   OH228648   1.262   0.741   1.547  0.4121 -0.0619 -0.5393
 2386TIP3    H128649   1.289   0.659   1.587  2.2660  0.3559 -0.8387
 2386TIP3    H228650   1.331   0.761   1.483 -1.7321 -0.0363 -3.0153
 2387TIP3   OH228651   6.535   5.433  17.060  0.1978 -0.0486  0.1681
 2387TIP3    H128652   6.535   5.476  16.975  0.9412 -2.1617 -0.9844
 2387TIP3    H228653   6.623   5.448  17.095 -0.3143  1.3873  0.9237
 2388TIP3   OH228654   2.587   4.326   5.354  0.2893 -0.4935 -0.0828
 2388TIP3    H128655   2.583   4.277   5.436  1.7085 -1.9094 -0.7944
 2388TIP3    H228656   2.553   4.265   5.289 -1.2916  0.7869 -0.5323
 2389TIP3   OH228657   6.190   0.308  13.510 -0.2317  0.3441 -0.4885
 2389TIP3    H128658   6.211   0.346  13.424 -3.3570 -1.8961 -2.4417
 2389TIP3    H228659   6.098   0.328  13.524 -0.9655 -2.9943  0.2200
 2390TIP3   OH228660   2.677   1.779  13.472  0.0737  0.0548  0.1040
 2390TIP3    H128661   2.715   1.815  13.392  1.0514  2.7437  1.6564
 2390TIP3    H228662   2.752   1.751  13.524 -0.3089  1.1129  1.2743
 2391TIP3   OH228663   4.795   4.317   1.520  0.2771  0.4933 -1.1411
 2391TIP3    H128664   4.767   4.386   1.460 -2.2732  1.0925  0.5640
 2391TIP3    H228665   4.715   4.265   1.534  1.4213 -1.0799 -0.1359
 2392TIP3   OH228666   2.965   1.693   3.168 -0.6280  0.2687 -0.1910
 2392TIP3    H128667   2.968   1.703   3.263  1.7849  0.3889 -0.2078
 2392TIP3    H228668   2.898   1.754   3.139  1.3925  3.3910  1.1548
 2393TIP3   OH228669   0.335   0.887   2.414  0.2480 -0.6762 -0.1175
 2393TIP3    H128670   0.304   0.836   2.488 -0.8175 -0.8762 -0.6870
 2393TIP3    H228671   0.276   0.963   2.411  0.4449 -0.5388 -0.6006
 2394TIP3   OH228672   3.412   4.336   4.042  0.2973  0.0425 -0.0837
 2394TIP3    H128673   3.484   4.386   4.005 -0.0271  1.0772  0.6564
 2394TIP3    H228674   3.439   4.320   4.133 -0.6480  0.9549  0.3759
 2395TIP3   OH228675   2.317   4.746   5.781  0.7332 -0.3263 -0.2076
 2395TIP3    H128676   2.335   4.688   5.855  0.2590 -0.3497 -0.1065
 2395TIP3    H228677   2.403   4.778   5.754  0.9384 -0.5691  0.1489
 2396TIP3   OH228678   0.862   2.533   6.149  0.1349 -0.3388 -0.1286
 2396TIP3    H128679   0.860   2.614   6.098  0.0846 -0.7811 -0.8490
 2396TIP3    H228680   0.774   2.496   6.140 -0.1905  0.0992  1.1567
 2397TIP3   OH228681   6.225   6.437   4.514  0.0711  0.1492 -0.0085
 2397TIP3    H128682   6.273   6.494   4.575  0.6907  0.3344 -0.6540
 2397TIP3    H228683   6.140   6.424   4.556  0.5676  0.0681  1.0148
 2398TIP3   OH228684   1.051   5.653   0.425  0.1973 -0.1096 -0.5213
 2398TIP3    H128685   1.093   5.572   0.396 -0.2726  0.4199 -2.8550
 2398TIP3    H228686   0.995   5.679   0.352  1.3020  2.9977 -0.4098
 2399TIP3   OH228687   0.992   4.230  16.408 -0.0219 -0.0626 -0.2483
 2399TIP3    H128688   1.012   4.202  16.318 -1.3751  0.6101 -0.7850
 2399TIP3    H228689   0.906   4.193  16.426 -0.0966  0.4563  0.4820
 2400TIP3   OH228690   4.422   0.807   4.310  0.1219  0.0252 -0.7026
 2400TIP3    H128691   4.414   0.873   4.379 -0.2910 -0.5685 -0.1666
 2400TIP3    H228692   4.393   0.725   4.351 -0.3516 -0.3009 -1.6414
 2401TIP3   OH228693   0.182   5.382  14.468  0.3137 -0.4427  0.0453
 2401TIP3    H128694   0.220   5.443  14.404  0.2611 -1.0483 -0.5778
 2401TIP3    H228695   0.115   5.335  14.419  0.5853 -1.2332  0.4213
 2402TIP3   OH228696   2.113   3.422   4.233  0.0925  0.4520 -0.2557
 2402TIP3    H128697   2.139   3.482   4.302 -1.6180  0.4960  0.4028
 2402TIP3    H228698   2.092   3.479   4.159  1.1900  0.4501 -0.5931
 2403TIP3   OH228699   0.597   2.374  16.619  0.0739 -0.5868  0.3760
 2403TIP3    H128700   0.573   2.363  16.711 -1.2867  0.4541  0.1739
 2403TIP3    H228701   0.567   2.294  16.577  0.4836 -0.9633  0.7864
 2404TIP3   OH228702   4.888   0.322  17.191  0.3585 -0.0120 -0.3409
 2404TIP3    H128703   4.894   0.280  17.277  1.6812 -0.0731 -0.4359
 2404TIP3    H228704   4.937   0.404  17.201  1.9708 -0.7889 -1.4612
 2405TIP3   OH228705   0.735   2.893   1.990 -0.9388  0.9966  0.1609
 2405TIP3    H128706   0.745   2.907   2.084  1.5307  2.6415 -0.2609
 2405TIP3    H228707   0.749   2.799   1.978  2.3549  1.2631  1.1366
 2406TIP3   OH228708   3.214   3.505   1.958  0.7141  0.5134 -0.5216
 2406TIP3    H128709   3.169   3.509   2.042  0.0768 -0.3196 -0.8070
 2406TIP3    H228710   3.206   3.593   1.921  0.0941  0.6050 -0.1706
 2407TIP3   OH228711   0.681   2.625  15.628  0.0468  0.5488  0.8103
 2407TIP3    H128712   0.640   2.567  15.564  0.9796  1.1701 -0.3769
 2407TIP3    H228713   0.704   2.568  15.702  0.1134 -0.4133  0.0597
 2408TIP3   OH228714   2.624   3.953   3.403 -0.9975 -0.1148 -0.6328
 2408TIP3    H128715   2.551   3.891   3.401 -0.8751 -0.2876 -0.0243
 2408TIP3    H228716   2.634   3.976   3.496  1.5206 -2.2531 -0.2478
 2409TIP3   OH228717   1.551   3.558  13.421  0.4536 -0.7138  0.8294
 2409TIP3    H128718   1.633   3.539  13.375  0.1105 -2.5914  0.9024
 2409TIP3    H228719   1.511   3.629  13.371 -0.0348 -2.8399 -2.0097
 2410TIP3   OH228720   6.702   4.363   5.868  0.7625  0.4831 -0.7655
 2410TIP3    H128721   6.717   4.455   5.845 -1.1601  0.8210 -0.8387
 2410TIP3    H228722   6.774   4.341   5.926  0.7433  2.3435  0.0422
 2411TIP3   OH228723   1.182   6.575  13.119 -0.4160 -0.0638  0.0548
 2411TIP3    H128724   1.166   6.496  13.171 -1.2613 -0.3789 -0.6559
 2411TIP3    H228725   1.277   6.579  13.110 -0.4041 -1.6660 -0.8788
 2412TIP3   OH228726   2.370   0.881   3.143 -0.2174 -0.3048  0.3055
 2412TIP3    H128727   2.362   0.960   3.089 -1.0908 -1.8544 -2.0093
 2412TIP3    H228728   2.392   0.812   3.080 -1.2719 -2.2293  1.9484
 2413TIP3   OH228729   0.527   6.021   3.352  0.1544  0.0649  0.2271
 2413TIP3    H128730   0.536   5.999   3.260  0.5196  0.8713  0.0663
 2413TIP3    H228731   0.450   6.078   3.357  1.7302  2.3680 -0.0274
 2414TIP3   OH228732   2.339   3.406   0.288  0.7326 -0.2785 -0.2688
 2414TIP3    H128733   2.413   3.365   0.242 -0.2099 -1.1657 -1.0368
 2414TIP3    H228734   2.261   3.363   0.252 -0.2210  1.1750 -0.0373
 2415TIP3   OH228735   3.766   3.531   3.880 -0.3341 -0.3295  0.0325
 2415TIP3    H128736   3.722   3.462   3.930  1.2103 -1.7490 -0.4772
 2415TIP3    H228737   3.772   3.496   3.791 -1.4650  1.4190 -0.7935
 2416TIP3   OH228738   3.061   2.204  15.650 -0.0080 -0.6066  0.3762
 2416TIP3    H128739   3.117   2.185  15.726 -1.5710  2.0992  2.3470
 2416TIP3    H228740   3.004   2.127  15.643  1.4370 -1.7555  0.6548
 2417TIP3   OH228741   5.899   5.904  17.214 -0.4643  0.4923  0.0343
 2417TIP3    H128742   5.843   5.953  17.154 -0.9662 -1.1957 -0.9250
 2417TIP3    H228743   5.966   5.865  17.158  0.9342  1.3942  1.0000
 2418TIP3   OH228744   1.703   5.326  17.018 -1.0789 -0.2463 -0.0452
 2418TIP3    H128745   1.632   5.299  16.960 -0.9922 -0.6084  0.0120
 2418TIP3    H228746   1.687   5.279  17.100 -0.8674 -0.2019  0.0243
 2419TIP3   OH228747   1.094   5.971   3.988  0.2213  0.4438  0.1531
 2419TIP3    H128748   1.123   6.052   3.947 -0.5017  0.7390  0.2037
 2419TIP3    H228749   1.008   5.992   4.024  0.1340 -0.2777  0.3855
 2420TIP3   OH228750   4.824   4.445  11.716 -0.0947  0.5715 -0.1071
 2420TIP3    H128751   4.804   4.500  11.640 -1.9089 -0.2832 -0.3046
 2420TIP3    H228752   4.755   4.465  11.779  0.6013  0.2631  0.7704
 2421TIP3   OH228753   6.798   4.306   3.423 -0.5818 -0.0125  0.5780
 2421TIP3    H128754   6.868   4.241   3.430 -0.4340  0.1777  0.8700
 2421TIP3    H228755   6.743   4.290   3.500 -0.9198 -0.2306  0.2938
 2422TIP3   OH228756   1.074   3.514  14.064 -0.6113 -0.5893  0.7469
 2422TIP3    H128757   1.105   3.565  13.990 -1.7199 -2.1327 -0.8640
 2422TIP3    H228758   1.123   3.432  14.060 -2.1119 -1.5291  0.4056
 2423TIP3   OH228759   0.293   2.461   3.479  0.3817 -0.3748  0.0387
 2423TIP3    H128760   0.218   2.520   3.483  2.4702  2.3770  1.5647
 2423TIP3    H228761   0.289   2.412   3.562 -0.6438 -1.5840 -0.6784
 2424TIP3   OH228762   2.986   0.366   4.855 -0.0489 -0.4057 -0.2964
 2424TIP3    H128763   2.923   0.341   4.923  1.9017 -0.7518  1.4897
 2424TIP3    H228764   2.936   0.361   4.773 -2.2186 -1.0212  0.9775
 2425TIP3   OH228765   1.467   2.669   3.934  0.5975 -0.2882  0.3650
 2425TIP3    H128766   1.421   2.657   3.852  1.1341 -1.7173  0.2576
 2425TIP3    H228767   1.540   2.608   3.931  1.0028  0.0882  1.6347
 2426TIP3   OH228768   0.490   6.622   3.947  0.1945 -0.2992 -0.4005
 2426TIP3    H128769   0.563   6.652   4.002  1.6054 -2.0891 -1.2021
 2426TIP3    H228770   0.447   6.554   3.998 -0.8890  0.6698  0.0199
 2427TIP3   OH228771   0.118   1.959  17.238 -0.7009  0.3881 -0.5840
 2427TIP3    H128772   0.189   2.022  17.244 -0.8088  0.4667  0.0054
 2427TIP3    H228773   0.056   1.998  17.176 -0.2359  0.3250 -1.0839
 2428TIP3   OH228774   5.819   6.680  15.163 -0.1144 -0.6203 -0.4860
 2428TIP3    H128775   5.749   6.624  15.198 -1.3926  1.0392 -0.2435
 2428TIP3    H228776   5.810   6.674  15.068 -0.9439 -0.0077 -0.4513
 2429TIP3   OH228777   4.645   2.279   3.822  0.7911  0.3501 -0.4216
 2429TIP3    H128778   4.647   2.337   3.746 -0.2505 -0.3792 -1.0427
 2429TIP3    H228779   4.588   2.324   3.884  0.6231  0.3617 -0.5825
 2430TIP3   OH228780   3.784   6.009  14.576  0.1096 -0.0540  0.4264
 2430TIP3    H128781   3.831   6.047  14.501  0.0828 -0.1156  0.3786
 2430TIP3    H228782   3.806   5.916  14.573 -0.2430 -0.1349  0.2336
 2431TIP3   OH228783   2.110   1.968  15.423  0.1284 -0.6371 -0.4956
 2431TIP3    H128784   2.121   1.934  15.334  1.4018  0.1094 -0.6601
 2431TIP3    H228785   2.055   2.045  15.413 -1.4761 -1.7223 -0.3287
 2432TIP3   OH228786   4.912   2.070   5.719  0.2291 -0.2727  0.3784
 2432TIP3    H128787   4.858   2.069   5.640 -0.9447  0.3313  1.1347
 2432TIP3    H228788   4.884   2.148   5.766  1.0328 -0.5223  1.3110
 2433TIP3   OH228789   1.121   5.724   1.534 -0.6305  0.2718  0.3918
 2433TIP3    H128790   1.129   5.669   1.456  1.1126 -2.2651  2.1926
 2433TIP3    H228791   1.155   5.809   1.507  0.8077 -0.7983 -1.3848
 2434TIP3   OH228792   4.125   2.718   3.259 -0.0692  0.3924 -0.1574
 2434TIP3    H128793   4.061   2.656   3.225  0.6183 -0.1656 -0.4690
 2434TIP3    H228794   4.209   2.685   3.227  0.2615  1.7706 -0.7627
 2435TIP3   OH228795   3.480   1.990  15.059 -0.2144 -0.1454 -0.0352
 2435TIP3    H128796   3.442   1.907  15.030  0.7337 -2.1966  3.9050
 2435TIP3    H228797   3.407   2.038  15.098 -0.1525 -0.8002  0.9183
 2436TIP3   OH228798   5.172   0.816   4.004  0.2365 -0.6303 -0.5324
 2436TIP3    H128799   5.183   0.784   4.093 -0.2584 -0.2245 -0.3208
 2436TIP3    H228800   5.150   0.909   4.014  3.8418  0.4334 -1.1800
 2437TIP3   OH228801   6.443   5.350  15.146 -0.2259 -0.2456  0.1455
 2437TIP3    H128802   6.464   5.364  15.053 -1.0141  0.7419  0.0956
 2437TIP3    H228803   6.381   5.420  15.167 -1.1137 -1.2818  1.0649
 2438TIP3   OH228804   1.443   5.753   5.923 -0.2495 -0.1816  0.1932
 2438TIP3    H128805   1.485   5.681   5.969  1.2794  0.5823  0.0636
 2438TIP3    H228806   1.364   5.715   5.884  1.0133 -2.0289 -0.6812
 2439TIP3   OH228807   0.821   2.372   3.184  0.4467 -0.8593 -0.3030
 2439TIP3    H128808   0.893   2.316   3.213  1.4609  0.7404  0.4112
 2439TIP3    H228809   0.798   2.424   3.261 -1.2597 -1.0717 -0.6217
 2440TIP3   OH228810   3.020   4.680   2.080 -0.6081  0.2864  0.9080
 2440TIP3    H128811   3.050   4.770   2.093  0.4121  0.1400 -0.1424
 2440TIP3    H228812   2.935   4.688   2.036  0.9155  0.8561 -2.2716
 2441TIP3   OH228813   2.341   3.811  17.037 -0.1409  0.6895  0.4934
 2441TIP3    H128814   2.386   3.748  17.092  0.4232  1.3218  0.7776
 2441TIP3    H228815   2.377   3.896  17.064  0.6839  0.9626 -1.3380
 2442TIP3   OH228816   6.563   0.496   3.296 -0.2945 -0.3439 -0.5857
 2442TIP3    H128817   6.489   0.555   3.311 -0.1734 -0.7210  1.8810
 2442TIP3    H228818   6.557   0.431   3.366  0.8786 -1.9659 -1.8977
 2443TIP3   OH228819   5.129   2.945  10.998 -0.0732 -0.3578 -0.3183
 2443TIP3    H128820   5.170   2.859  11.004 -1.6960 -1.1665 -0.3499
 2443TIP3    H228821   5.074   2.939  10.920  0.6282  1.1005 -0.9585
 2444TIP3   OH228822   3.450   2.497   1.610 -0.0262  0.3343  0.5744
 2444TIP3    H128823   3.528   2.516   1.558  0.1150 -2.7117 -0.4799
 2444TIP3    H228824   3.476   2.425   1.668 -2.2786 -1.4938 -0.5475
 2445TIP3   OH228825   5.664   4.661   5.785 -0.2315  0.2520 -0.1089
 2445TIP3    H128826   5.630   4.746   5.759  0.2970  0.6506  0.4840
 2445TIP3    H228827   5.661   4.608   5.705  2.1862  1.6957 -1.2505
 2446TIP3   OH228828   0.924   0.019  11.905  0.0643 -0.1399  0.0781
 2446TIP3    H128829   0.849  -0.038  11.921 -0.1142 -0.2237 -0.9964
 2446TIP3    H228830   0.892   0.107  11.927 -0.5645 -0.0867 -1.0106
 2447TIP3   OH228831   2.517   3.850  11.081 -0.3541 -0.1508 -0.2961
 2447TIP3    H128832   2.578   3.849  11.008  0.9190 -1.0297  0.7374
 2447TIP3    H228833   2.477   3.937  11.077  3.0556  1.6364  0.6638
 2448TIP3   OH228834   2.884   2.226   4.408 -0.3592  0.3153 -0.1751
 2448TIP3    H128835   2.840   2.156   4.360 -1.5968  1.5538 -0.9289
 2448TIP3    H228836   2.974   2.195   4.419 -1.4422 -2.5165  1.8422
 2449TIP3   OH228837   3.014   5.148  13.425 -0.8729  0.4141  0.7928
 2449TIP3    H128838   2.983   5.229  13.384 -2.2565 -0.9330 -1.0012
 2449TIP3    H228839   2.953   5.134  13.498 -1.0046  0.6733  0.7365
 2450TIP3   OH228840   2.157   5.146   0.330 -0.5037  0.7483  0.0467
 2450TIP3    H128841   2.126   5.146   0.421  0.1439 -0.3829  0.2831
 2450TIP3    H228842   2.232   5.087   0.330 -0.8410  0.2770 -1.3469
 2451TIP3   OH228843   5.521   4.209   3.990 -0.2866 -0.2718 -0.8975
 2451TIP3    H128844   5.472   4.261   3.925  0.1001  0.9821 -0.2131
 2451TIP3    H228845   5.454   4.174   4.048 -0.4408  0.7941 -0.4232
 2452TIP3   OH228846   3.293   1.917   3.335 -0.5863  0.1763 -0.1709
 2452TIP3    H128847   3.353   1.899   3.408 -0.9381 -0.1625  0.0378
 2452TIP3    H228848   3.275   2.011   3.342 -0.3037  0.2234 -0.0630
 2453TIP3   OH228849   6.469   2.399  16.879  0.3122 -0.0582  0.1635
 2453TIP3    H128850   6.482   2.330  16.943 -0.0550  0.3923  0.7359
 2453TIP3    H228851   6.376   2.396  16.858  0.0407  1.0660  1.1416
 2454TIP3   OH228852   4.321   1.832  13.701  0.4193 -0.1905  0.3312
 2454TIP3    H128853   4.350   1.923  13.710 -0.1448  0.3430 -2.3525
 2454TIP3    H228854   4.228   1.839  13.677  0.5764 -1.4014 -0.7176
 2455TIP3   OH228855   3.504   2.285   5.657 -0.1263  0.1444  0.2128
 2455TIP3    H128856   3.573   2.245   5.710 -0.2546 -0.3263  0.0322
 2455TIP3    H228857   3.504   2.377   5.683  0.9355  0.2677 -0.1929
 2456TIP3   OH228858   3.630   0.222  10.478 -0.3765  0.6208 -0.5935
 2456TIP3    H128859   3.592   0.135  10.469  0.6506 -0.1747  1.9946
 2456TIP3    H228860   3.692   0.228  10.405  1.3973 -1.9150  0.5499
 2457TIP3   OH228861   3.881   3.678   0.679  0.1744  0.1007  0.5674
 2457TIP3    H128862   3.953   3.740   0.664 -0.0422  0.4224  0.8542
 2457TIP3    H228863   3.802   3.726   0.654 -0.1468  0.4743  2.2006
 2458TIP3   OH228864   5.147   6.224   1.145  0.4277 -0.8060 -0.0802
 2458TIP3    H128865   5.120   6.133   1.157 -1.6511  0.0186  2.2619
 2458TIP3    H228866   5.216   6.237   1.209  1.8999 -1.1087 -1.5400
 2459TIP3   OH228867   4.767   0.739   5.273 -0.3838 -0.0233 -0.2630
 2459TIP3    H128868   4.854   0.756   5.310 -0.1720  1.5422 -1.3723
 2459TIP3    H228869   4.730   0.670   5.329  1.4696 -0.5777  0.3693
 2460TIP3   OH228870   5.288   1.785   4.901 -0.2753  0.0410 -0.5756
 2460TIP3    H128871   5.206   1.831   4.881 -0.1664 -0.5571 -2.6492
 2460TIP3    H228872   5.298   1.723   4.830  2.4675  0.7539 -0.9212
 2461TIP3   OH228873   6.604   0.953  15.554 -0.5344 -0.3616 -0.0218
 2461TIP3    H128874   6.598   1.044  15.525 -0.6280 -0.6640 -0.9654
 2461TIP3    H228875   6.555   0.951  15.637 -0.0756  0.5535  0.2832
 2462TIP3   OH228876   5.392   4.223   4.833 -0.0489  0.4588  0.4132
 2462TIP3    H128877   5.301   4.196   4.840  0.5743 -1.3368  3.1407
 2462TIP3    H228878   5.442   4.141   4.827  1.4994  1.2926  1.1611
 2463TIP3   OH228879   5.309   2.976  16.092  0.1357  0.3293 -0.5061
 2463TIP3    H128880   5.261   2.966  16.174  0.6059  1.2553 -0.0963
 2463TIP3    H228881   5.257   2.930  16.027 -0.5563  0.0961  0.2044
 2464TIP3   OH228882   1.618   5.252  15.686  0.1630  0.0986 -0.8479
 2464TIP3    H128883   1.549   5.300  15.640  0.1111  1.3709  0.5048
 2464TIP3    H228884   1.629   5.172  15.635 -3.5199 -1.0125 -0.1779
 2465TIP3   OH228885   1.926   1.216   4.122 -0.0359  0.2333 -0.2947
 2465TIP3    H128886   1.936   1.124   4.098  0.2853 -0.5220  2.3765
 2465TIP3    H228887   1.831   1.228   4.132 -0.0960  0.2720 -0.8895
 2466TIP3   OH228888   2.383   4.228   5.543  0.8119  0.0144 -0.4859
 2466TIP3    H128889   2.320   4.247   5.473  1.1103  2.9147 -0.1073
 2466TIP3    H228890   2.365   4.137   5.568 -3.8541  0.8251  0.1579
 2467TIP3   OH228891   0.232   5.834  12.290  0.0171  0.1659  0.8495
 2467TIP3    H128892   0.179   5.889  12.348  4.2453  4.2227  1.4121
 2467TIP3    H228893   0.294   5.790  12.348 -0.6075 -2.0528 -0.0500
 2468TIP3   OH228894   5.357   1.757  16.721 -0.1724 -0.3942  0.3361
 2468TIP3    H128895   5.308   1.721  16.795 -0.8331  0.9972  0.6073
 2468TIP3    H228896   5.299   1.825  16.686  0.1538 -0.9655 -1.4183
 2469TIP3   OH228897   6.199   4.413  16.175 -0.1917  0.3021  0.1365
 2469TIP3    H128898   6.248   4.378  16.101 -2.6167 -3.0021 -0.1030
 2469TIP3    H228899   6.264   4.422  16.245  1.1675 -1.8798 -0.7635
 2470TIP3   OH228900   5.369   0.930  11.209  0.2023 -0.5352  0.1814
 2470TIP3    H128901   5.331   0.844  11.190  0.7034 -0.7661  0.2002
 2470TIP3    H228902   5.391   0.965  11.123 -2.3073  0.6829 -0.0498
 2471TIP3   OH228903   0.108   1.237  11.958 -0.1129  0.5516  0.1827
 2471TIP3    H128904   0.081   1.300  11.891  0.6738  1.3976  0.6399
 2471TIP3    H228905   0.097   1.283  12.041  1.2833  0.4092  0.4731
 2472TIP3   OH228906   5.770   0.002   4.496 -0.3438  0.4126  0.4688
 2472TIP3    H128907   5.746   0.062   4.567 -0.4125  1.7666 -0.6586
 2472TIP3    H228908   5.710  -0.072   4.506 -0.8190  0.8999  1.3945
 2473TIP3   OH228909   5.148   6.750  15.806  0.1671  0.0846  0.3310
 2473TIP3    H128910   5.092   6.824  15.784 -1.0377 -1.0424 -0.4996
 2473TIP3    H228911   5.097   6.698  15.868  0.4981 -0.6750 -0.0184
 2474TIP3   OH228912   2.994   0.105  16.743  0.2884 -0.4000  0.1299
 2474TIP3    H128913   2.964   0.189  16.706 -0.1904 -0.0332  1.3090
 2474TIP3    H228914   2.936   0.040  16.705 -1.0247  0.1238  1.1510
 2475TIP3   OH228915   1.984   0.942  13.700  0.4608 -0.6465  0.0142
 2475TIP3    H128916   1.997   1.015  13.639  1.3216  0.5363  1.5461
 2475TIP3    H228917   1.890   0.937  13.712  0.4441  1.6424  1.4769
 2476TIP3   OH228918   4.861   1.115  16.820  0.2953 -0.1157  0.3847
 2476TIP3    H128919   4.895   1.026  16.809  1.2027  0.1716  0.7248
 2476TIP3    H228920   4.900   1.145  16.902 -0.1049  0.5496  0.3334
 2477TIP3   OH228921   6.428   1.064  13.060 -0.1568 -0.9036 -0.3545
 2477TIP3    H128922   6.384   1.128  13.005  1.1833  0.4354  0.0563
 2477TIP3    H228923   6.514   1.102  13.077 -0.5229 -1.1512  2.7370
 2478TIP3   OH228924   6.333   2.699   4.955  0.1313 -1.1227 -0.3468
 2478TIP3    H128925   6.401   2.766   4.963  0.8037 -1.8887  0.4726
 2478TIP3    H228926   6.363   2.644   4.882 -0.7121 -0.2236 -1.4022
 2479TIP3   OH228927   0.290   2.631   4.396  0.1198  0.3668  0.0523
 2479TIP3    H128928   0.217   2.655   4.453 -1.6854 -1.6586 -1.2460
 2479TIP3    H228929   0.252   2.624   4.309  1.8508 -0.8300 -0.6742
 2480TIP3   OH228930   3.034   3.993   1.230  0.2467 -0.4852 -0.6860
 2480TIP3    H128931   2.991   3.937   1.165 -0.9250 -2.5976  1.7319
 2480TIP3    H228932   3.126   3.964   1.230 -0.1082 -1.6522 -0.2707
 2481TIP3   OH228933   5.813   0.686  11.380  0.0825  0.1795  0.5304
 2481TIP3    H128934   5.829   0.617  11.315  0.2776  0.6212  0.1050
 2481TIP3    H228935   5.717   0.696  11.381  0.1124  0.6646 -0.2215
 2482TIP3   OH228936   3.885   4.679  11.721 -0.7018  0.2923 -0.1301
 2482TIP3    H128937   3.915   4.716  11.804  1.0631  0.9080 -0.9954
 2482TIP3    H228938   3.869   4.755  11.665 -0.2747 -0.1367 -0.8577
 2483TIP3   OH228939   1.909   5.479   0.012 -0.0051 -0.4190 -0.5209
 2483TIP3    H128940   1.972   5.431   0.065  1.3905 -0.2424 -1.9423
 2483TIP3    H228941   1.864   5.537   0.074  0.2467 -1.5354  0.7394
 2484TIP3   OH228942   2.262   3.251  14.345 -0.2692 -0.5882  0.7041
 2484TIP3    H128943   2.185   3.243  14.401 -2.0231  2.0998 -1.0380
 2484TIP3    H228944   2.242   3.198  14.268 -0.0680 -0.4433  0.5482
 2485TIP3   OH228945   6.532   1.962  17.230  0.4394 -0.6014 -0.0240
 2485TIP3    H128946   6.448   1.929  17.261  0.2300 -0.6424 -0.6170
 2485TIP3    H228947   6.593   1.944  17.301 -0.6455  2.2588  1.7542
 2486TIP3   OH228948   2.654   4.921   2.482  0.0441 -0.5854  0.1131
 2486TIP3    H128949   2.566   4.937   2.447 -0.1649 -1.4295  0.2285
 2486TIP3    H228950   2.647   4.837   2.528  0.9058 -0.6512  0.1455
 2487TIP3   OH228951   0.061   5.126  14.193  0.6782  0.3975  0.3202
 2487TIP3    H128952   0.022   5.213  14.191  0.7069  0.4085 -1.0419
 2487TIP3    H228953   0.155   5.142  14.202  0.8364  0.6099 -1.2919
 2488TIP3   OH228954   5.382   3.344   3.778  0.8840 -0.3072  0.2724
 2488TIP3    H128955   5.397   3.394   3.858 -0.5664 -0.1177  0.4404
 2488TIP3    H228956   5.336   3.265   3.807  0.0207 -0.0666 -0.4015
 2489TIP3   OH228957   6.357   0.534   5.271 -0.0056  0.2657  0.1004
 2489TIP3    H128958   6.287   0.586   5.230 -1.5148 -1.8070 -0.1075
 2489TIP3    H228959   6.392   0.481   5.200 -1.3837 -2.0140  1.0342
 2490TIP3   OH228960   0.353   1.955  11.382 -0.5729 -0.4366  0.4609
 2490TIP3    H128961   0.432   1.987  11.426 -0.6832  1.4607 -0.6054
 2490TIP3    H228962   0.283   2.012  11.414 -1.0196 -0.3678 -0.5997
 2491TIP3   OH228963   1.799   3.920   3.953 -0.3156  0.0812 -0.1291
 2491TIP3    H128964   1.821   3.829   3.938  0.8485  0.0586  1.4985
 2491TIP3    H228965   1.855   3.969   3.893  0.0307 -0.2291 -0.0626
 2492TIP3   OH228966   4.052   4.627  15.407  0.2856 -0.1350 -0.1783
 2492TIP3    H128967   4.058   4.537  15.439  0.6081 -0.5174 -1.2915
 2492TIP3    H228968   3.961   4.653  15.425 -0.0768 -1.0093 -0.6804
 2493TIP3   OH228969   3.701   5.140   2.083  0.0643  0.1899  0.8803
 2493TIP3    H128970   3.755   5.066   2.111 -0.9075 -1.8951 -2.1947
 2493TIP3    H228971   3.674   5.118   1.994 -0.7101  4.0841 -0.0550
 2494TIP3   OH228972   5.494   2.414   3.822 -0.6880 -0.6256 -0.0063
 2494TIP3    H128973   5.490   2.320   3.803  0.0367 -0.4481 -1.1678
 2494TIP3    H228974   5.488   2.456   3.737 -2.7815  0.4963  0.6172
 2495TIP3   OH228975   1.991   3.208  13.731 -0.2337 -0.1395 -0.3868
 2495TIP3    H128976   2.054   3.266  13.774 -1.6944  0.7840  0.5648
 2495TIP3    H228977   1.955   3.154  13.802  0.1531 -1.3442 -1.0661
 2496TIP3   OH228978   0.794   2.547  13.871 -0.3043 -0.2965 -0.1243
 2496TIP3    H128979   0.699   2.551  13.865 -0.2510  0.0957 -0.7357
 2496TIP3    H228980   0.813   2.454  13.888 -0.9372  0.0313  2.9363
 2497TIP3   OH228981   4.040   0.887  16.737  0.2341  0.0716  0.2668
 2497TIP3    H128982   4.038   0.904  16.831  1.1953 -0.6044  0.4182
 2497TIP3    H228983   4.061   0.972  16.698 -2.4703  0.9291  0.4522
 2498TIP3   OH228984   2.761   2.119   1.326  0.1025 -0.5963 -0.5471
 2498TIP3    H128985   2.841   2.121   1.379  1.0288 -0.5724 -1.9189
 2498TIP3    H228986   2.694   2.157   1.384  1.2312  0.0893  0.3591
 2499TIP3   OH228987   6.008   0.600   1.590 -0.1739  1.1115  0.5589
 2499TIP3    H128988   5.960   0.603   1.673 -0.4460 -2.3436  0.6755
 2499TIP3    H228989   6.063   0.678   1.591 -0.7157  1.5703  3.6527
 2500TIP3   OH228990   4.499   1.103  15.048  0.1175 -0.1399  0.1098
 2500TIP3    H128991   4.430   1.148  14.999 -1.5453 -2.2018  0.4029
 2500TIP3    H228992   4.451   1.046  15.108  2.1165 -1.6185  0.3714
 2501TIP3   OH228993   1.778   0.890   4.661 -0.1115 -0.1116  0.3427
 2501TIP3    H128994   1.834   0.840   4.602 -0.8056 -0.1088 -0.3443
 2501TIP3    H228995   1.773   0.838   4.741  1.7553  0.4182  0.8503
 2502TIP3   OH228996   2.154   2.401   0.519 -0.7802  0.0594  0.8924
 2502TIP3    H128997   2.061   2.386   0.501 -0.8221  0.2629  0.9399
 2502TIP3    H228998   2.156   2.441   0.606 -0.7353  1.2173  0.3723
 2503TIP3   OH228999   0.662   6.760  17.210  0.2997  1.0915 -0.3565
 2503TIP3    H129000   0.725   6.742  17.281 -1.0190 -1.8886  0.2218
 2503TIP3    H229001   0.582   6.785  17.256 -0.7487 -1.4492 -0.6096
 2504TIP3   OH229002   4.247   6.359  12.465 -0.6997 -0.2462 -0.4360
 2504TIP3    H129003   4.165   6.402  12.441 -1.0046 -1.1121 -1.0155
 2504TIP3    H229004   4.276   6.316  12.385  0.1673 -0.1983 -0.1533
 2505TIP3   OH229005   0.376   6.639   4.898 -0.3283 -0.3467  0.0144
 2505TIP3    H129006   0.285   6.656   4.873 -0.6976 -0.1179  1.4307
 2505TIP3    H229007   0.412   6.591   4.824 -1.5992 -0.4242 -0.5873
 2506TIP3   OH229008   4.669   4.557   4.425  0.3507  0.3091 -0.3596
 2506TIP3    H129009   4.707   4.645   4.427  0.0515  0.4548 -0.8996
 2506TIP3    H229010   4.635   4.544   4.513  2.7752 -0.3392  0.5380
 2507TIP3   OH229011   0.123   2.196   3.462  0.3062  0.4458  0.0561
 2507TIP3    H129012   0.035   2.196   3.425 -0.2296 -0.0424  1.2542
 2507TIP3    H229013   0.181   2.181   3.387 -0.8069 -1.7132 -0.4557
 2508TIP3   OH229014   3.184   2.571   4.653 -0.2404 -0.2170 -0.0744
 2508TIP3    H129015   3.170   2.549   4.745 -0.1586 -0.9206 -0.2289
 2508TIP3    H229016   3.102   2.611   4.625 -1.6963 -3.3366 -0.6873
 2509TIP3   OH229017   6.566   1.850   5.300 -0.2689 -0.2051  0.0920
 2509TIP3    H129018   6.521   1.881   5.221  2.6815  2.0736 -0.8800
 2509TIP3    H229019   6.571   1.927   5.356  0.0741 -1.1019  1.3110
 2510TIP3   OH229020   3.064   3.473   4.163  0.0883  0.4300 -0.5521
 2510TIP3    H129021   3.035   3.550   4.113  1.3671  1.7167  0.5789
 2510TIP3    H229022   3.120   3.425   4.103  2.2781  2.3848 -0.2223
 2511TIP3   OH229023   4.226   3.183   1.393 -0.1138 -0.1039  0.3390
 2511TIP3    H129024   4.294   3.248   1.413 -0.1579 -0.9290  3.7063
 2511TIP3    H229025   4.230   3.121   1.465 -1.3122 -2.8884 -1.8156
 2512TIP3   OH229026   0.603   0.537   0.831  0.0950  0.0942  0.2041
 2512TIP3    H129027   0.652   0.615   0.806  0.7420 -0.5941 -0.7283
 2512TIP3    H229028   0.669   0.479   0.870 -0.3153 -0.1299  0.5757
 2513TIP3   OH229029   0.289   4.357   5.092 -0.2555 -0.5567 -0.3710
 2513TIP3    H129030   0.268   4.292   5.160  0.2579 -0.5624 -0.2140
 2513TIP3    H229031   0.303   4.438   5.140  0.2703 -0.5959 -0.4440
 2514TIP3   OH229032   5.071   3.017  15.645 -0.0238  0.2725 -0.3631
 2514TIP3    H129033   5.040   3.027  15.555 -0.9325  0.8860 -0.0004
 2514TIP3    H229034   4.990   3.012  15.697  0.4865 -0.2670  0.4009
 2515TIP3   OH229035   3.030   3.268   5.197 -0.7556  0.0614  1.1265
 2515TIP3    H129036   3.032   3.359   5.227 -0.3707  0.9929 -1.4722
 2515TIP3    H229037   3.064   3.272   5.108  1.6527 -2.9967  1.7431
 2516TIP3   OH229038   6.216   0.368  13.820 -0.5463 -0.1625 -0.0204
 2516TIP3    H129039   6.133   0.375  13.774 -0.2895  1.5566 -0.2806
 2516TIP3    H229040   6.192   0.374  13.913 -0.7161  0.3872 -0.0962
 2517TIP3   OH229041   1.064   6.170   0.645 -0.1788  0.8375  0.4665
 2517TIP3    H129042   1.008   6.159   0.568  0.9049  1.4320 -0.4361
 2517TIP3    H229043   1.120   6.092   0.644  1.7984  2.1845 -1.0690
 2518TIP3   OH229044   5.540   4.046  14.312 -0.1062 -0.4386 -0.1316
 2518TIP3    H129045   5.597   4.120  14.293 -0.8884  0.4064  0.7028
 2518TIP3    H229046   5.593   3.969  14.291  0.9399  0.3334 -0.4181
 2519TIP3   OH229047   5.879   0.624   1.837 -1.0376  0.1104  0.4731
 2519TIP3    H129048   5.816   0.687   1.803 -3.0307 -1.2203  1.5049
 2519TIP3    H229049   5.895   0.652   1.927 -1.3818 -0.4186  0.7054
 2520TIP3   OH229050   6.705   5.696   4.703 -0.0523 -0.2593  0.4561
 2520TIP3    H129051   6.689   5.789   4.688 -0.7954 -0.5994 -1.0035
 2520TIP3    H229052   6.677   5.653   4.622 -0.0886 -1.7932  1.2414
 2521TIP3   OH229053   3.716   0.860  12.433  0.1394 -0.1219  0.4699
 2521TIP3    H129054   3.708   0.952  12.459  1.2768  0.0594  0.2351
 2521TIP3    H229055   3.797   0.831  12.474 -0.3159 -1.0910  0.7152
 2522TIP3   OH229056   5.944   4.700   5.321  0.3226  0.3301 -0.0647
 2522TIP3    H129057   5.857   4.664   5.334  0.5446 -0.7102 -1.2553
 2522TIP3    H229058   5.999   4.655   5.385  0.2763 -0.1739 -0.3786
 2523TIP3   OH229059   5.229   5.453  15.752  0.0652 -0.9765 -0.2966
 2523TIP3    H129060   5.211   5.484  15.664  0.5489 -2.2198 -0.8558
 2523TIP3    H229061   5.324   5.445  15.756  0.1212 -0.1052  0.6498
 2524TIP3   OH229062   5.322   3.773   1.765 -0.2621 -0.3223 -0.1474
 2524TIP3    H129063   5.320   3.682   1.735 -1.2873 -0.1992 -0.5277
 2524TIP3    H229064   5.298   3.824   1.688  0.9012  0.3343 -0.0970
 2525TIP3   OH229065   5.867   1.793   2.855  0.0267  0.4805  0.2050
 2525TIP3    H129066   5.921   1.738   2.911  1.6016  2.0424  0.2973
 2525TIP3    H229067   5.874   1.753   2.768 -2.0647 -1.6880  0.9133
 2526TIP3   OH229068   1.800   6.762   0.607  0.0681  0.1908  0.2383
 2526TIP3    H129069   1.782   6.747   0.699 -1.7518 -2.0530 -0.3927
 2526TIP3    H229070   1.806   6.674   0.569  1.8262  1.0208 -1.6233
 2527TIP3   OH229071   5.977   1.886  12.595  0.0147  0.7026 -0.1262
 2527TIP3    H129072   6.006   1.939  12.668  0.8556  0.3679 -0.2105
 2527TIP3    H229073   5.882   1.879  12.607  0.0031  1.5276  0.3322
 2528TIP3   OH229074   0.639   6.308   4.480  0.7769 -0.1241  0.6140
 2528TIP3    H129075   0.617   6.358   4.401  1.2163 -0.3571  0.3421
 2528TIP3    H229076   0.723   6.267   4.460  0.1385 -1.4659  0.6060
 2529TIP3   OH229077   2.570   1.896   1.604  0.2231  0.1539  0.0305
 2529TIP3    H129078   2.544   1.828   1.542  2.7790 -0.8173 -0.1311
 2529TIP3    H229079   2.565   1.977   1.554 -1.3665 -0.0934 -0.2576
 2530TIP3   OH229080   3.249   0.187  15.438  0.0741  0.4196 -0.8645
 2530TIP3    H129081   3.289   0.158  15.356 -0.9897  2.2128 -2.0758
 2530TIP3    H229082   3.158   0.204  15.416 -0.0382  1.7820  0.4860
 2531TIP3   OH229083   5.789   4.144  16.515 -0.2696 -0.5190  0.1260
 2531TIP3    H129084   5.721   4.098  16.465 -0.5305 -0.3444  0.3187
 2531TIP3    H229085   5.757   4.233  16.524  0.2569 -0.2895 -0.2730
 2532TIP3   OH229086   4.446   1.096  11.282 -0.2171 -0.1296  0.3672
 2532TIP3    H129087   4.540   1.092  11.263 -0.2429  2.1375 -0.5589
 2532TIP3    H229088   4.437   1.171  11.341 -1.5680  0.4315 -0.5033
 2533TIP3   OH229089   0.246   4.987  16.533 -0.5521  0.2691 -0.2859
 2533TIP3    H129090   0.194   5.063  16.505 -1.3423 -0.2434 -0.2368
 2533TIP3    H229091   0.234   4.922  16.464  0.0480  0.1485 -0.2823
 2534TIP3   OH229092   1.198   1.071  15.236 -0.0734  0.4798  0.1167
 2534TIP3    H129093   1.156   1.049  15.319  0.4639  1.1004  0.5692
 2534TIP3    H229094   1.253   0.995  15.216  2.3003  1.5380  2.0136
 2535TIP3   OH229095   2.031   3.381  11.770  0.3316 -0.2519  0.2724
 2535TIP3    H129096   1.961   3.394  11.834 -1.7989 -3.5165 -1.0622
 2535TIP3    H229097   2.090   3.317  11.811  1.2674  0.7345  0.4963
 2536TIP3   OH229098   5.613   3.839   0.066 -0.8583 -0.0047  0.3066
 2536TIP3    H129099   5.649   3.764   0.019  0.3118 -0.1327  1.3616
 2536TIP3    H229100   5.686   3.872   0.119 -2.6095 -1.2220  3.7227
 2537TIP3   OH229101   6.801   2.847   5.603 -0.4693  0.4282 -0.1700
 2537TIP3    H129102   6.810   2.941   5.584 -0.0904  0.2932 -0.6806
 2537TIP3    H229103   6.879   2.807   5.565 -0.9633 -0.1789 -0.5790
 2538TIP3   OH229104   1.169   4.133   1.263 -0.6306 -0.2776 -0.5234
 2538TIP3    H129105   1.213   4.050   1.282  0.5258  0.0948 -1.5273
 2538TIP3    H229106   1.151   4.170   1.350 -0.1179 -1.0274 -0.0799
 2539TIP3   OH229107   2.898   0.463  13.663  0.2145  0.1383 -0.3645
 2539TIP3    H129108   2.914   0.400  13.734 -1.3783 -0.3244 -0.3717
 2539TIP3    H229109   2.952   0.538  13.686  2.1089 -1.1679 -0.3094
 2540TIP3   OH229110   2.787   1.293   2.679  0.2945 -0.1104 -0.0645
 2540TIP3    H129111   2.866   1.346   2.677  0.5013 -0.4297 -0.5840
 2540TIP3    H229112   2.804   1.225   2.744  0.1568  0.2598  0.3605
 2541TIP3   OH229113   4.869   0.913  16.110 -0.3586  0.3996 -0.1968
 2541TIP3    H129114   4.903   1.002  16.117 -0.2521  0.7276 -3.5032
 2541TIP3    H229115   4.939   0.864  16.067 -0.1974 -1.5257  2.0390
 2542TIP3   OH229116   4.990   3.581   0.452 -0.0813  0.1252  0.1010
 2542TIP3    H129117   4.938   3.503   0.472 -0.7875 -0.0044 -2.0865
 2542TIP3    H229118   4.942   3.653   0.493 -0.5231 -0.3238  0.3829
 2543TIP3   OH229119   2.620   5.078  17.102  0.3276 -0.3477 -0.1396
 2543TIP3    H129120   2.606   5.144  17.169  1.2715 -1.8526  1.6520
 2543TIP3    H229121   2.534   5.040  17.088 -0.0286  0.5460 -0.4029
 2544TIP3   OH229122   3.444   0.715  16.960  0.1918 -0.0605  0.1744
 2544TIP3    H129123   3.536   0.700  16.938  0.0072  0.0931 -0.7170
 2544TIP3    H229124   3.447   0.756  17.047  0.9262 -0.7161  0.4725
 2545TIP3   OH229125   1.763   1.936   3.495 -0.1839 -0.9050  0.3156
 2545TIP3    H129126   1.702   1.982   3.437  1.3366  1.2053  0.2776
 2545TIP3    H229127   1.729   1.846   3.499 -1.1951 -0.7690 -2.6592
 2546TIP3   OH229128   4.868   0.338   3.827  0.6115  0.0151 -0.2724
 2546TIP3    H129129   4.913   0.309   3.906 -0.5024 -0.1272  0.3259
 2546TIP3    H229130   4.811   0.409   3.857 -2.4828 -2.3187 -0.1806
 2547TIP3   OH229131   4.568   5.615  16.931  0.2337  0.4380 -0.1854
 2547TIP3    H129132   4.562   5.532  16.978 -0.7447  1.4610  1.5873
 2547TIP3    H229133   4.596   5.678  16.997 -1.8171  2.0600 -0.7601
 2548TIP3   OH229134   3.764   0.996  16.611 -0.0288  0.8087 -0.2006
 2548TIP3    H129135   3.723   1.032  16.689  1.0425  0.9983  0.2919
 2548TIP3    H229136   3.832   0.937  16.644 -1.2969 -1.2049 -0.9734
 2549TIP3   OH229137   5.440   0.846   4.776 -0.3712  0.1341  0.2507
 2549TIP3    H129138   5.357   0.877   4.813 -0.1226  0.1872  0.7765
 2549TIP3    H229139   5.506   0.872   4.841 -0.0544 -0.7269  0.2856
 2550TIP3   OH229140   5.123   0.637  16.634  0.3933  0.3231  0.0926
 2550TIP3    H129141   5.092   0.547  16.626  1.6838 -0.0137 -1.3932
 2550TIP3    H229142   5.046   0.686  16.663 -0.5425 -1.0983  0.0908
 2551TIP3   OH229143   4.799   3.291  15.239  0.1961 -0.2174 -0.3085
 2551TIP3    H129144   4.783   3.336  15.322  0.0690 -2.1796  0.7960
 2551TIP3    H229145   4.713   3.282  15.198  0.2722  0.8405 -0.7283
 2552TIP3   OH229146   5.462   3.724  15.367  0.4583 -0.0764 -0.4493
 2552TIP3    H129147   5.550   3.694  15.345  0.5379 -0.2977  0.1653
 2552TIP3    H229148   5.408   3.645  15.361  0.4306 -0.0820 -0.1309
 2553TIP3   OH229149   5.072   6.610  12.545 -0.7386 -0.2072 -0.6701
 2553TIP3    H129150   5.083   6.517  12.526 -2.3968 -0.8059  0.9154
 2553TIP3    H229151   5.141   6.630  12.609 -0.6101 -0.4537 -0.7302
 2554TIP3   OH229152   2.841   4.310   4.449 -0.4338  0.1728 -0.1919
 2554TIP3    H129153   2.776   4.311   4.519  1.1257  0.8252  1.3177
 2554TIP3    H229154   2.847   4.401   4.421 -0.2276  0.1050 -0.3665
 2555TIP3   OH229155   0.446   1.327  16.836  0.2014  0.2047 -0.3555
 2555TIP3    H129156   0.353   1.333  16.816  0.4894  0.6508 -1.6195
 2555TIP3    H229157   0.489   1.379  16.768  1.4236 -0.5570 -0.1934
 2556TIP3   OH229158   3.817   0.350   1.052  0.0035  0.0537  0.0157
 2556TIP3    H129159   3.855   0.262   1.050  0.5841  0.3130 -0.8856
 2556TIP3    H229160   3.811   0.371   1.145  0.1743 -0.8012  0.2335
 2557TIP3   OH229161   5.773   5.326  12.050  0.1900 -0.1313 -0.6623
 2557TIP3    H129162   5.719   5.389  12.097  1.5001  0.6253 -0.1275
 2557TIP3    H229163   5.833   5.292  12.116  2.2212  1.1026 -1.7801
 2558TIP3   OH229164   2.346   5.721  14.646  0.4344 -0.1330 -0.5777
 2558TIP3    H129165   2.385   5.788  14.589  0.6906 -0.8537 -1.2749
 2558TIP3    H229166   2.321   5.769  14.725 -0.1871  0.9661 -1.3903
 2559TIP3   OH229167   4.640   6.045  14.161  0.1610  0.1797  0.6342
 2559TIP3    H129168   4.671   6.057  14.251 -0.4161  0.9440  0.7435
 2559TIP3    H229169   4.546   6.064  14.166  0.0772 -0.0282 -0.0853
 2560TIP3   OH229170   4.107   2.895   4.335 -0.7831  0.3781  0.8893
 2560TIP3    H129171   4.138   2.807   4.311  0.8129  0.4782  2.3669
 2560TIP3    H229172   4.014   2.883   4.355 -0.6838 -0.9055  0.6680
 2561TIP3   OH229173   2.184   0.470   5.338 -0.4581  0.3547  1.0897
 2561TIP3    H129174   2.188   0.449   5.431  0.1785  0.8890  1.1913
 2561TIP3    H229175   2.119   0.540   5.331 -0.9919 -0.1477  1.0438
 2562TIP3   OH229176   4.440   4.862   5.384  0.0147 -0.7548 -0.1512
 2562TIP3    H129177   4.387   4.833   5.458 -0.7389 -1.4961 -0.9601
 2562TIP3    H229178   4.454   4.956   5.400 -0.9466 -0.6999  0.4441
 2563TIP3   OH229179   6.641   6.731  15.796 -0.5352  0.5382  0.0489
 2563TIP3    H129180   6.585   6.731  15.874  1.0164 -1.1264  1.2390
 2563TIP3    H229181   6.731   6.733  15.831  0.1869  1.3390 -1.7476
 2564TIP3   OH229182   3.495   4.508  16.136 -0.5446  0.2141  0.1749
 2564TIP3    H129183   3.411   4.514  16.182  0.4054  2.1974  1.8313
 2564TIP3    H229184   3.507   4.595  16.097  1.4813  0.5728  1.4489
 2565TIP3   OH229185   6.631   5.566  15.382 -0.0325  0.0530  0.1684
 2565TIP3    H129186   6.702   5.628  15.396 -1.4916  1.6048  1.1171
 2565TIP3    H229187   6.674   5.481  15.370  2.0415  1.2221 -1.2336
 2566TIP3   OH229188   1.226   1.250  16.696  0.0752 -0.1995  0.4622
 2566TIP3    H129189   1.195   1.340  16.701 -1.1289 -0.6608  1.8687
 2566TIP3    H229190   1.147   1.196  16.702  0.6855 -1.3745 -1.1245
 2567TIP3   OH229191   4.928   3.274   4.846 -0.1108  0.1787  0.1374
 2567TIP3    H129192   5.008   3.324   4.828 -0.4778  1.4143  1.7091
 2567TIP3    H229193   4.884   3.267   4.762  1.2706  0.1574 -0.6079
 2568TIP3   OH229194   1.292   3.972  13.233 -0.1275  0.3336 -0.4072
 2568TIP3    H129195   1.355   4.034  13.269 -0.7158  0.9002 -0.3388
 2568TIP3    H229196   1.282   3.998  13.142  2.5213 -2.0223 -1.5329
 2569TIP3   OH229197   2.767   3.730   0.797  0.0227  0.8349 -0.0984
 2569TIP3    H129198   2.803   3.765   0.715 -1.6540  0.9439 -0.8332
 2569TIP3    H229199   2.682   3.773   0.806 -0.5746 -0.4560  0.7908
 2570TIP3   OH229200   3.119   3.989  13.733  0.0938  0.3054  0.3481
 2570TIP3    H129201   3.170   4.023  13.660 -0.5640 -0.6028 -0.5703
 2570TIP3    H229202   3.029   4.016  13.713  0.0746  1.1708  1.5084
 2571TIP3   OH229203   2.598   0.447  15.617  0.5262 -0.2522 -0.2488
 2571TIP3    H129204   2.547   0.521  15.651  1.3858  0.7347 -1.0227
 2571TIP3    H229205   2.565   0.371  15.665 -1.0316  0.4780 -0.0789
 2572TIP3   OH229206   3.190   5.560   0.780 -0.3327 -0.0397  0.3943
 2572TIP3    H129207   3.244   5.532   0.855 -2.1762 -2.9710  0.7720
 2572TIP3    H229208   3.138   5.633   0.815  0.5830  0.2640  1.1875
 2573TIP3   OH229209   4.542   4.731  14.942  0.1299  0.2465  0.2840
 2573TIP3    H129210   4.524   4.825  14.935  2.0446  0.6966  0.6966
 2573TIP3    H229211   4.637   4.726  14.954 -0.1757 -1.5837  2.7884
 2574TIP3   OH229212   3.819   3.023   5.323 -0.2398  0.5722  0.5726
 2574TIP3    H129213   3.738   3.010   5.374 -0.0072 -0.5512  0.6898
 2574TIP3    H229214   3.870   3.085   5.374 -0.2273 -0.1538  1.4593
 2575TIP3   OH229215   0.893   6.768  16.341 -0.6426 -0.4336 -0.5564
 2575TIP3    H129216   0.968   6.732  16.387  0.0029  2.1838  0.6738
 2575TIP3    H229217   0.883   6.856  16.378 -1.1922  1.2215 -4.1568
 2576TIP3   OH229218   6.258   4.598   1.851 -0.3515 -1.0364 -0.0928
 2576TIP3    H129219   6.353   4.589   1.860 -0.4702 -2.5923 -0.0907
 2576TIP3    H229220   6.245   4.687   1.821  1.0680 -0.5881  0.5530
 2577TIP3   OH229221   5.220   0.979   4.876  0.8107  0.4875 -0.0881
 2577TIP3    H129222   5.152   0.976   4.809  1.6313  0.7387 -0.9576
 2577TIP3    H229223   5.228   1.072   4.899  0.0859  0.3322  0.8433
 2578TIP3   OH229224   5.141   2.825   4.471  0.4761 -0.5804 -0.4433
 2578TIP3    H129225   5.218   2.773   4.450  0.0279 -1.4164 -0.0711
 2578TIP3    H229226   5.068   2.774   4.438 -0.0991 -1.0391  1.4346
 2579TIP3   OH229227   4.423   3.193  15.729  0.2887  0.5856  0.7459
 2579TIP3    H129228   4.341   3.209  15.683  0.9657 -0.3703 -0.8373
 2579TIP3    H229229   4.445   3.102  15.710  1.9152  0.9328  0.8272
 2580TIP3   OH229230   5.580   2.860   6.282 -0.7448  0.0134 -0.8635
 2580TIP3    H129231   5.569   2.936   6.226  1.7362  1.5315  0.5018
 2580TIP3    H229232   5.512   2.868   6.349 -0.3717  1.2118 -0.6061
 2581TIP3   OH229233   6.618   2.367  13.730 -0.4744 -0.0987  0.5415
 2581TIP3    H129234   6.593   2.452  13.693 -0.9253  0.5792  2.3309
 2581TIP3    H229235   6.665   2.388  13.810  1.9379 -1.4928 -0.4024
 2582TIP3   OH229236   2.582   2.444   5.422  0.1564 -0.5286  0.2660
 2582TIP3    H129237   2.658   2.463   5.477  0.7818  0.3428 -0.8782
 2582TIP3    H229238   2.517   2.509   5.449  0.7048  0.3497 -0.4849
 2583TIP3   OH229239   5.944   0.733  12.939 -0.2085 -0.6115 -0.3123
 2583TIP3    H129240   5.941   0.649  12.894  1.1190 -1.1042  0.4465
 2583TIP3    H229241   6.004   0.786  12.886  1.8586 -1.4029  1.1270
 2584TIP3   OH229242   3.505   2.760  16.521  0.2093 -1.0114  0.3045
 2584TIP3    H129243   3.499   2.790  16.430  0.3748 -0.5811  0.4323
 2584TIP3    H229244   3.474   2.835  16.572  0.1616 -1.2371  0.6065
 2585TIP3   OH229245   0.671   5.631   1.715  0.1783  0.1551 -0.3059
 2585TIP3    H129246   0.650   5.542   1.686 -1.4009  0.6976 -0.9409
 2585TIP3    H229247   0.704   5.675   1.637 -1.8431  0.9354 -0.7908
 2586TIP3   OH229248   6.308   4.169   4.663  0.0878 -0.0297  0.4965
 2586TIP3    H129249   6.231   4.194   4.613 -0.0033  0.5420  0.9052
 2586TIP3    H229250   6.277   4.162   4.754  0.3836 -0.4058  0.5699
 2587TIP3   OH229251   0.090   1.397   0.232  0.3825  0.1930  0.3402
 2587TIP3    H129252   0.142   1.474   0.207 -0.5585  0.6260 -0.3179
 2587TIP3    H229253   0.046   1.423   0.313  0.8432 -0.0238  0.6669
 2588TIP3   OH229254   0.368   2.936   4.284  0.7315 -0.0519 -0.2918
 2588TIP3    H129255   0.348   3.011   4.339  0.0345 -0.1504 -0.3937
 2588TIP3    H229256   0.336   2.860   4.333 -0.7112 -0.0655 -1.1785
 2589TIP3   OH229257   5.859   2.870  11.502 -0.1132 -0.2342  0.3629
 2589TIP3    H129258   5.797   2.918  11.447 -1.4471 -0.2286  1.7994
 2589TIP3    H229259   5.813   2.789  11.524  1.4001 -1.4031 -0.5562
 2590TIP3   OH229260   2.555   3.750  12.300  0.2846 -0.1382  0.5241
 2590TIP3    H129261   2.631   3.805  12.281  0.3114 -0.2347  0.3533
 2590TIP3    H229262   2.585   3.661  12.285 -0.1263 -0.1221 -0.4544
 2591TIP3   OH229263   1.308   4.194   1.055  0.6182 -0.1587  0.0317
 2591TIP3    H129264   1.248   4.179   1.128 -0.3867  0.2852 -0.6780
 2591TIP3    H229265   1.348   4.108   1.039 -1.6300 -1.0952 -1.0237
 2592TIP3   OH229266   2.606   1.571  12.042 -0.1198  1.0641 -0.4682
 2592TIP3    H129267   2.689   1.528  12.021  1.0352  2.1486  1.5611
 2592TIP3    H229268   2.541   1.524  11.989  1.4877 -1.1115 -0.6785
 2593TIP3   OH229269   2.837   3.923  13.724 -0.2128  0.9000  0.6611
 2593TIP3    H129270   2.753   3.923  13.771 -0.0747 -0.0317  0.9360
 2593TIP3    H229271   2.875   3.837  13.744  0.7751  1.2870  0.4764
 2594TIP3   OH229272   6.035   6.649  12.252  0.5453 -0.2089  0.2256
 2594TIP3    H129273   5.942   6.627  12.262  0.6026 -0.6092 -0.0942
 2594TIP3    H229274   6.071   6.577  12.201  0.6319  0.8904 -1.3265
 2595TIP3   OH229275   4.110   1.255   3.670 -0.0291 -0.0376 -0.2149
 2595TIP3    H129276   4.066   1.324   3.620  0.4687  0.2914 -0.2108
 2595TIP3    H229277   4.089   1.273   3.761 -2.3325 -1.6081 -0.3523
 2596TIP3   OH229278   2.892   5.625  12.934  0.6602 -0.2890 -0.0397
 2596TIP3    H129279   2.823   5.664  12.880  0.2381 -1.9726 -0.8006
 2596TIP3    H229280   2.889   5.673  13.016 -1.6327 -0.5096  0.0593
 2597TIP3   OH229281   1.226   2.537   1.571  0.3075 -0.1639 -0.0258
 2597TIP3    H129282   1.154   2.593   1.544 -0.1981 -1.3040 -1.1071
 2597TIP3    H229283   1.304   2.594   1.566  0.0049  0.1509 -2.3132
 2598TIP3   OH229284   0.874   5.036  10.617  0.6042  0.7143 -0.6429
 2598TIP3    H129285   0.905   5.095  10.685 -0.3744 -1.9594  2.3814
 2598TIP3    H229286   0.787   5.069  10.594  0.7508  1.3910 -0.2532
 2599TIP3   OH229287   6.367   0.613   2.475 -0.4842 -0.2001 -0.3821
 2599TIP3    H129288   6.397   0.524   2.460  1.4332  0.2718  0.4073
 2599TIP3    H229289   6.377   0.627   2.569 -0.2093  1.0236 -0.5726
 2600TIP3   OH229290   2.394   0.357  16.502 -0.0006 -0.3806 -0.1617
 2600TIP3    H129291   2.335   0.283  16.504 -0.4666 -0.0146  1.1101
 2600TIP3    H229292   2.337   0.434  16.503  0.4746 -0.0193 -0.0929
 2601TIP3   OH229293   6.375   0.399   2.665  0.2311 -0.3661  0.6037
 2601TIP3    H129294   6.354   0.447   2.745 -0.3238 -0.4665  0.5236
 2601TIP3    H229295   6.362   0.307   2.689  0.5109 -0.4270  0.5261
 2602TIP3   OH229296   5.513   4.007  16.950  0.1097  1.0141  0.2896
 2602TIP3    H129297   5.449   4.076  16.927  0.3220  0.4983 -2.1201
 2602TIP3    H229298   5.541   3.972  16.865  0.2345 -1.8627  1.4208
 2603TIP3   OH229299   0.555   4.620  12.502  0.5648  0.1913 -0.0444
 2603TIP3    H129300   0.598   4.701  12.532  2.1520 -0.6966  0.1737
 2603TIP3    H229301   0.501   4.593  12.577 -0.5511  1.3894 -0.3672
 2604TIP3   OH229302   6.383   4.544   5.274 -0.2087  0.3275  0.5226
 2604TIP3    H129303   6.325   4.572   5.202  0.5090  0.3930 -0.0438
 2604TIP3    H229304   6.324   4.506   5.339 -0.8681  0.2328 -0.1193
 2605TIP3   OH229305   1.407   3.147   5.586 -0.1567 -0.1736  0.0790
 2605TIP3    H129306   1.428   3.089   5.660  0.9426  0.3116  0.1578
 2605TIP3    H229307   1.474   3.215   5.589 -1.0796  0.7735 -0.3837
 2606TIP3   OH229308   0.840   1.342  11.841  0.6469 -0.2839 -0.5358
 2606TIP3    H129309   0.826   1.384  11.756  1.9900  2.3719  0.4312
 2606TIP3    H229310   0.920   1.290  11.829  1.1053  0.4637 -0.7974
 2607TIP3   OH229311   0.360   3.806  15.864 -0.6517 -0.0762 -0.7423
 2607TIP3    H129312   0.361   3.900  15.848  1.4179  0.0405 -0.1639
 2607TIP3    H229313   0.331   3.796  15.954 -0.9049 -0.0123 -0.8152
 2608TIP3   OH229314   3.020   4.359   0.423  0.1020  0.3107  0.4943
 2608TIP3    H129315   3.028   4.285   0.364  1.6522 -0.8279  2.0450
 2608TIP3    H229316   3.104   4.363   0.468 -1.6923 -0.3894  4.2972
 2609TIP3   OH229317   5.819   6.498  16.188  0.3217  0.1925 -0.3276
 2609TIP3    H129318   5.741   6.456  16.153 -0.2348  1.0375 -0.1407
 2609TIP3    H229319   5.837   6.571  16.128  0.6487  0.3250 -0.0757
 2610TIP3   OH229320   4.395   6.644  12.280  0.2092  0.1687  0.3240
 2610TIP3    H129321   4.434   6.688  12.355 -1.7444 -1.2450  2.3163
 2610TIP3    H229322   4.464   6.584  12.249  0.2436 -1.2479  2.8298
 2611TIP3   OH229323   4.439   2.961   5.971 -0.0653  0.4708 -0.0828
 2611TIP3    H129324   4.384   2.884   5.979  1.1480 -0.4490 -0.2376
 2611TIP3    H229325   4.459   2.967   5.877 -0.3697  1.1364 -0.1112
 2612TIP3   OH229326   0.532   0.275   5.974  0.2430  0.9182  0.3102
 2612TIP3    H129327   0.534   0.334   6.049  0.7556 -1.7643  2.5691
 2612TIP3    H229328   0.443   0.239   5.974  0.0315  1.3780 -0.8496
 2613TIP3   OH229329   2.193   3.635  14.971  0.8105 -0.6687  0.2685
 2613TIP3    H129330   2.124   3.688  14.932  1.7426  0.0437 -0.4814
 2613TIP3    H229331   2.149   3.558  15.005 -0.3821 -0.1002  0.0608
 2614TIP3   OH229332   3.246   6.512   0.757 -0.0824 -0.0382  0.5792
 2614TIP3    H129333   3.214   6.597   0.726  0.2063 -0.3580 -0.6719
 2614TIP3    H229334   3.172   6.453   0.745  0.0502 -0.1782  0.4507
 2615TIP3   OH229335   2.243   0.917  11.552 -0.2320  0.1497  0.2940
 2615TIP3    H129336   2.202   0.830  11.554  0.5617 -0.2465 -0.0983
 2615TIP3    H229337   2.303   0.914  11.477  0.2334  0.8341  0.6227
 2616TIP3   OH229338   1.402   4.694   3.814 -0.0423  0.0763 -0.2993
 2616TIP3    H129339   1.418   4.788   3.818 -0.2209  0.1259 -0.7133
 2616TIP3    H229340   1.449   4.665   3.736  1.5639 -0.5009  0.8152
 2617TIP3   OH229341   5.199   0.224  14.727 -0.4098 -0.1193  0.1522
 2617TIP3    H129342   5.160   0.306  14.756 -0.8291 -0.4968  0.6717
 2617TIP3    H229343   5.244   0.189  14.804 -1.3357 -1.0118  0.3165
 2618TIP3   OH229344   2.413   0.456   3.345 -0.3574 -0.4045 -0.1487
 2618TIP3    H129345   2.487   0.406   3.310  0.0414 -0.5407  0.8667
 2618TIP3    H229346   2.442   0.485   3.431 -0.4394  1.8974 -0.8141
 2619TIP3   OH229347   2.390   6.467  15.215 -0.4094 -0.0564  0.8961
 2619TIP3    H129348   2.382   6.431  15.127 -0.1266 -3.3993  2.1179
 2619TIP3    H229349   2.468   6.522  15.211 -0.4477 -0.0644 -0.9344
 2620TIP3   OH229350   2.511   6.696   4.443  0.0466 -0.3994 -0.0110
 2620TIP3    H129351   2.509   6.704   4.538  3.0105  0.8473  0.0590
 2620TIP3    H229352   2.475   6.778   4.411  2.8739  1.0762  0.2289
 2621TIP3   OH229353   5.488   0.574   1.811 -0.6510  0.1769  0.1829
 2621TIP3    H129354   5.531   0.587   1.895 -1.1831 -0.4813  0.5590
 2621TIP3    H229355   5.485   0.661   1.772 -0.7728  0.5509  1.0159
 2622TIP3   OH229356   5.524   6.189  11.960 -0.7067 -0.2316  0.4975
 2622TIP3    H129357   5.592   6.134  11.999 -1.0672 -1.1727 -0.1794
 2622TIP3    H229358   5.480   6.132  11.897 -0.9945  0.8725 -0.3303
 2623TIP3   OH229359   4.470   1.307  11.822  0.6957  0.2109  0.3506
 2623TIP3    H129360   4.434   1.232  11.775  0.0013 -0.2164  1.5223
 2623TIP3    H229361   4.502   1.271  11.904  0.8023  1.1199  0.7185
 2624TIP3   OH229362   6.301   0.776   4.359 -0.3492 -0.2164 -0.1890
 2624TIP3    H129363   6.388   0.775   4.319  1.0574 -0.3727  2.6114
 2624TIP3    H229364   6.258   0.853   4.322 -0.9819 -2.5761 -5.1681
 2625TIP3   OH229365   4.849   1.477  14.390 -0.3398 -0.1613  0.2531
 2625TIP3    H129366   4.899   1.437  14.319 -0.0173  1.2830 -0.3795
 2625TIP3    H229367   4.762   1.439  14.383 -0.9048  1.4009 -2.2461
 2626TIP3   OH229368   0.836   1.939   1.020  0.2379 -0.1723 -0.2469
 2626TIP3    H129369   0.811   1.992   0.944 -1.3480  0.6501  0.7720
 2626TIP3    H229370   0.902   1.992   1.064  1.4097 -0.8050 -1.1936
 2627TIP3   OH229371   3.000   3.477   2.567 -0.3514  0.2858 -0.4091
 2627TIP3    H129372   3.002   3.566   2.531 -0.5398  0.8229  0.8777
 2627TIP3    H229373   3.092   3.451   2.573 -0.3273 -0.3387 -2.4476
 2628TIP3   OH229374   0.495   3.669  11.892 -0.3088  0.1758  0.3570
 2628TIP3    H129375   0.403   3.646  11.892 -0.0651 -0.8424 -0.1670
 2628TIP3    H229376   0.541   3.589  11.866  0.6175  1.0254 -0.7699
 2629TIP3   OH229377   6.519   4.540  12.854 -0.1025  0.5320  0.0451
 2629TIP3    H129378   6.460   4.608  12.885 -2.5625 -0.2499 -2.4528
 2629TIP3    H229379   6.540   4.488  12.931 -2.3947  1.1022  1.1238
 2630TIP3   OH229380   2.131   3.014  11.675 -0.1380  0.1445 -0.3836
 2630TIP3    H129381   2.214   2.999  11.720 -0.4087 -1.0831 -0.2461
 2630TIP3    H229382   2.069   3.038  11.744  0.1037  1.1000 -0.4914
 2631TIP3   OH229383   2.064   5.847   3.022  0.2325 -0.1055 -0.1733
 2631TIP3    H129384   2.077   5.785   3.093  0.6463  0.3001  0.1111
 2631TIP3    H229385   2.001   5.804   2.963 -1.1258  0.0822  1.0804
 2632TIP3   OH229386   4.369   3.345   4.386 -0.4445  0.2725  0.0537
 2632TIP3    H129387   4.343   3.288   4.313 -1.1302 -0.2647  0.7026
 2632TIP3    H229388   4.305   3.416   4.385  0.0059  0.6756 -0.3372
 2633TIP3   OH229389   5.140   4.362   0.847  0.1828  0.2331  0.2610
 2633TIP3    H129390   5.218   4.415   0.834  1.0162 -0.9863  0.1834
 2633TIP3    H229391   5.138   4.346   0.942 -0.2290  0.6141  0.3242
 2634TIP3   OH229392   5.944   1.255  11.503  0.6497  0.2585  0.0977
 2634TIP3    H129393   5.944   1.335  11.556 -2.6946 -0.0002  0.6840
 2634TIP3    H229394   5.991   1.191  11.556  0.6733  1.0261  1.0254
 2635TIP3   OH229395   5.596   1.878  15.011  0.5937 -0.9069 -0.2576
 2635TIP3    H129396   5.557   1.965  15.010 -0.0525 -1.1868  0.2155
 2635TIP3    H229397   5.532   1.823  15.056  2.8247 -0.7479  3.5422
 2636TIP3   OH229398   3.782   1.188   4.220 -0.0654 -0.3095 -0.1427
 2636TIP3    H129399   3.773   1.266   4.274  2.3073 -0.1715  0.1620
 2636TIP3    H229400   3.771   1.218   4.130 -2.2907 -0.2380  0.0917
 2637TIP3   OH229401   5.419   2.985   5.618  0.1676 -0.3249  0.0608
 2637TIP3    H129402   5.388   3.037   5.692  1.2275  0.0518  0.2622
 2637TIP3    H229403   5.511   3.008   5.609  0.7653 -2.3661  0.3332
 2638TIP3   OH229404   2.746   5.813  15.362 -0.3226  0.6973  0.3011
 2638TIP3    H129405   2.729   5.819  15.456  0.1919 -1.0926  0.5471
 2638TIP3    H229406   2.665   5.776  15.326 -0.8460  2.1869 -0.1145
 2639TIP3   OH229407   0.658   3.202  13.336  0.2621 -0.0896 -0.2585
 2639TIP3    H129408   0.574   3.177  13.372  0.5340 -1.4001 -0.4928
 2639TIP3    H229409   0.720   3.190  13.408  0.2423  1.0552 -0.0278
 2640TIP3   OH229410   2.304   4.960   4.813  0.4436  0.0298  0.1284
 2640TIP3    H129411   2.240   4.894   4.788 -0.6563  0.4207  1.7775
 2640TIP3    H229412   2.252   5.038   4.832  1.7399  1.5976 -2.2530
 2641TIP3   OH229413   4.146   0.406   4.348  0.5223 -0.3015 -0.4775
 2641TIP3    H129414   4.111   0.366   4.268  1.3764 -0.0358 -1.0029
 2641TIP3    H229415   4.084   0.382   4.416 -1.1975  0.9639 -1.5315
 2642TIP3   OH229416   5.896   5.712   1.209  0.2195 -0.1899  0.3338
 2642TIP3    H129417   5.950   5.686   1.284  0.8307  1.8685  0.6858
 2642TIP3    H229418   5.827   5.767   1.247 -2.0103 -2.4708 -0.1533
 2643TIP3   OH229419   1.323   1.112   4.841 -0.5242 -0.4573 -0.0616
 2643TIP3    H129420   1.360   1.165   4.912  0.1537 -0.2333 -0.5702
 2643TIP3    H229421   1.296   1.031   4.884 -1.0038  0.0542  0.6170
 2644TIP3   OH229422   5.413   3.775  17.047 -0.2738  0.0237  0.3473
 2644TIP3    H129423   5.368   3.752  16.966 -1.7073  0.8395  0.8642
 2644TIP3    H229424   5.455   3.859  17.028 -0.8136  0.3338  0.5194
 2645TIP3   OH229425   1.681   2.400   5.014  0.0959 -0.0610 -0.0882
 2645TIP3    H129426   1.741   2.431   5.081 -0.8567  0.3468  0.5887
 2645TIP3    H229427   1.667   2.308   5.035  0.5083 -0.1632 -0.2642
 2646TIP3   OH229428   1.069   2.069   5.955  0.1959  0.8421  0.2422
 2646TIP3    H129429   0.997   2.109   6.003  0.3581  1.3752  0.0494
 2646TIP3    H229430   1.148   2.096   6.003  0.2183 -1.0286  1.4041
 2647TIP3   OH229431   3.048   4.601   4.806 -0.0579  0.0748 -0.2778
 2647TIP3    H129432   3.023   4.554   4.726 -0.4915  1.2314 -0.8457
 2647TIP3    H229433   3.115   4.546   4.846 -2.1569 -2.2258  0.3274
 2648TIP3   OH229434   6.739   3.267   2.342 -0.4483 -0.1498 -0.2320
 2648TIP3    H129435   6.674   3.197   2.346 -0.2020 -0.3725 -0.1051
 2648TIP3    H229436   6.795   3.244   2.269 -0.3667 -0.0859 -0.1897
 2649TIP3   OH229437   2.892   2.499  12.944 -0.0025 -0.0814  0.3687
 2649TIP3    H129438   2.832   2.512  12.871  0.8303 -1.7082 -0.6605
 2649TIP3    H229439   2.924   2.410  12.933  2.8260  0.8102  0.7282
 2650TIP3   OH229440   0.198   3.686  15.244 -0.6680 -0.6309 -0.0040
 2650TIP3    H129441   0.177   3.651  15.157 -0.6723 -2.3179  0.6311
 2650TIP3    H229442   0.265   3.753  15.227 -0.7830 -0.8098 -1.3177
 2651TIP3   OH229443   1.833   0.015   1.119  0.1424 -0.4390 -0.4376
 2651TIP3    H129444   1.918  -0.027   1.106  0.4692  0.3086 -0.7748
 2651TIP3    H229445   1.850   0.108   1.107 -0.1143  0.0805  2.5716
 2652TIP3   OH229446   0.315   0.379  11.548  0.3343 -0.0736 -0.1237
 2652TIP3    H129447   0.288   0.410  11.462  2.4595 -0.9610 -1.1744
 2652TIP3    H229448   0.238   0.332  11.582 -0.7210  0.7899 -1.2437
 2653TIP3   OH229449   6.724   2.721  12.718  0.6434  0.6625 -0.0683
 2653TIP3    H129450   6.806   2.696  12.761  0.7018  0.3235 -0.3706
 2653TIP3    H229451   6.678   2.775  12.782  0.1513 -0.8813  0.9232
 2654TIP3   OH229452   4.596   6.028  12.167  0.1779 -0.1635  0.3550
 2654TIP3    H129453   4.608   6.056  12.076  1.3120  0.4146  0.6513
 2654TIP3    H229454   4.549   5.945  12.161  0.6910 -0.3975 -0.7928
 2655TIP3   OH229455   1.747   5.995  11.547  0.1061  0.2737 -0.1704
 2655TIP3    H129456   1.732   5.911  11.592 -0.7904  2.0998  3.3118
 2655TIP3    H229457   1.668   6.009  11.495 -0.0065 -0.7472 -0.2946
 2656TIP3   OH229458   3.273   3.945  16.599 -0.4185 -0.5891 -0.1466
 2656TIP3    H129459   3.275   4.039  16.580 -0.1830 -0.8100 -1.2265
 2656TIP3    H229460   3.196   3.934  16.655  0.2420  0.4260  1.0144
 2657TIP3   OH229461   5.538   3.232   4.998 -0.4852 -0.6779  0.2335
 2657TIP3    H129462   5.611   3.293   5.007 -0.7670 -0.4308  0.9448
 2657TIP3    H229463   5.579   3.149   4.972  0.1450 -0.7232  1.2818
 2658TIP3   OH229464   4.209   2.469   0.860 -0.5725  0.6545 -0.4052
 2658TIP3    H129465   4.160   2.502   0.935  0.0210 -0.5962  0.5755
 2658TIP3    H229466   4.239   2.548   0.814  1.1232  1.5347  2.0368
 2659TIP3   OH229467   5.413   1.088  15.893  0.1580 -0.0494 -0.6248
 2659TIP3    H129468   5.408   0.993  15.906 -0.5179 -0.2321 -2.0110
 2659TIP3    H229469   5.445   1.122  15.977  1.7753 -1.6139 -0.5522
 2660TIP3   OH229470   5.506   2.473   2.579  0.6843 -0.5285 -0.2477
 2660TIP3    H129471   5.572   2.529   2.539  0.4732 -1.4807 -2.0906
 2660TIP3    H229472   5.551   2.428   2.650  1.6174 -0.0970 -0.5592
 2661TIP3   OH229473   1.336   0.194  16.143 -0.3078  0.8339 -0.2435
 2661TIP3    H129474   1.332   0.104  16.113  3.9620 -0.2640  1.6601
 2661TIP3    H229475   1.292   0.193  16.228  1.6167 -0.1548  0.8162
 2662TIP3   OH229476   3.748   4.059  11.917 -0.1871  0.9671 -0.4002
 2662TIP3    H129477   3.739   4.016  12.002 -1.4197  0.3760 -0.7954
 2662TIP3    H229478   3.841   4.078  11.908  0.3180 -1.0998  0.0627
 2663TIP3   OH229479   5.407   0.941  14.410 -0.1992 -0.5626  0.3757
 2663TIP3    H129480   5.363   0.971  14.331 -1.0117  0.4264  1.1683
 2663TIP3    H229481   5.344   0.958  14.480  0.3884 -1.6554  1.2147
 2664TIP3   OH229482   3.726   2.207  14.250  0.1432  0.0496  0.0976
 2664TIP3    H129483   3.686   2.287  14.218  1.0391 -0.2337 -1.8240
 2664TIP3    H229484   3.761   2.231  14.336  0.9047  1.8859 -0.6709
 2665TIP3   OH229485   3.703   1.371  14.168  0.0361  0.7470  0.2863
 2665TIP3    H129486   3.736   1.419  14.092 -1.9057  2.7796  0.6161
 2665TIP3    H229487   3.732   1.424  14.243  4.8562 -2.8777  1.5153
 2666TIP3   OH229488   5.073   2.654  14.550  0.2888  0.6301 -0.5521
 2666TIP3    H129489   5.030   2.610  14.477  0.4120  1.9196 -1.4368
 2666TIP3    H229490   5.145   2.595  14.574 -0.5754 -0.4522 -0.5606
 2667TIP3   OH229491   3.508   1.773  12.386 -0.3530  0.0727 -0.8888
 2667TIP3    H129492   3.543   1.863  12.385 -1.0693  0.3774 -0.1648
 2667TIP3    H229493   3.424   1.781  12.431 -0.2636 -1.0264 -0.4974
 2668TIP3   OH229494   1.790   0.347  11.240  0.3035 -0.0432 -0.0353
 2668TIP3    H129495   1.860   0.282  11.254 -0.5325 -0.6024  2.0146
 2668TIP3    H229496   1.714   0.294  11.215  0.0258  0.3039  0.0759
 2669TIP3   OH229497   3.092   1.641   2.279  0.7559  0.4376  0.3770
 2669TIP3    H129498   3.051   1.571   2.228  0.9151  1.7765 -1.7289
 2669TIP3    H229499   3.051   1.636   2.365  1.1528 -2.5388  0.4998
 2670TIP3   OH229500   1.663   5.285  12.395  0.0853  0.0372  0.5297
 2670TIP3    H129501   1.577   5.320  12.421  0.5406  0.9901  0.7909
 2670TIP3    H229502   1.675   5.208  12.449 -0.8270 -0.4074  0.1368
 2671TIP3   OH229503   0.980   4.327   1.779 -0.1948  0.1851  0.3755
 2671TIP3    H129504   0.886   4.318   1.763 -0.1661 -1.9964  1.0389
 2671TIP3    H229505   0.987   4.333   1.874  0.3402  0.0034  0.3515
 2672TIP3   OH229506   5.730   3.458   0.604 -0.4916 -0.6319 -1.1410
 2672TIP3    H129507   5.742   3.549   0.633 -0.5501 -0.2880 -2.1790
 2672TIP3    H229508   5.698   3.413   0.682 -1.9461  0.5563 -0.9953
 2673TIP3   OH229509   5.328   2.625  15.007 -0.0440 -0.3142  0.3822
 2673TIP3    H129510   5.270   2.698  15.029 -0.8166 -0.3462 -1.4271
 2673TIP3    H229511   5.402   2.634  15.068 -1.2424  0.5713  1.7667
 2674TIP3   OH229512   5.352   5.925  15.125  0.2688  0.3588 -0.1231
 2674TIP3    H129513   5.270   5.944  15.080 -0.3151 -1.1486  0.2600
 2674TIP3    H229514   5.401   6.008  15.122 -1.0426  1.1353 -0.7894
 2675TIP3   OH229515   0.689   4.574  14.264 -0.2842  0.2787 -0.1440
 2675TIP3    H129516   0.744   4.504  14.301 -0.9130  0.1305  0.5389
 2675TIP3    H229517   0.641   4.609  14.339  0.2708  1.6903 -0.4266
 2676TIP3   OH229518   0.172   3.983  15.090  0.0559  0.3152 -0.2974
 2676TIP3    H129519   0.213   3.975  15.176  1.1213  2.0501 -0.5864
 2676TIP3    H229520   0.245   3.986  15.029 -0.6995 -1.1591 -1.3193
 2677TIP3   OH229521   6.804   2.113   5.998  0.0341  0.2126 -0.2738
 2677TIP3    H129522   6.828   2.110   6.090  0.0767  1.5736 -0.2291
 2677TIP3    H229523   6.759   2.030   5.983  3.8178 -2.1365 -0.1301
 2678TIP3   OH229524   0.449   1.256  15.106 -0.4309  0.0393 -0.3520
 2678TIP3    H129525   0.466   1.241  15.013 -0.5884 -1.3372 -0.1845
 2678TIP3    H229526   0.374   1.200  15.126 -0.2569  0.1446  0.6529
 2679TIP3   OH229527   3.824   1.176  11.480 -0.3622 -0.5618 -0.2925
 2679TIP3    H129528   3.882   1.242  11.444  0.7728 -1.0535  0.5712
 2679TIP3    H229529   3.754   1.225  11.523  0.5419  0.0941  0.4678
 2680TIP3   OH229530   6.313   5.900   2.867 -0.0656 -0.6837  0.0323
 2680TIP3    H129531   6.371   5.937   2.933  0.1142  0.5742 -0.8010
 2680TIP3    H229532   6.370   5.882   2.792 -0.5860 -0.3096 -0.4615
 2681TIP3   OH229533   6.647   1.442  13.698  0.4661 -0.1727 -0.5667
 2681TIP3    H129534   6.568   1.414  13.744  0.5967 -1.7329 -1.2664
 2681TIP3    H229535   6.681   1.363  13.658  3.2891  0.1127  1.0289
 2682TIP3   OH229536   0.611   3.995   2.138  0.3763  0.2664  1.2086
 2682TIP3    H129537   0.669   4.021   2.066  0.0525 -1.4444  0.2856
 2682TIP3    H229538   0.670   3.961   2.205  0.4934 -2.1382 -0.0143
 2683TIP3   OH229539   1.258   5.060  12.243  0.4943  0.0252 -0.6734
 2683TIP3    H129540   1.260   5.044  12.149  2.3796  2.0074 -1.0654
 2683TIP3    H229541   1.323   5.000  12.279 -0.3111 -0.8157 -0.6015
 2684TIP3   OH229542   3.746   2.681   5.570  0.0736  0.2407 -0.2825
 2684TIP3    H129543   3.835   2.649   5.576  0.1988  0.3885 -1.2468
 2684TIP3    H229544   3.694   2.604   5.548  0.1696  0.4203 -1.1519
 2685TIP3   OH229545   5.918   5.789  12.418  0.5294 -0.1279  0.2941
 2685TIP3    H129546   5.976   5.728  12.373  0.3973  0.9086 -1.3624
 2685TIP3    H229547   5.830   5.757  12.398  0.4632  0.5193 -0.4824
 2686TIP3   OH229548   3.923   0.478  10.720  0.1648  0.8484  0.4044
 2686TIP3    H129549   3.863   0.405  10.705  1.7312 -0.1855 -1.3842
 2686TIP3    H229550   3.866   0.552  10.741 -1.5527 -0.6212  1.1931
 2687TIP3   OH229551   2.792   0.503  14.717  0.2219 -0.5062 -0.2579
 2687TIP3    H129552   2.743   0.538  14.792 -1.5635  1.3612 -2.1876
 2687TIP3    H229553   2.876   0.476  14.754 -0.6045  0.2940  2.4148
 2688TIP3   OH229554   6.047   0.314  10.872  0.2444  0.4122  0.1148
 2688TIP3    H129555   6.032   0.394  10.923 -0.0574  0.5412 -0.1745
 2688TIP3    H229556   6.114   0.266  10.922 -0.4033  0.3021  0.8915
 2689TIP3   OH229557   5.997   5.930  14.961  0.1130 -0.1310 -0.0549
 2689TIP3    H129558   5.979   6.018  14.993 -1.1092 -0.1997 -0.5166
 2689TIP3    H229559   6.079   5.938  14.912 -1.0021  1.1920 -1.8075
 2690TIP3   OH229560   4.659   2.502  13.847  0.1398  0.3905  0.2443
 2690TIP3    H129561   4.629   2.592  13.835 -0.5978  0.4617  2.2705
 2690TIP3    H229562   4.658   2.488  13.942  2.4263 -1.0402  0.1388
 2691TIP3   OH229563   1.239   3.534   2.587  0.8646 -0.4756 -0.0816
 2691TIP3    H129564   1.294   3.456   2.587  3.0217  0.9278  1.1339
 2691TIP3    H229565   1.286   3.596   2.531  0.3512  0.6704  0.7265
 2692TIP3   OH229566   0.723   4.893  15.424  0.6109 -0.3306  0.3088
 2692TIP3    H129567   0.733   4.962  15.490  0.6980 -1.3972  1.4508
 2692TIP3    H229568   0.801   4.901  15.369  0.6068  0.4812  0.3999
 2693TIP3   OH229569   4.210   4.571   7.757 -0.7467  0.1216 -0.0539
 2693TIP3    H129570   4.171   4.608   7.678 -4.6629  1.8815  2.3769
 2693TIP3    H229571   4.183   4.479   7.758 -2.4829  0.6012  0.1274
 2694TIP3   OH229572   4.184   1.117   4.910  0.1495 -0.4703  0.6249
 2694TIP3    H129573   4.267   1.070   4.916  0.8466  0.4491 -1.0909
 2694TIP3    H229574   4.163   1.117   4.816 -0.9303  0.7600  0.8392
 2695TIP3   OH229575   0.541   2.399   3.105  0.1418  0.3068  0.0186
 2695TIP3    H129576   0.624   2.352   3.112  0.0744 -0.2664 -2.2437
 2695TIP3    H229577   0.488   2.364   3.176  1.4964 -0.0406  0.8937
 2696TIP3   OH229578   6.490   3.889   1.663  0.2262  0.7082 -0.0862
 2696TIP3    H129579   6.494   3.881   1.759 -0.8035  2.5836  0.1642
 2696TIP3    H229580   6.410   3.844   1.638  3.4106 -5.6150 -0.9969
 2697TIP3   OH229581   4.687   3.333  11.495  0.1165 -0.1194  0.1561
 2697TIP3    H129582   4.600   3.300  11.474  0.0669  0.1646 -0.1002
 2697TIP3    H229583   4.716   3.376  11.415  1.4714 -2.2343 -0.5711
 2698TIP3   OH229584   1.201   1.439  11.880  0.0737 -0.5539  0.2263
 2698TIP3    H129585   1.163   1.516  11.921 -1.1559 -0.4127 -1.0870
 2698TIP3    H229586   1.291   1.436  11.911  0.6144  2.2667 -0.8466
 2699TIP3   OH229587   6.507   2.507  11.222  0.6640 -0.2537 -0.0220
 2699TIP3    H129588   6.593   2.518  11.182  0.5389  0.6596 -0.0472
 2699TIP3    H229589   6.501   2.576  11.288 -1.8321  2.8507 -3.1367
 2700TIP3   OH229590   5.752   1.720  15.920  0.0691 -0.9350 -0.3271
 2700TIP3    H129591   5.791   1.674  15.994 -0.9665 -1.4281 -0.0648
 2700TIP3    H229592   5.799   1.686  15.843  1.4264 -0.1212  0.1136
 2701TIP3   OH229593   5.945   5.716  13.494 -0.0024  0.5354 -0.2097
 2701TIP3    H129594   5.923   5.804  13.467  0.1912  0.3797 -0.8828
 2701TIP3    H229595   5.873   5.690  13.553 -1.0816  0.4273 -1.5245
 2702TIP3   OH229596   6.750   1.929   2.920 -0.1584 -0.0958  0.0304
 2702TIP3    H129597   6.656   1.939   2.907 -0.1872  2.2688  1.4385
 2702TIP3    H229598   6.759   1.853   2.978 -1.2106 -0.1437  0.1502
 2703TIP3   OH229599   5.478   4.367  16.776  0.0763  0.0741 -0.6536
 2703TIP3    H129600   5.457   4.451  16.736  2.3565  0.4794 -1.1436
 2703TIP3    H229601   5.458   4.379  16.869  2.4670  2.0365 -0.2750
 2704TIP3   OH229602   6.774   4.760  16.644  0.4173 -0.0799  0.0121
 2704TIP3    H129603   6.685   4.724  16.646  0.8312 -1.2455 -0.9156
 2704TIP3    H229604   6.821   4.702  16.584  1.4745  1.2944 -0.5362
 2705TIP3   OH229605   2.384   4.383  10.657 -0.3878  0.3001  0.1669
 2705TIP3    H129606   2.321   4.440  10.702 -0.6235  0.9487 -0.9458
 2705TIP3    H229607   2.445   4.443  10.615  0.8351 -0.3186  0.9822
 2706TIP3   OH229608   4.033   3.613  14.239  0.0828  0.7932  0.1434
 2706TIP3    H129609   4.051   3.643  14.328 -0.6797  1.2908  0.1372
 2706TIP3    H229610   3.970   3.541  14.251  0.1324  0.7296  0.0196
 2707TIP3   OH229611   5.764   5.492   4.148 -0.2224  0.2224  0.2567
 2707TIP3    H129612   5.765   5.544   4.068 -0.6681  3.1328  2.0048
 2707TIP3    H229613   5.853   5.498   4.182 -0.3255 -0.0179  0.5785
 2708TIP3   OH229614   0.968   3.569   5.496 -0.6468  0.1239  0.1977
 2708TIP3    H129615   0.983   3.477   5.474  0.1471  0.5387 -1.0815
 2708TIP3    H229616   0.965   3.570   5.592 -0.2588 -1.1727  0.2482
 2709TIP3   OH229617   1.314   1.938   2.643 -0.2817  0.2699  0.0266
 2709TIP3    H129618   1.257   1.862   2.649  0.7764 -0.3969  2.7493
 2709TIP3    H229619   1.258   2.006   2.605 -2.6002 -0.6398  1.6082
 2710TIP3   OH229620   6.599   5.280  11.846 -0.1328  0.5353 -0.1062
 2710TIP3    H129621   6.514   5.270  11.889 -0.3040  1.0579 -0.3064
 2710TIP3    H229622   6.602   5.373  11.822  1.4269  1.0490  1.8096
 2711TIP3   OH229623   2.304   1.165  16.037  0.4274 -0.2373 -0.2772
 2711TIP3    H129624   2.212   1.173  16.063  0.7837  0.5332  0.8208
 2711TIP3    H229625   2.335   1.086  16.080  0.7346  0.4729  0.8664
 2712TIP3   OH229626   4.165   2.199   2.019 -0.3571  0.5095  0.1626
 2712TIP3    H129627   4.258   2.193   2.001 -0.2177  1.4743  0.4744
 2712TIP3    H229628   4.131   2.259   1.952 -1.1286 -1.3176 -1.1466
 2713TIP3   OH229629   1.643   1.869   4.670 -0.4683 -0.0655 -0.5811
 2713TIP3    H129630   1.643   1.851   4.764 -0.6050 -1.6428 -0.8565
 2713TIP3    H229631   1.582   1.942   4.659 -3.5461 -2.3390  0.1514
 2714TIP3   OH229632   1.128   2.116  15.345  0.0778  0.7883  0.4014
 2714TIP3    H129633   1.076   2.119  15.425 -1.6727 -0.7229 -0.5979
 2714TIP3    H229634   1.216   2.143  15.372 -0.8215  1.8556  2.4823
 2715TIP3   OH229635   4.344   3.206   6.025 -0.5282 -0.1023  0.0026
 2715TIP3    H129636   4.370   3.117   5.998  1.1606  0.2028  0.5234
 2715TIP3    H229637   4.405   3.264   5.979 -1.5161  0.8018 -0.2111
 2716TIP3   OH229638   5.745   5.175  15.580  0.3153 -0.1808  0.1993
 2716TIP3    H129639   5.806   5.234  15.624 -0.1499  0.7027 -0.3150
 2716TIP3    H229640   5.801   5.114  15.532  0.8263  1.1692 -0.9950
 2717TIP3   OH229641   3.328   2.095  12.964 -0.4479 -0.2476 -0.4516
 2717TIP3    H129642   3.395   2.126  12.903 -0.8141  0.9161 -0.2934
 2717TIP3    H229643   3.325   2.000  12.951  1.5000 -0.3931 -0.1728
 2718TIP3   OH229644   1.309   5.687  14.116  0.1694  0.2251  0.0430
 2718TIP3    H129645   1.262   5.769  14.105  1.5841  1.3945  2.0017
 2718TIP3    H229646   1.399   5.707  14.089  0.3829 -0.8883 -0.1219
 2719TIP3   OH229647   5.410   1.437   0.856 -0.6252 -0.2292  0.1395
 2719TIP3    H129648   5.377   1.384   0.783 -0.5545  0.6053 -0.5116
 2719TIP3    H229649   5.505   1.440   0.842 -0.7072  0.6701 -0.2445
 2720TIP3   OH229650   4.670   3.572  11.940  0.2623 -0.0621 -0.7714
 2720TIP3    H129651   4.686   3.492  11.891 -0.4033  0.3158 -1.6307
 2720TIP3    H229652   4.579   3.565  11.970  0.3859  0.1106 -0.3430
 2721TIP3   OH229653   2.752   3.728  13.254  0.0453 -0.4288  0.3277
 2721TIP3    H129654   2.696   3.660  13.293 -0.2756  0.7970  2.1350
 2721TIP3    H229655   2.839   3.712  13.292  0.2491 -0.5539 -0.1871
 2722TIP3   OH229656   0.071   4.925   1.426 -0.2469 -0.7231  0.2871
 2722TIP3    H129657   0.008   4.936   1.355  0.2883 -1.9117 -0.3945
 2722TIP3    H229658   0.140   4.988   1.407 -0.1441 -0.9816 -0.2071
 2723TIP3   OH229659   4.760   6.377   0.570 -0.2138  0.1888  0.2917
 2723TIP3    H129660   4.696   6.308   0.586  1.0683 -1.0773  0.1698
 2723TIP3    H229661   4.750   6.437   0.644 -1.8986  0.3155 -0.0204
 2724TIP3   OH229662   1.012   1.193   5.811 -0.0137  0.0767 -0.0600
 2724TIP3    H129663   1.043   1.224   5.726  2.3750  0.7039  0.9594
 2724TIP3    H229664   1.091   1.185   5.864 -1.3102 -1.3351  1.7996
 2725TIP3   OH229665   0.098   1.331  15.080 -0.2986  1.0635  0.5380
 2725TIP3    H129666   0.135   1.370  15.001 -0.2959  2.3235  1.1408
 2725TIP3    H229667   0.156   1.257  15.100 -1.7255 -0.8944 -2.0163
 2726TIP3   OH229668   4.569   4.109   1.987 -0.6487  0.1783 -0.1987
 2726TIP3    H129669   4.632   4.181   1.983 -0.9301  0.4969  0.7577
 2726TIP3    H229670   4.548   4.090   1.896 -0.3956  1.1627 -0.4753
 2727TIP3   OH229671   3.741   2.184   3.835 -0.3664 -0.3452 -0.8013
 2727TIP3    H129672   3.798   2.128   3.888  0.4634  0.2270 -1.0571
 2727TIP3    H229673   3.704   2.124   3.769  1.0051 -0.5141 -1.4711
 2728TIP3   OH229674   0.277   4.400  15.164 -0.0099 -0.0554  0.9591
 2728TIP3    H129675   0.254   4.347  15.241 -1.9473  0.4185  0.7685
 2728TIP3    H229676   0.222   4.364  15.094  0.1377  0.9113  0.3353
 2729TIP3   OH229677   5.163   5.293   4.731  0.4906  0.1480 -0.1316
 2729TIP3    H129678   5.118   5.337   4.803 -0.8236 -3.1609  1.3028
 2729TIP3    H229679   5.094   5.271   4.668  1.0869  0.1241 -0.7925
 2730TIP3   OH229680   2.894   3.415  13.823 -0.6704  0.0112  0.0450
 2730TIP3    H129681   2.806   3.384  13.802 -0.0221 -2.0812  0.2684
 2730TIP3    H229682   2.931   3.442  13.740 -0.4368 -2.0798 -0.5799
 2731TIP3   OH229683   5.211   2.517   3.893  0.0705 -0.0427  0.0914
 2731TIP3    H129684   5.269   2.451   3.856 -0.3291 -0.1594 -0.3406
 2731TIP3    H229685   5.146   2.467   3.942 -0.9536 -0.0730 -1.2372
 2732TIP3   OH229686   5.342   3.496  13.845  1.0926  0.4249  0.2299
 2732TIP3    H129687   5.268   3.450  13.807  1.3172  0.9046 -0.8284
 2732TIP3    H229688   5.346   3.465  13.935 -1.6881  1.9717  0.9837
 2733TIP3   OH229689   5.646   3.282   1.269  0.2420 -0.1284  0.1464
 2733TIP3    H129690   5.681   3.197   1.242 -1.0653 -0.6072 -0.1204
 2733TIP3    H229691   5.645   3.278   1.365  1.9906  0.3670  0.2181
 2734TIP3   OH229692   4.752   2.049   0.768  0.1149  0.0033 -0.4244
 2734TIP3    H129693   4.796   2.133   0.755  1.5019 -0.6704 -0.3388
 2734TIP3    H229694   4.662   2.072   0.792  0.4391  1.4496 -0.5043
 2735TIP3   OH229695   0.310   4.550  13.475  0.8115  0.3012 -0.3987
 2735TIP3    H129696   0.348   4.472  13.515 -0.6756 -1.2219 -1.8072
 2735TIP3    H229697   0.303   4.529  13.382  1.2002  2.4892 -0.9690
 2736TIP3   OH229698   5.081   0.108  16.350  0.6786 -0.3480 -0.4143
 2736TIP3    H129699   5.017   0.109  16.421  0.6780 -0.5842 -0.4088
 2736TIP3    H229700   5.061   0.186  16.298  1.3507  0.3997  0.4284
 2737TIP3   OH229701   5.603   1.286   3.113  0.1671 -0.3239 -0.5793
 2737TIP3    H129702   5.612   1.199   3.073  0.7423 -0.4189 -0.2633
 2737TIP3    H229703   5.509   1.297   3.127 -0.1801  0.1457 -2.8829
 2738TIP3   OH229704   3.593   5.011  12.937  0.5522 -0.2176 -0.2146
 2738TIP3    H129705   3.552   4.937  12.981 -0.7088  0.1636 -0.7001
 2738TIP3    H229706   3.526   5.043  12.876  0.3303  2.5308  1.3272
 2739TIP3   OH229707   2.427   0.773   5.375 -0.2504 -0.1434 -0.2650
 2739TIP3    H129708   2.505   0.816   5.340 -1.3294  0.9541 -1.4203
 2739TIP3    H229709   2.398   0.830   5.447  0.7287 -1.2526  1.0580
 2740TIP3   OH229710   3.373   5.057  16.997  0.3260 -0.2237 -0.3275
 2740TIP3    H129711   3.300   5.055  16.936 -2.4025  0.2569  2.6249
 2740TIP3    H229712   3.389   5.150  17.014 -0.0693 -0.3505  0.8362
 2741TIP3   OH229713   0.583   4.518   0.113  0.1687  0.4540  0.1068
 2741TIP3    H129714   0.563   4.523   0.206  0.2633  0.1099  0.1469
 2741TIP3    H229715   0.541   4.595   0.075  2.6209  2.2551  0.8614
 2742TIP3   OH229716   5.369   6.710   3.574 -0.2071 -0.2415 -0.1615
 2742TIP3    H129717   5.431   6.640   3.595 -0.5686 -0.4692  0.1496
 2742TIP3    H229718   5.288   6.665   3.554 -0.1911  0.0396 -0.8883
 2743TIP3   OH229719   0.831   6.041   4.043  0.1808 -0.3869 -0.2900
 2743TIP3    H129720   0.746   6.006   4.070 -1.4682  0.7629 -3.4765
 2743TIP3    H229721   0.838   6.018   3.951  3.2684 -0.1851 -0.2085
 2744TIP3   OH229722   2.858   3.485  11.671 -0.2450 -0.5674  0.2570
 2744TIP3    H129723   2.817   3.532  11.598 -0.5432 -0.4137  0.5187
 2744TIP3    H229724   2.933   3.440  11.632 -0.5204 -0.6500 -0.1832
 2745TIP3   OH229725   3.148   3.900  12.789 -0.1136  0.3602  0.2199
 2745TIP3    H129726   3.150   3.916  12.884 -0.7266 -2.9152  0.8968
 2745TIP3    H229727   3.067   3.941  12.759 -0.9412 -0.2670  1.5153
 2746TIP3   OH229728   0.796   6.679   1.471  0.4965 -0.0432 -0.1511
 2746TIP3    H129729   0.866   6.736   1.502  0.6929 -0.0475 -0.5840
 2746TIP3    H229730   0.823   6.591   1.497 -1.5820  0.3147  3.9731
 2747TIP3   OH229731   1.905   6.652   6.291  0.6682  0.2280 -0.4773
 2747TIP3    H129732   1.966   6.718   6.259  0.5940  0.2581 -0.5593
 2747TIP3    H229733   1.827   6.664   6.237  0.2137  0.8682  0.2844
 2748TIP3   OH229734   2.146   5.713   0.076  0.4992 -0.0725 -0.2319
 2748TIP3    H129735   2.077   5.650   0.097 -0.0182 -0.1656 -1.9938
 2748TIP3    H229736   2.225   5.660   0.068  0.2904 -0.3327 -0.5848
 2749TIP3   OH229737   2.487   4.093  12.479 -0.1437  0.5078  0.3329
 2749TIP3    H129738   2.434   4.082  12.559  1.0809  0.6977  1.2027
 2749TIP3    H229739   2.563   4.036  12.493 -0.9936 -1.2862 -1.7540
 2750TIP3   OH229740   3.280   3.911   4.916 -0.1592 -0.5143 -0.2492
 2750TIP3    H129741   3.375   3.920   4.929 -0.0774 -0.4046 -0.8977
 2750TIP3    H229742   3.245   3.899   5.004  0.4706 -0.6583 -0.0121
 2751TIP3   OH229743   0.937   6.380  15.921 -0.1362 -0.0106  0.4781
 2751TIP3    H129744   0.844   6.361  15.935 -0.7403  1.2624 -1.3417
 2751TIP3    H229745   0.950   6.465  15.964  0.2292 -0.2631  0.8681
 2752TIP3   OH229746   6.520   5.010   0.473  0.4425 -0.7713 -0.0924
 2752TIP3    H129747   6.567   4.947   0.527  2.2114 -0.6379 -1.3756
 2752TIP3    H229748   6.588   5.053   0.422 -0.8906  1.0057 -0.4687
 2753TIP3   OH229749   2.561   6.011  16.221  0.8778 -0.0795  1.1650
 2753TIP3    H129750   2.542   5.989  16.129  1.5340  0.2817  0.9333
 2753TIP3    H229751   2.605   5.934  16.256 -0.0044 -0.4906  1.3840
 2754TIP3   OH229752   2.127   5.755   5.171 -0.0337  0.0408  0.1380
 2754TIP3    H129753   2.087   5.835   5.204 -0.5025 -0.4545  0.8096
 2754TIP3    H229754   2.088   5.742   5.084  0.4430  0.8120 -0.2001
 2755TIP3   OH229755   4.024   0.421   6.605  0.2603 -0.3304 -0.2065
 2755TIP3    H129756   4.049   0.359   6.674  1.5806  0.4604  0.0636
 2755TIP3    H229757   4.098   0.481   6.600 -1.8859  2.6891  1.1875
 2756TIP3   OH229758   4.895   0.630   1.883 -0.7954  0.6273  0.0833
 2756TIP3    H129759   4.872   0.622   1.790  1.2518  3.0604 -0.7329
 2756TIP3    H229760   4.829   0.577   1.928 -2.5317  0.2503 -2.6544
 2757TIP3   OH229761   4.935   2.990  13.429  0.0484  0.5298 -0.3123
 2757TIP3    H129762   5.023   2.975  13.463  0.7274  0.4239 -2.0276
 2757TIP3    H229763   4.896   2.903  13.423 -0.0638  0.5474  0.1691
 2758TIP3   OH229764   2.504   3.327   1.441  0.1959  0.3291 -0.3783
 2758TIP3    H129765   2.468   3.242   1.418  1.2035 -0.2553  0.1350
 2758TIP3    H229766   2.444   3.362   1.507 -0.4085  0.1722 -0.8426
 2759TIP3   OH229767   0.846   1.830  14.240 -0.0510  0.1553 -0.2829
 2759TIP3    H129768   0.845   1.850  14.146  0.8833 -0.3267 -0.4115
 2759TIP3    H229769   0.916   1.885  14.276  1.7111 -1.8355 -0.4313
 2760TIP3   OH229770   1.991   2.317  12.525 -0.6598  0.1651  0.1332
 2760TIP3    H129771   1.920   2.298  12.462 -0.9184 -0.2213  0.5312
 2760TIP3    H229772   1.987   2.244  12.587 -2.4462  2.0555  2.4325
 2761TIP3   OH229773   6.500   2.529  12.680 -0.0791  1.0885  0.1088
 2761TIP3    H129774   6.465   2.535  12.769 -1.9837 -0.1477 -0.5278
 2761TIP3    H229775   6.572   2.593  12.680 -0.0772  1.1938  2.4898
 2762TIP3   OH229776   5.255   1.737   3.437 -0.1427 -0.1907  0.1704
 2762TIP3    H129777   5.244   1.683   3.358 -0.6981  2.0486 -1.3773
 2762TIP3    H229778   5.303   1.680   3.497  2.0320 -1.4109 -2.4625
 2763TIP3   OH229779   3.450   1.346  11.231  0.8215  0.0829 -0.7409
 2763TIP3    H129780   3.433   1.253  11.212 -1.0722  0.6399 -1.9736
 2763TIP3    H229781   3.396   1.394  11.169  0.9155  2.0468  0.6136
 2764TIP3   OH229782   0.580   2.446   0.766 -0.0295  0.9596 -0.5019
 2764TIP3    H129783   0.488   2.472   0.765 -0.1711  0.4675 -0.5302
 2764TIP3    H229784   0.603   2.444   0.859 -0.7014 -1.1350 -0.3256
 2765TIP3   OH229785   6.114   3.610  12.405  0.1844  0.5238  0.2303
 2765TIP3    H129786   6.184   3.632  12.344 -0.5910  2.4631 -0.0375
 2765TIP3    H229787   6.155   3.611  12.491  0.5872  1.1607  0.0355
 2766TIP3   OH229788   4.380   6.420  14.922 -0.0147 -0.0990  0.3873
 2766TIP3    H129789   4.359   6.411  15.015  0.3503 -0.3192  0.4525
 2766TIP3    H229790   4.420   6.506  14.914  2.1721 -1.0015  0.8777
 2767TIP3   OH229791   0.713   6.369   3.960  0.1510  0.2089 -0.1219
 2767TIP3    H129792   0.759   6.285   3.971  0.8947  0.5163 -0.7812
 2767TIP3    H229793   0.670   6.362   3.875 -0.7116  0.0795  0.3186
 2768TIP3   OH229794   0.889   5.193   4.141  0.1221  0.7176 -0.1967
 2768TIP3    H129795   0.954   5.141   4.189 -1.2341 -0.3711  0.5622
 2768TIP3    H229796   0.881   5.148   4.057 -0.8951 -0.2368  0.3789
 2769TIP3   OH229797   0.371   6.759  10.969  0.3687 -0.2351  0.4928
 2769TIP3    H129798   0.459   6.782  10.939  1.1500 -3.7221 -0.3606
 2769TIP3    H229799   0.315   6.777  10.894  1.0520 -1.5702 -0.3884
 2770TIP3   OH229800   0.785   2.955   0.630  0.3106 -0.5159 -0.5880
 2770TIP3    H129801   0.701   2.911   0.642  1.3799 -2.5189  0.1003
 2770TIP3    H229802   0.778   2.998   0.545 -2.0487  0.9972  0.2698
 2771TIP3   OH229803   3.676   3.739  11.073 -0.2415  0.8168  0.5145
 2771TIP3    H129804   3.755   3.687  11.059  0.0103  1.5656 -0.9478
 2771TIP3    H229805   3.604   3.680  11.049 -0.0293  0.7284  0.0991
 2772TIP3   OH229806   2.448   0.142   4.628 -0.0217  0.0893 -0.2206
 2772TIP3    H129807   2.430   0.228   4.592  0.9940  0.6030  0.4336
 2772TIP3    H229808   2.367   0.092   4.615 -0.9841  1.4629  0.3427
 2773TIP3   OH229809   0.936   1.518   3.845 -0.1103  0.2315 -0.0682
 2773TIP3    H129810   0.946   1.574   3.767 -1.5154  0.4332 -0.1289
 2773TIP3    H229811   0.912   1.432   3.810  4.3029 -1.2392 -0.1453
 2774TIP3   OH229812   6.588   4.560   2.617 -0.4120 -0.7497 -0.0396
 2774TIP3    H129813   6.536   4.637   2.595 -1.4941 -0.8324  1.9440
 2774TIP3    H229814   6.532   4.510   2.677  0.9214 -2.2308  0.0281
 2775TIP3   OH229815   5.344   6.490  12.939  0.0160 -0.1942 -0.0184
 2775TIP3    H129816   5.437   6.475  12.955 -0.4663 -1.6759  1.7941
 2775TIP3    H229817   5.309   6.515  13.024 -1.2240  0.6262 -0.7379
 2776TIP3   OH229818   6.475   1.440   2.591 -0.2712 -0.1429 -0.3969
 2776TIP3    H129819   6.547   1.469   2.536  0.0702 -1.0472 -0.4440
 2776TIP3    H229820   6.517   1.403   2.669 -0.6899 -0.3167 -0.2463
 2777TIP3   OH229821   6.461   1.898  11.866  0.2183 -0.1026  0.8637
 2777TIP3    H129822   6.441   1.991  11.859 -1.7400 -0.5589 -4.0789
 2777TIP3    H229823   6.557   1.894  11.862  0.3237  1.7205  0.5849
 2778TIP3   OH229824   1.316   1.892   5.308  0.0639 -0.5636 -0.7210
 2778TIP3    H129825   1.327   1.970   5.253  0.5752 -0.2220 -0.1560
 2778TIP3    H229826   1.312   1.927   5.397  1.2048 -1.2353 -0.3805
 2779TIP3   OH229827   6.395   2.668  12.444 -0.4696  0.2751 -0.6137
 2779TIP3    H129828   6.318   2.720  12.464  0.1712  0.5793  1.2829
 2779TIP3    H229829   6.407   2.613  12.521  0.4762 -0.6980 -1.4214
 2780TIP3   OH229830   1.809   3.942  15.411 -0.4421 -0.5305  0.1171
 2780TIP3    H129831   1.885   3.982  15.369  1.9644 -2.5108  2.2567
 2780TIP3    H229832   1.783   3.871  15.352 -0.1985 -0.2742 -0.3001
 2781TIP3   OH229833   5.884   1.634   2.625  0.1776 -0.1132 -0.3149
 2781TIP3    H129834   5.850   1.631   2.536 -2.0413  0.4626  0.4359
 2781TIP3    H229835   5.836   1.565   2.671 -0.5351  1.1736  0.9707
 2782TIP3   OH229836   1.202   1.167  11.955 -0.0324  0.0261 -0.2157
 2782TIP3    H129837   1.159   1.130  11.878 -1.5724  0.5118  0.3639
 2782TIP3    H229838   1.187   1.261  11.949 -2.9166 -0.1248  2.1336
 2783TIP3   OH229839   5.084   3.316  15.237 -0.3884  0.0088  0.0470
 2783TIP3    H129840   5.094   3.222  15.252 -0.6341  0.1400  1.1507
 2783TIP3    H229841   4.991   3.333  15.256 -0.6977  0.2454 -1.5431
 2784TIP3   OH229842   6.701   6.293   2.335 -0.2118 -0.8702  0.1790
 2784TIP3    H129843   6.755   6.372   2.330  1.6369 -2.1470 -3.1513
 2784TIP3    H229844   6.735   6.245   2.411  1.3146 -0.2630 -0.0996
 2785TIP3   OH229845   0.498   5.026   6.260  0.8798  0.0909  0.2016
 2785TIP3    H129846   0.403   5.027   6.272  0.9384 -0.5828  0.7825
 2785TIP3    H229847   0.510   5.027   6.165  0.2979  0.4662  0.1295
 2786TIP3   OH229848   6.340   2.048   2.352 -0.0596  0.3690 -0.1869
 2786TIP3    H129849   6.423   2.032   2.397 -0.2794  0.4364  0.2555
 2786TIP3    H229850   6.351   2.009   2.265  0.1301 -0.3797  0.1621
 2787TIP3   OH229851   1.655   6.765  14.726 -0.4444  0.0870 -0.2071
 2787TIP3    H129852   1.582   6.760  14.665  0.3900 -1.2026 -1.1523
 2787TIP3    H229853   1.663   6.858  14.748 -1.5937  0.3894 -1.0172
 2788TIP3   OH229854   3.747   1.732  13.823  0.2240  0.2904 -0.1991
 2788TIP3    H129855   3.711   1.700  13.740  1.0684  0.6910 -0.7269
 2788TIP3    H229856   3.778   1.820  13.804  0.8983  0.1945  0.4072
 2789TIP3   OH229857   2.169   4.050   1.734 -0.6549 -0.1284 -0.0349
 2789TIP3    H129858   2.163   4.008   1.820 -0.0009  0.2354  0.2011
 2789TIP3    H229859   2.220   3.989   1.681  0.9688  0.6496  0.5303
 2790TIP3   OH229860   3.189   0.711  13.869 -0.3571 -0.3630  0.1785
 2790TIP3    H129861   3.198   0.799  13.832 -1.9896 -0.8544 -1.5570
 2790TIP3    H229862   3.120   0.719  13.934 -1.5296 -0.6087 -1.0030
 2791TIP3   OH229863   4.156   0.813  16.419  0.3973  0.2194  1.0536
 2791TIP3    H129864   4.064   0.840  16.416  0.3299 -0.0198  0.8944
 2791TIP3    H229865   4.202   0.888  16.456  0.3694  1.0090 -0.4274
 2792TIP3   OH229866   3.122   3.669  12.067  0.0086 -0.5424  0.1605
 2792TIP3    H129867   3.072   3.587  12.066 -0.5694 -0.2069 -1.3426
 2792TIP3    H229868   3.204   3.646  12.110 -0.3435 -1.7788  0.2276
 2793TIP3   OH229869   4.504   0.016   0.853 -0.1885  0.2250 -0.6318
 2793TIP3    H129870   4.437   0.080   0.876 -0.2442 -0.7300  2.2859
 2793TIP3    H229871   4.459  -0.046   0.795 -1.1028  0.9119 -0.6855
 2794TIP3   OH229872   3.206   1.261   0.972  0.2957  0.3236 -0.0975
 2794TIP3    H129873   3.127   1.210   0.954  0.5014  0.2909 -0.9807
 2794TIP3    H229874   3.267   1.197   1.008  1.0302 -0.4337 -2.4945
 2795TIP3   OH229875   4.314   1.529   2.355 -0.3596 -0.2517 -0.1830
 2795TIP3    H129876   4.241   1.578   2.318 -1.1618 -0.7705  0.6748
 2795TIP3    H229877   4.273   1.459   2.405  0.7596 -1.5980 -1.0942
 2796TIP3   OH229878   3.832   5.594  12.683 -0.0078 -0.5224 -0.4314
 2796TIP3    H129879   3.773   5.527  12.715 -0.7407  0.0217 -0.6209
 2796TIP3    H229880   3.798   5.618  12.597  1.0045 -0.8290 -0.9374
 2797TIP3   OH229881   6.706   2.915   3.600 -0.1646  0.1182 -0.4669
 2797TIP3    H129882   6.661   2.858   3.537  0.8379 -0.7144 -0.4478
 2797TIP3    H229883   6.785   2.944   3.554 -0.0697  0.5543 -0.0376
 2798TIP3   OH229884   1.191   5.393   6.040 -0.2301  0.4374  0.9401
 2798TIP3    H129885   1.254   5.413   6.109  0.1387  0.8401  0.4911
 2798TIP3    H229886   1.109   5.377   6.087 -0.1460  1.3740  1.4322
 2799TIP3   OH229887   5.917   2.269  14.060  0.1607  0.1053  0.1869
 2799TIP3    H129888   5.938   2.300  14.148 -0.1652 -1.1771  0.7335
 2799TIP3    H229889   5.859   2.194  14.074 -3.3484  2.3233 -1.2060
 2800TIP3   OH229890   0.750   1.159  13.908  0.3128 -0.1297 -0.6555
 2800TIP3    H129891   0.736   1.099  13.835  0.7663 -1.3770  0.2552
 2800TIP3    H229892   0.712   1.242  13.879 -0.9593 -1.0361 -1.6677
 2801TIP3   OH229893   5.555   1.503  16.900  0.5193  0.5591 -0.2910
 2801TIP3    H129894   5.551   1.568  16.971  0.4981  1.4290 -1.0692
 2801TIP3    H229895   5.464   1.476  16.887  0.8237 -2.1202  2.2259
 2802TIP3   OH229896   3.079   6.526  14.770  0.0178 -0.7303 -0.7390
 2802TIP3    H129897   3.076   6.605  14.823 -1.1801  0.2495 -2.1915
 2802TIP3    H229898   3.149   6.542  14.706 -0.1051 -0.9284 -0.9257
 2803TIP3   OH229899   4.864   3.017  10.804  0.1094 -0.6502  0.2202
 2803TIP3    H129900   4.917   2.947  10.765 -1.1616 -1.8344  0.4917
 2803TIP3    H229901   4.926   3.072  10.850  1.2066 -1.4169 -0.2944
 2804TIP3   OH229902   5.004   1.256  10.721 -0.4881 -0.1594  0.3842
 2804TIP3    H129903   4.943   1.183  10.731  0.9630 -1.2617  1.7722
 2804TIP3    H229904   5.076   1.235  10.780  1.1319  1.2052 -1.0005
 2805TIP3   OH229905   2.958   6.754   4.832 -0.4162 -0.3721 -0.0051
 2805TIP3    H129906   3.043   6.718   4.806  1.8659  2.1801  3.0720
 2805TIP3    H229907   2.950   6.835   4.782 -0.2607  0.1359  0.7713
 2806TIP3   OH229908   5.555   1.648  12.243  0.7664  0.3607 -0.4834
 2806TIP3    H129909   5.559   1.584  12.171  1.1650 -0.2670  0.0905
 2806TIP3    H229910   5.474   1.627  12.290 -0.2472  1.6682 -1.5493
 2807TIP3   OH229911   3.830   4.315   0.100  0.2807  0.2222 -0.4294
 2807TIP3    H129912   3.842   4.404   0.068 -1.0232  0.4027 -0.4806
 2807TIP3    H229913   3.827   4.260   0.021  0.2223  0.2524 -0.4482
 2808TIP3   OH229914   4.359   0.133   1.876  0.2312  0.5341  0.5407
 2808TIP3    H129915   4.291   0.136   1.808  0.6283 -2.8257 -0.1611
 2808TIP3    H229916   4.441   0.145   1.828  0.3986  0.1104  0.7185
 2809TIP3   OH229917   0.168   1.282  10.885  0.4338 -0.2870  0.3286
 2809TIP3    H129918   0.166   1.226  10.963  2.3752  0.1217  0.7123
 2809TIP3    H229919   0.088   1.258  10.837 -0.2168 -1.3600  1.8616
 2810TIP3   OH229920   6.148   3.838  15.687 -0.2086 -0.2773  0.1924
 2810TIP3    H129921   6.076   3.803  15.740 -0.9341  0.0778 -0.5307
 2810TIP3    H229922   6.227   3.803  15.728 -0.8689 -2.3279 -0.1830
 2811TIP3   OH229923   5.208   5.811  13.594 -0.1915  1.2539  0.6263
 2811TIP3    H129924   5.156   5.883  13.558 -0.4308  1.1892  0.8372
 2811TIP3    H229925   5.189   5.813  13.688  0.1040  1.1602  0.6888
 2812TIP3   OH229926   1.416   2.480  12.899  0.0652  0.2387  0.6501
 2812TIP3    H129927   1.328   2.499  12.867  0.1764 -0.4082 -0.0994
 2812TIP3    H229928   1.411   2.389  12.929  0.9604 -0.5397 -1.3531
 2813TIP3   OH229929   3.198   6.424  15.739  0.0993 -0.3600  0.5990
 2813TIP3    H129930   3.106   6.443  15.754  0.1133 -0.7085  1.1741
 2813TIP3    H229931   3.214   6.451  15.649 -0.2578  0.8300  0.8796
 2814TIP3   OH229932   1.030   4.925  15.641 -0.3500 -0.8967 -0.3946
 2814TIP3    H129933   0.941   4.954  15.624  0.6655  0.9877 -3.5713
 2814TIP3    H229934   1.081   5.006  15.647  1.5509 -1.8773 -1.9509
 2815TIP3   OH229935   2.620   0.321  13.077  0.5540  0.1456  0.0676
 2815TIP3    H129936   2.543   0.320  13.134  0.8419  0.1836  0.4620
 2815TIP3    H229937   2.585   0.340  12.990 -0.0758 -1.3906 -0.0454
 2816TIP3   OH229938   0.725   1.750   4.278 -0.0606 -0.0807  0.1512
 2816TIP3    H129939   0.749   1.733   4.187 -1.4591  0.3181 -0.3160
 2816TIP3    H229940   0.764   1.678   4.327  1.0225 -0.1059 -0.7029
 2817TIP3   OH229941   3.889   0.195   3.941 -0.4288  0.1137 -0.2182
 2817TIP3    H129942   3.876   0.158   3.854 -0.2478 -0.9590  0.1912
 2817TIP3    H229943   3.814   0.164   3.992  0.9937 -1.8787  0.8029
 2818TIP3   OH229944   4.578   0.027   4.597 -0.0350  0.1896  0.3274
 2818TIP3    H129945   4.649   0.068   4.647 -0.8393  0.0234  1.6463
 2818TIP3    H229946   4.608  -0.063   4.583  0.7079  0.5486 -0.5522
 2819TIP3   OH229947   1.303   5.066   1.823  0.0498  0.4386  0.0384
 2819TIP3    H129948   1.324   5.071   1.730  0.9752 -2.5186 -0.0334
 2819TIP3    H229949   1.386   5.040   1.864 -0.2660  1.9790  1.7595
 2820TIP3   OH229950   5.368   5.119   3.059 -0.2456 -0.1428  0.2680
 2820TIP3    H129951   5.404   5.083   2.978 -1.4104  1.2140 -0.9051
 2820TIP3    H229952   5.394   5.211   3.058  0.8255 -0.3675  2.1211
 2821TIP3   OH229953   2.392   4.174   3.133 -0.2090 -0.0753  0.8385
 2821TIP3    H129954   2.418   4.085   3.112 -0.1686  0.2377 -0.5322
 2821TIP3    H229955   2.363   4.211   3.049  0.6586  1.4952  1.2021
 2822TIP3   OH229956   4.483   2.950  16.141 -0.4437 -0.4165  0.1501
 2822TIP3    H129957   4.494   2.905  16.225 -1.0367 -0.0834  0.4094
 2822TIP3    H229958   4.389   2.943  16.122 -0.3227 -0.4518 -0.4707
 2823TIP3   OH229959   5.891   6.686   0.771  0.2613 -0.3612 -0.2513
 2823TIP3    H129960   5.981   6.660   0.789 -0.1027 -3.1821 -1.8269
 2823TIP3    H229961   5.875   6.657   0.681 -2.1239  0.3453 -0.1374
 2824TIP3   OH229962   3.883   0.941  15.855 -0.2145 -0.3201  0.3613
 2824TIP3    H129963   3.833   0.869  15.896  1.1873 -1.3113  0.4000
 2824TIP3    H229964   3.974   0.922  15.876  0.2732  0.9528 -0.4841
 2825TIP3   OH229965   4.178   0.112   5.821 -0.1737 -0.4217 -0.6051
 2825TIP3    H129966   4.165   0.061   5.901 -0.1817 -0.5404 -0.6815
 2825TIP3    H229967   4.254   0.072   5.780 -0.8280 -1.0591 -1.2092
 2826TIP3   OH229968   5.423   5.752   6.536 -0.6166 -0.2454  0.0806
 2826TIP3    H129969   5.417   5.830   6.592  0.7086 -0.2126  0.2260
 2826TIP3    H229970   5.427   5.679   6.597  0.5116 -0.2334  0.0430
 2827TIP3   OH229971   2.435   1.646   1.789  0.4839 -0.2334  0.0839
 2827TIP3    H129972   2.413   1.706   1.860  0.6767 -0.2313  0.1437
 2827TIP3    H229973   2.442   1.703   1.712 -1.7115 -0.4861 -0.3700
 2828TIP3   OH229974   5.199   4.383  10.932  0.3245  1.0675  0.4183
 2828TIP3    H129975   5.156   4.305  10.897 -0.6206  1.1822  1.2806
 2828TIP3    H229976   5.292   4.369  10.914  0.0942  0.0722 -0.0714
 2829TIP3   OH229977   1.595   1.776  10.792 -0.4530 -0.2146 -0.3367
 2829TIP3    H129978   1.637   1.691  10.789  1.1744  0.5304  0.3763
 2829TIP3    H229979   1.560   1.783  10.880  1.7587  0.8785  0.5239
 2830TIP3   OH229980   2.255   4.997   3.089 -1.0010 -0.4296 -0.2191
 2830TIP3    H129981   2.255   5.083   3.132 -1.2543 -0.5951  0.1162
 2830TIP3    H229982   2.172   4.957   3.115 -0.7620 -0.8859 -0.1515
 2831TIP3   OH229983   2.295   2.807  11.345  0.0219 -0.5376  0.0210
 2831TIP3    H129984   2.254   2.850  11.270  1.2725 -1.9155 -1.5336
 2831TIP3    H229985   2.385   2.840  11.345  0.2417 -1.1243  0.4544
 2832TIP3   OH229986   5.334   0.251   5.346  0.3341 -0.4099  1.0234
 2832TIP3    H129987   5.419   0.237   5.388  1.6996  3.0642 -0.1755
 2832TIP3    H229988   5.312   0.166   5.309  3.2014 -1.5148  1.5285
 2833TIP3   OH229989   1.862   5.727   1.842  0.1981 -0.2112 -0.0391
 2833TIP3    H129990   1.773   5.763   1.835  0.1557 -0.5477 -1.6106
 2833TIP3    H229991   1.859   5.672   1.920 -0.9182 -0.0178  0.0709
 2834TIP3   OH229992   5.370   1.096  13.491 -0.0376  0.0194  0.3459
 2834TIP3    H129993   5.333   1.183  13.472 -0.9992 -0.0649  1.7020
 2834TIP3    H229994   5.430   1.079  13.418  0.0031  1.7252 -0.0579
 2835TIP3   OH229995   0.349   0.932   4.711  0.4250 -0.1247  0.4961
 2835TIP3    H129996   0.360   0.990   4.636 -1.5788  0.0630  0.2782
 2835TIP3    H229997   0.430   0.881   4.716  1.5340  1.5055 -0.3325
 2836TIP3   OH229998   3.986   3.195   5.463  0.0748  0.0614 -0.5229
 2836TIP3    H129999   4.013   3.287   5.458  2.0287 -0.5172 -1.7100
 2836TIP3    H230000   3.992   3.174   5.556 -1.9657  1.5164  0.0148
 2837TIP3   OH230001   3.726   3.305  11.452 -0.0631  0.0104 -0.3063
 2837TIP3    H130002   3.632   3.292  11.458  0.0912 -0.5380  1.6538
 2837TIP3    H230003   3.743   3.389  11.496  0.5385 -1.0276  1.5977
 2838TIP3   OH230004   4.083   2.315   0.308 -0.4898 -0.3341 -0.0091
 2838TIP3    H130005   4.148   2.379   0.278 -0.1605 -1.1744 -1.1561
 2838TIP3    H230006   3.999   2.355   0.286 -0.2944 -0.1779 -0.4902
 2839TIP3   OH230007   3.216   1.061   5.965 -0.5216 -0.0915 -0.6480
 2839TIP3    H130008   3.305   1.093   5.949 -0.0521 -1.5570 -1.1951
 2839TIP3    H230009   3.164   1.140   5.980  0.8614  0.7993 -0.3458
 2840TIP3   OH230010   3.988   2.968  15.374  0.6431 -0.2221 -0.1203
 2840TIP3    H130011   3.970   2.913  15.297  0.5369 -0.7526  0.2836
 2840TIP3    H230012   4.041   2.913  15.431 -0.7963 -0.4964  1.0035
 2841TIP3   OH230013   2.392   1.958  12.930 -0.0186 -0.5637 -0.4858
 2841TIP3    H130014   2.316   1.943  12.874 -0.4170 -0.8715  0.1207
 2841TIP3    H230015   2.390   1.886  12.993  0.8692 -0.6551 -0.5643
 2842TIP3   OH230016   1.776   5.596   0.229  0.7222 -0.2810  0.0618
 2842TIP3    H130017   1.802   5.596   0.321  1.1439 -0.1085 -0.0561
 2842TIP3    H230018   1.776   5.688   0.204  0.0987 -0.2839  0.0264
 2843TIP3   OH230019   2.311   5.389   0.711 -0.5916 -0.1233  0.1003
 2843TIP3    H130020   2.358   5.416   0.632 -0.5377 -0.2014  0.1054
 2843TIP3    H230021   2.348   5.443   0.781 -1.6252  0.9718 -0.1576
 2844TIP3   OH230022   5.759   2.340   5.708  0.2869  0.1653  0.1557
 2844TIP3    H130023   5.835   2.289   5.678 -0.5938  0.0912 -2.1812
 2844TIP3    H230024   5.711   2.281   5.765  1.5658 -0.0302  1.0900
 2845TIP3   OH230025   2.642   6.065   0.316 -0.3900 -0.6269  0.4358
 2845TIP3    H130026   2.553   6.081   0.284 -0.9927  0.2757  2.4095
 2845TIP3    H230027   2.631   6.003   0.387  0.7968 -1.8278 -0.3794
 2846TIP3   OH230028   5.496   5.357   3.814 -0.3730  0.6002 -0.3347
 2846TIP3    H130029   5.496   5.398   3.901  1.4243  1.5778 -0.7310
 2846TIP3    H230030   5.545   5.276   3.825 -2.3387 -0.6066  0.0504
 2847TIP3   OH230031   3.885   3.848   5.405  0.1834 -0.1815 -0.3750
 2847TIP3    H130032   3.923   3.936   5.409 -0.6425  0.1869 -0.2254
 2847TIP3    H230033   3.873   3.823   5.496 -1.7892  0.5761 -0.3660
 2848TIP3   OH230034   1.932   3.937  15.667 -0.6026 -0.2946 -0.1892
 2848TIP3    H130035   1.917   4.030  15.681  2.5921  0.2583  0.3576
 2848TIP3    H230036   1.880   3.915  15.589 -2.1119  1.6879  0.2000
 2849TIP3   OH230037   5.852   0.115  16.236 -0.0960 -0.2801 -0.5151
 2849TIP3    H130038   5.791   0.184  16.209 -2.0036 -1.1577  1.2048
 2849TIP3    H230039   5.899   0.092  16.156 -1.1794  1.2655 -1.6788
 2850TIP3   OH230040   5.064   2.683   5.880  0.3624  0.1763  0.4154
 2850TIP3    H130041   5.036   2.771   5.903  0.4032  0.0841  0.8138
 2850TIP3    H230042   5.011   2.661   5.803  1.9129  1.4034 -1.0892
 2851TIP3   OH230043   5.713   0.733   0.629  0.2039 -0.4932  0.3009
 2851TIP3    H130044   5.739   0.756   0.540 -0.3659 -0.8844  0.0244
 2851TIP3    H230045   5.774   0.663   0.654 -0.8178 -1.7224 -0.5141
 2852TIP3   OH230046   4.836   0.704   4.970  0.0125  0.1084  0.2124
 2852TIP3    H130047   4.827   0.750   5.054  2.3868  0.7955  0.1634
 2852TIP3    H230048   4.897   0.633   4.988  0.9932  0.6064 -1.0284
 2853TIP3   OH230049   0.969   3.463  12.277  0.1278 -0.3173 -0.6789
 2853TIP3    H130050   0.944   3.437  12.188 -0.3004  1.9533 -1.3029
 2853TIP3    H230051   1.063   3.446  12.282 -0.1921 -2.3544 -0.8132
 2854TIP3   OH230052   6.623   2.115  14.028 -0.4283  0.0209  0.1968
 2854TIP3    H130053   6.566   2.178  14.073 -1.7716 -0.0900 -1.2651
 2854TIP3    H230054   6.695   2.100  14.089 -0.4981  2.3244  0.9445
 2855TIP3   OH230055   1.790   3.362  15.442 -0.6260 -0.5462  0.3120
 2855TIP3    H130056   1.831   3.331  15.523  0.9948 -1.1337 -0.6902
 2855TIP3    H230057   1.766   3.453  15.461 -0.4555 -0.7388  1.5183
 2856TIP3   OH230058   6.606   0.434  12.814 -0.5397  0.4960  0.2069
 2856TIP3    H130059   6.696   0.465  12.816 -0.6749  0.8811  0.4290
 2856TIP3    H230060   6.562   0.493  12.752 -0.7001  0.4715  0.2973
 2857TIP3   OH230061   6.334   4.802   1.252  0.1416 -0.2113  0.8654
 2857TIP3    H130062   6.281   4.732   1.215 -0.2310  0.4379  0.1389
 2857TIP3    H230063   6.274   4.876   1.259  0.7301  0.2718  0.8735
 2858TIP3   OH230064   4.737   4.027   0.975  0.1018 -0.8913 -0.2674
 2858TIP3    H130065   4.799   4.055   1.043 -1.9594 -1.1723  1.8690
 2858TIP3    H230066   4.789   3.970   0.918  2.0014 -0.4805  0.9236
 2859TIP3   OH230067   0.001   1.841   1.683  0.3357 -0.3357  0.4585
 2859TIP3    H130068   0.002   1.759   1.733 -1.1408 -1.8632 -1.8425
 2859TIP3    H230069  -0.087   1.876   1.695  0.6983  0.5284  0.7370
 2860TIP3   OH230070   5.461   2.233   3.043  0.3466 -0.1980  0.2235
 2860TIP3    H130071   5.427   2.193   3.123  2.4295  1.5259  2.0997
 2860TIP3    H230072   5.556   2.220   3.048  0.9153  3.0778 -0.0753
 2861TIP3   OH230073   0.672   6.628   2.052  0.4455 -0.0268 -0.2364
 2861TIP3    H130074   0.596   6.653   2.104  0.6700  0.3863 -0.1075
 2861TIP3    H230075   0.735   6.594   2.115 -0.0639 -1.4637 -0.4615
 2862TIP3   OH230076   2.507   1.054  12.834 -0.5504  0.2806  0.0679
 2862TIP3    H130077   2.521   1.089  12.746 -2.1315  0.9399  0.0640
 2862TIP3    H230078   2.489   1.130  12.888 -3.2157 -0.3846  0.2212
 2863TIP3   OH230079   0.436   1.850   2.246  0.4875 -0.2169  0.0496
 2863TIP3    H130080   0.409   1.941   2.258  0.4425 -0.2410  0.1309
 2863TIP3    H230081   0.354   1.802   2.234  0.5557 -0.1052 -0.9799
 2864TIP3   OH230082   0.364   2.560   4.954 -0.3192  0.2977 -0.0137
 2864TIP3    H130083   0.342   2.558   5.047  3.0346 -0.7293  0.8805
 2864TIP3    H230084   0.439   2.501   4.945  1.9777  3.2555 -2.6627
 2865TIP3   OH230085   6.479   0.279  16.188  0.0976 -0.2867  0.0462
 2865TIP3    H130086   6.417   0.258  16.258  0.2235  2.1640  0.9643
 2865TIP3    H230087   6.565   0.265  16.228  0.1914 -1.5918 -0.5534
 2866TIP3   OH230088   3.935   5.137   0.160 -0.5005  0.0175 -0.9489
 2866TIP3    H130089   3.897   5.187   0.232 -1.0919 -1.0137 -0.5309
 2866TIP3    H230090   3.882   5.160   0.084 -2.1224 -1.4949 -0.3557
 2867TIP3   OH230091   3.337   3.674  13.856  0.2852  1.0776  1.0434
 2867TIP3    H130092   3.243   3.687  13.861 -0.0156  0.4850 -1.4836
 2867TIP3    H230093   3.347   3.582  13.832  1.4497  1.3264  0.4822
 2868TIP3   OH230094   2.685   2.688   0.225  0.3930 -0.2996  0.3450
 2868TIP3    H130095   2.693   2.766   0.170 -0.5337  0.5281  1.3320
 2868TIP3    H230096   2.666   2.617   0.163  0.9503  0.3046 -0.5411
 2869TIP3   OH230097   1.322   6.344   2.110  0.3179  0.1966  0.1673
 2869TIP3    H130098   1.335   6.379   2.023  0.4674  0.6480  0.3692
 2869TIP3    H230099   1.349   6.252   2.103  0.7362  0.3393 -0.1569
 2870TIP3   OH230100   2.150   2.480  12.808 -0.1615 -0.7214  0.4794
 2870TIP3    H130101   2.189   2.491  12.895 -1.7875 -2.6643  1.5308
 2870TIP3    H230102   2.056   2.481  12.824 -0.4820 -1.4536 -1.2275
 2871TIP3   OH230103   5.667   6.321  16.033  0.3818 -0.1788  0.0699
 2871TIP3    H130104   5.655   6.413  16.007  0.6651 -0.5733 -1.5652
 2871TIP3    H230105   5.706   6.280  15.956 -2.4596 -2.3358 -0.3859
 2872TIP3   OH230106   1.826   5.969   2.873  0.1016  0.1518 -0.0018
 2872TIP3    H130107   1.895   5.946   2.810  1.0499  0.2246  0.9729
 2872TIP3    H230108   1.747   5.928   2.837  1.0112 -1.5619 -0.2069
 2873TIP3   OH230109   0.564   2.473   2.213  0.2360 -0.1223 -0.4626
 2873TIP3    H130110   0.551   2.378   2.209 -1.7902 -0.0014  1.5204
 2873TIP3    H230111   0.476   2.509   2.227  0.9148  2.0989 -1.4645
 2874TIP3   OH230112   3.524   5.785   1.702 -0.0038 -0.5347  0.1137
 2874TIP3    H130113   3.555   5.703   1.664 -1.6137 -1.4446  0.6616
 2874TIP3    H230114   3.453   5.813   1.645 -0.4196 -0.2940  0.7312
 2875TIP3   OH230115   3.337   6.636   6.127  0.7631 -0.0490  0.2527
 2875TIP3    H130116   3.332   6.658   6.220 -0.1538  0.4325  0.1036
 2875TIP3    H230117   3.255   6.591   6.108  1.5052 -1.3366 -0.0447
 2876TIP3   OH230118   2.410   3.371  12.848 -0.0745  0.0375  0.4008
 2876TIP3    H130119   2.451   3.418  12.920  0.6586  1.6484 -0.9862
 2876TIP3    H230120   2.484   3.338  12.796 -0.5160  1.0822 -0.9470
 2877TIP3   OH230121   4.803   4.173  11.255 -0.0361 -0.0638 -0.4022
 2877TIP3    H130122   4.865   4.235  11.217  0.0879 -0.3793 -0.7262
 2877TIP3    H230123   4.724   4.184  11.203 -0.1158  0.0430 -0.2586
 2878TIP3   OH230124   5.955   4.354  16.069  0.1791  0.1767 -0.2584
 2878TIP3    H130125   6.018   4.426  16.071  0.8833 -0.4414  0.6153
 2878TIP3    H230126   5.976   4.301  16.146  0.8354 -1.9399 -1.8013
 2879TIP3   OH230127   5.231   2.364  14.060 -0.0405  0.7899  0.6038
 2879TIP3    H130128   5.218   2.457  14.041 -0.8637  0.6469  0.4440
 2879TIP3    H230129   5.145   2.324  14.045  0.0066  0.1912  1.7953
 2880TIP3   OH230130   3.609   0.701   4.335 -0.3017  0.3714 -0.1927
 2880TIP3    H130131   3.643   0.741   4.415  1.2697 -2.3913  0.6734
 2880TIP3    H230132   3.666   0.735   4.265 -0.9799  1.9548 -0.0074
 2881TIP3   OH230133   4.929   0.490  11.835 -0.2947 -0.0026  0.4360
 2881TIP3    H130134   4.887   0.504  11.751  1.9076  0.1003 -0.7277
 2881TIP3    H230135   4.939   0.395  11.842 -1.4344 -0.0932  1.1254
 2882TIP3   OH230136   0.618   6.608  12.906  0.2255  0.0383  0.0728
 2882TIP3    H130137   0.648   6.520  12.884 -0.6351 -0.0864 -0.6999
 2882TIP3    H230138   0.582   6.642  12.824 -1.4530  0.2588  0.8568
 2883TIP3   OH230139   0.958   5.113  15.011 -0.1564  0.4805 -0.1906
 2883TIP3    H130140   0.923   5.032  15.047  0.3532 -1.1134 -3.0491
 2883TIP3    H230141   0.887   5.150  14.960 -0.3652  1.8913  1.0371
 2884TIP3   OH230142   2.591   1.631   2.112  0.5465 -0.3102  0.2857
 2884TIP3    H130143   2.621   1.603   2.199 -2.2425 -1.0056  1.1215
 2884TIP3    H230144   2.525   1.567   2.088  0.9001  0.1603 -2.1930
 2885TIP3   OH230145   0.240   1.577   1.491 -0.0944  0.2540 -0.7756
 2885TIP3    H130146   0.299   1.537   1.554 -1.7375 -0.6265  0.2492
 2885TIP3    H230147   0.282   1.660   1.469  1.3225 -0.1681  0.2239
 2886TIP3   OH230148   0.754   5.378   2.972 -0.6348 -0.0157  0.0354
 2886TIP3    H130149   0.795   5.295   2.945 -0.7728  0.6422 -2.5056
 2886TIP3    H230150   0.754   5.431   2.892 -1.0914  2.2308  1.4530
 2887TIP3   OH230151   0.776   6.660   4.831  0.2334  0.6220 -0.3554
 2887TIP3    H130152   0.845   6.717   4.868  0.5679 -0.4778  0.7976
 2887TIP3    H230153   0.789   6.576   4.875  2.2372 -1.6694 -4.7452
 2888TIP3   OH230154   4.245   4.588  12.313  0.6157 -0.1607 -0.1656
 2888TIP3    H130155   4.330   4.629  12.300  0.1762  0.2943 -1.8989
 2888TIP3    H230156   4.229   4.538  12.233 -0.4895 -0.7068  0.3634
 2889TIP3   OH230157   5.273   5.401   5.684 -0.0556 -0.1552  0.0417
 2889TIP3    H130158   5.243   5.438   5.601  0.8868  0.1179 -0.1854
 2889TIP3    H230159   5.297   5.311   5.662 -1.7105 -0.7257  0.4537
 2890TIP3   OH230160   2.708   2.611  16.963  0.4306 -0.0213  0.1696
 2890TIP3    H130161   2.769   2.538  16.969  0.9082  0.2626 -0.9493
 2890TIP3    H230162   2.754   2.683  17.006 -0.1026 -0.3959  1.4055
 2891TIP3   OH230163   0.018   2.233  13.224  0.0137 -0.2541 -0.0006
 2891TIP3    H130164  -0.037   2.312  13.223  0.7603  0.2892 -1.5431
 2891TIP3    H230165   0.070   2.239  13.144  2.5347 -0.6085  1.4957
 2892TIP3   OH230166   4.432   4.323  13.773  0.4408 -0.0509  0.7668
 2892TIP3    H130167   4.484   4.254  13.813  0.0218  0.2038  1.7728
 2892TIP3    H230168   4.472   4.404  13.804  0.8612  0.1724 -0.3141
 2893TIP3   OH230169   2.959   5.721   3.336 -0.1446  0.1336 -0.6024
 2893TIP3    H130170   3.033   5.660   3.339 -0.4724 -0.2331  1.6895
 2893TIP3    H230171   2.999   5.805   3.312  0.9414 -0.1776  0.0350
 2894TIP3   OH230172   6.439   5.150  10.855 -0.0472 -0.2984 -0.5700
 2894TIP3    H130173   6.498   5.224  10.866  1.1034 -1.2825  0.1361
 2894TIP3    H230174   6.477   5.080  10.908 -1.7181 -1.0576 -0.2859
 2895TIP3   OH230175   0.767   5.902   3.820 -0.1339 -0.3625  0.1707
 2895TIP3    H130176   0.726   5.981   3.785  2.0140  1.3074  1.2452
 2895TIP3    H230177   0.806   5.860   3.743  1.0268  1.1053 -0.0990
 2896TIP3   OH230178   2.098   6.285   3.491  0.4143 -0.0308  0.1056
 2896TIP3    H130179   2.148   6.358   3.454  1.1545 -1.3262 -1.5844
 2896TIP3    H230180   2.125   6.209   3.440 -1.6319 -1.1972  0.6346
 2897TIP3   OH230181   6.302   4.975   2.006 -0.6761 -0.4833 -0.3349
 2897TIP3    H130182   6.350   4.926   1.938  1.5754 -0.6041  1.2409
 2897TIP3    H230183   6.311   5.067   1.981 -1.2490 -0.6066 -1.0281
 2898TIP3   OH230184   0.613   1.677   3.434  0.2784 -0.2078  0.3903
 2898TIP3    H130185   0.654   1.709   3.515  0.7169 -1.2702  0.6087
 2898TIP3    H230186   0.673   1.609   3.403 -0.6942 -0.9259  0.0419
 2899TIP3   OH230187   1.772   5.456  14.480 -0.0508 -0.5776  0.4183
 2899TIP3    H130188   1.761   5.475  14.387  2.3696 -1.3209 -0.0806
 2899TIP3    H230189   1.733   5.369  14.492  1.1631 -1.2406 -0.3025
 2900TIP3   OH230190   5.499   4.127  10.858 -0.3346 -0.5548  0.0814
 2900TIP3    H130191   5.545   4.044  10.868  1.3372  0.1618 -1.1370
 2900TIP3    H230192   5.407   4.105  10.871  0.2301 -2.2131  1.7235
 2901TIP3   OH230193   2.854   2.611   0.426  0.4128  1.0433  0.6517
 2901TIP3    H130194   2.835   2.667   0.501 -0.5862  0.6326  0.7215
 2901TIP3    H230195   2.795   2.643   0.357 -0.5763 -0.2369  0.8602
 2902TIP3   OH230196   6.446   2.974  10.761 -0.6432 -0.1932  0.7655
 2902TIP3    H130197   6.500   2.921  10.704  0.4540  1.3824  0.2864
 2902TIP3    H230198   6.362   2.981  10.716 -0.6879 -1.2091  0.6811
 2903TIP3   OH230199   3.694   5.153  16.598  0.4568  0.2673  0.1258
 2903TIP3    H130200   3.664   5.065  16.573 -2.0970  0.0233  3.3959
 2903TIP3    H230201   3.662   5.209  16.528 -1.7552 -0.9248  0.0879
 2904TIP3   OH230202   3.805   3.659  12.536 -0.4266  0.1924  0.7181
 2904TIP3    H130203   3.797   3.613  12.453  0.1767 -0.9051  1.2416
 2904TIP3    H230204   3.750   3.610  12.597 -1.1381  1.1836  0.9118
 2905TIP3   OH230205   5.843   0.579   1.040  0.1933  0.3094  0.5698
 2905TIP3    H130206   5.773   0.514   1.043 -1.0549  1.6119  1.0394
 2905TIP3    H230207   5.872   0.579   0.949 -1.6843  0.9778 -0.0946
 2906TIP3   OH230208   3.415   0.634   0.541  0.3276  0.1439  0.1197
 2906TIP3    H130209   3.368   0.559   0.505 -0.0992 -1.3933  3.4961
 2906TIP3    H230210   3.505   0.623   0.511  0.3154 -1.9056  0.6903
 2907TIP3   OH230211   3.773   4.111  12.951  0.3047 -0.1329  0.3666
 2907TIP3    H130212   3.836   4.073  12.889 -0.7743 -0.3865 -0.6219
 2907TIP3    H230213   3.760   4.200  12.920 -1.1539 -0.6226 -0.5707
 2908TIP3   OH230214   5.668   3.358   2.973  0.3636  0.3467  0.3663
 2908TIP3    H130215   5.576   3.347   2.950  0.4140  0.9897 -0.1537
 2908TIP3    H230216   5.668   3.363   3.068 -0.3337  2.0555  0.3019
 2909TIP3   OH230217   4.173   5.169  14.003  0.3281  0.3283  0.2113
 2909TIP3    H130218   4.122   5.088  13.998  2.4853 -1.0563 -0.7477
 2909TIP3    H230219   4.108   5.237  14.019 -1.7396 -1.4080 -0.3369
 2910TIP3   OH230220   0.804   0.577   3.393 -0.0081  0.7247 -0.3827
 2910TIP3    H130221   0.772   0.640   3.329 -0.7151  2.8606  1.8835
 2910TIP3    H230222   0.861   0.629   3.451 -1.0731 -0.5484  1.9333
 2911TIP3   OH230223   4.224   5.691  11.687  0.1233  0.1423  0.1293
 2911TIP3    H130224   4.244   5.668  11.778  0.5375 -1.2194 -0.2866
 2911TIP3    H230225   4.128   5.695  11.684  0.0910 -0.2955  0.5084
 2912TIP3   OH230226   2.261   5.042  16.068  0.1325  0.7186  0.5728
 2912TIP3    H130227   2.200   5.033  16.141  1.0500  1.3897  1.4552
 2912TIP3    H230228   2.206   5.053  15.991 -0.9139 -1.9547  0.8314
 2913TIP3   OH230229   3.390   4.406   2.147  0.0837  0.0602  0.0027
 2913TIP3    H130230   3.313   4.443   2.189 -0.4850 -1.1198  0.0556
 2913TIP3    H230231   3.371   4.410   2.053 -0.5060 -1.1118  0.0449
 2914TIP3   OH230232   6.492   0.591   1.113  0.4987  0.1567 -0.5828
 2914TIP3    H130233   6.533   0.567   1.030  0.1530 -0.0206 -0.7048
 2914TIP3    H230234   6.403   0.557   1.106  0.9405 -1.3074  0.5094
 2915TIP3   OH230235   3.883   1.913   4.682  0.6450  0.2880 -0.6509
 2915TIP3    H130236   3.882   1.997   4.727 -1.2531 -0.7430  1.3606
 2915TIP3    H230237   3.908   1.849   4.749 -0.5950 -1.0867 -1.4403
 2916TIP3   OH230238   3.908   6.098   2.508  0.0851  0.1549  0.3315
 2916TIP3    H130239   3.851   6.173   2.523  2.0230  1.6030  0.9229
 2916TIP3    H230240   3.879   6.032   2.571 -2.5350 -0.2003 -1.1080
 2917TIP3   OH230241   5.653   1.940  15.752  0.3593 -0.2775 -0.6082
 2917TIP3    H130242   5.717   2.008  15.771  0.1627 -0.3563  0.3607
 2917TIP3    H230243   5.669   1.872  15.817 -1.2542  0.0636  0.2041
 2918TIP3   OH230244   2.303   0.276  14.758  0.0582 -0.4175  0.2788
 2918TIP3    H130245   2.397   0.270  14.743  0.0220 -1.1836  0.3233
 2918TIP3    H230246   2.265   0.212  14.698 -0.4738  0.2277 -0.0808
 2919TIP3   OH230247   2.045   0.439  16.575 -0.9619  0.0951  0.0175
 2919TIP3    H130248   2.022   0.439  16.667  1.2181 -0.8175  0.6366
 2919TIP3    H230249   2.111   0.508  16.567 -0.7761 -0.1586 -0.7388
 2920TIP3   OH230250   3.517   5.665  15.920 -0.6247  0.1054  0.1465
 2920TIP3    H130251   3.526   5.612  15.841 -0.4938  0.7645 -0.2930
 2920TIP3    H230252   3.564   5.747  15.899  0.2963 -0.1044  1.2719
 2921TIP3   OH230253   3.160   6.312  14.926  0.2207  0.2846  0.0610
 2921TIP3    H130254   3.123   6.392  14.889  0.6761  0.2856 -0.4006
 2921TIP3    H230255   3.213   6.275  14.856  2.0342  0.8882  1.0476
 2922TIP3   OH230256   1.836   0.969  15.536 -0.1112  0.0715  0.4476
 2922TIP3    H130257   1.878   0.905  15.593 -1.5931 -2.4563 -1.1531
 2922TIP3    H230258   1.901   0.986  15.468  0.0565 -0.1964  0.5377
 2923TIP3   OH230259   4.201   2.209  12.395 -0.6211  0.9432  0.5965
 2923TIP3    H130260   4.264   2.164  12.452 -2.1488  0.0867  1.6841
 2923TIP3    H230261   4.115   2.183  12.429 -1.6297  0.0558 -2.3481
 2924TIP3   OH230262   4.342   1.438  15.395 -0.2743 -0.4078  0.5242
 2924TIP3    H130263   4.366   1.459  15.486 -0.6585 -1.7971  0.9729
 2924TIP3    H230264   4.256   1.395  15.403 -1.5906  1.8014 -0.7506
 2925TIP3   OH230265   2.027   4.386  11.415  0.3339 -0.2582  0.1540
 2925TIP3    H130266   2.023   4.353  11.325 -1.4082  2.4041 -0.8659
 2925TIP3    H230267   2.120   4.391  11.434  0.7542 -0.7772 -1.5530
 2926TIP3   OH230268   5.694   3.732   0.376  0.2181  0.0220 -0.2735
 2926TIP3    H130269   5.763   3.783   0.334  0.1184  1.0718  0.7597
 2926TIP3    H230270   5.724   3.721   0.466 -0.1531 -1.0561 -0.2683
 2927TIP3   OH230271   3.162   1.241   3.150  0.2789  0.1039  0.2873
 2927TIP3    H130272   3.188   1.188   3.075 -1.2026 -0.9914  0.4977
 2927TIP3    H230273   3.100   1.186   3.198 -0.4462  1.5994  1.1413
 2928TIP3   OH230274   2.608   1.424  12.916  0.4699 -0.3618  0.0098
 2928TIP3    H130275   2.537   1.371  12.952  0.2188  1.0709  1.7684
 2928TIP3    H230276   2.664   1.361  12.872 -1.3265 -1.6830 -0.5410
 2929TIP3   OH230277   4.143   4.332   1.027  0.4035 -0.4247  0.1271
 2929TIP3    H130278   4.209   4.299   0.966  1.4538  0.5075  0.7419
 2929TIP3    H230279   4.149   4.427   1.021 -1.6763 -0.2891 -0.6283
 2930TIP3   OH230280   3.079   2.221  11.788  0.1091  0.0809 -0.5957
 2930TIP3    H130281   3.154   2.258  11.835 -0.4927  1.1780 -0.4826
 2930TIP3    H230282   3.116   2.147  11.740  1.5453  1.3899 -1.5980
 2931TIP3   OH230283   4.051   0.190  13.895 -0.0299 -0.3695  0.0746
 2931TIP3    H130284   4.021   0.281  13.888 -0.1991 -0.4022  0.3470
 2931TIP3    H230285   4.107   0.190  13.973  0.2390 -0.4274 -0.1185
 2932TIP3   OH230286   6.288   0.720  17.036  0.0498 -0.4673  0.2939
 2932TIP3    H130287   6.226   0.728  17.109  1.8383 -1.4231  2.0412
 2932TIP3    H230288   6.336   0.803  17.037  1.1100 -1.0454  1.3089
 2933TIP3   OH230289   1.291   4.064   2.421  0.2848 -0.1573 -0.0762
 2933TIP3    H130290   1.224   4.021   2.369 -0.5274  3.4403 -2.3385
 2933TIP3    H230291   1.243   4.101   2.495  0.0753  0.8679 -0.7137
 2934TIP3   OH230292   1.029   3.765   3.434 -0.4914 -0.2346 -0.0852
 2934TIP3    H130293   1.094   3.704   3.471 -1.0664 -1.3748 -0.9104
 2934TIP3    H230294   0.992   3.808   3.511  0.0868 -0.7626  0.5121
 2935TIP3   OH230295   0.348   1.111   3.273 -0.0912 -0.2301  0.4209
 2935TIP3    H130296   0.332   1.017   3.263  0.2837 -0.2615  0.1157
 2935TIP3    H230297   0.362   1.122   3.367  0.7395 -0.6261  0.3534
 2936TIP3   OH230298   3.690   2.068  12.131  0.2263 -0.0131  0.4251
 2936TIP3    H130299   3.643   2.006  12.188  0.7826  0.5077  1.4813
 2936TIP3    H230300   3.754   2.014  12.085 -0.2537 -0.4479  0.2496
 2937TIP3   OH230301   1.069   5.777  12.177 -0.1468  0.0595  0.1170
 2937TIP3    H130302   1.026   5.696  12.203 -0.5945 -0.0486 -0.9202
 2937TIP3    H230303   1.000   5.829  12.136  0.4354  0.3840 -0.4684
 2938TIP3   OH230304   6.814   0.353   4.752 -0.2259  0.5674 -0.0371
 2938TIP3    H130305   6.801   0.259   4.760 -0.0055  0.1504 -3.1952
 2938TIP3    H230306   6.840   0.382   4.840  0.6825 -2.4573  0.8062
 2939TIP3   OH230307   4.277   4.070  15.875  0.3205  0.5778 -0.0601
 2939TIP3    H130308   4.333   4.048  15.801  0.1817 -0.5490  0.1524
 2939TIP3    H230309   4.226   3.991  15.891 -0.3403  1.1284  0.6304
 2940TIP3   OH230310   6.708   5.010   1.224  0.1849 -0.3035  0.0842
 2940TIP3    H130311   6.621   5.019   1.186 -0.9192  1.0520  2.7350
 2940TIP3    H230312   6.748   5.096   1.212  2.7790 -1.7905 -4.3702
 2941TIP3   OH230313   2.660   4.258  10.820 -0.4981  0.2734 -0.4351
 2941TIP3    H130314   2.600   4.273  10.747  0.0381 -0.0967 -0.9664
 2941TIP3    H230315   2.657   4.339  10.871 -1.1792  0.3857 -0.6399
 2942TIP3   OH230316   5.677   0.237  16.782  0.2189 -0.4653 -0.1804
 2942TIP3    H130317   5.738   0.268  16.848 -1.9568 -0.4725  1.9301
 2942TIP3    H230318   5.731   0.182  16.724  2.4058  0.4707  0.8567
 2943TIP3   OH230319   5.108   1.884  16.089  0.1936 -0.2565  0.7791
 2943TIP3    H130320   5.033   1.944  16.087 -0.4599 -1.0539 -0.3409
 2943TIP3    H230321   5.179   1.935  16.126  0.1263  1.7726 -1.5995
 2944TIP3   OH230322   4.374   1.802   3.818 -0.0705  0.7157 -0.9338
 2944TIP3    H130323   4.289   1.841   3.839 -0.3207 -0.2857 -0.0231
 2944TIP3    H230324   4.434   1.877   3.815 -0.1801  1.0916  2.5326
 2945TIP3   OH230325   2.063   5.094  16.893 -0.2559  0.2284  0.5848
 2945TIP3    H130326   2.050   5.121  16.802 -0.7359 -0.0652  0.5628
 2945TIP3    H230327   2.090   5.174  16.939 -0.3996  0.4606  0.2639
 2946TIP3   OH230328   0.448   2.568   1.380  0.7524  0.3139 -0.8882
 2946TIP3    H130329   0.358   2.539   1.396  0.4856  1.0693 -0.9830
 2946TIP3    H230330   0.494   2.489   1.355  0.5420 -0.4432  0.9275
 2947TIP3   OH230331   5.284   3.967   4.303 -0.1406 -0.6077  0.2551
 2947TIP3    H130332   5.282   4.008   4.217  1.6605 -1.0784 -0.0520
 2947TIP3    H230333   5.228   4.022   4.358  0.3425  0.9021 -0.7117
 2948TIP3   OH230334   4.512   0.660   1.246 -0.1198 -0.3765 -0.0994
 2948TIP3    H130335   4.456   0.583   1.231  0.1833 -0.5495 -0.3683
 2948TIP3    H230336   4.460   0.717   1.302  0.2079 -1.4319  1.3448
 2949TIP3   OH230337   3.745   5.945   2.137 -0.2193 -0.6295 -0.4788
 2949TIP3    H130338   3.665   5.987   2.168  0.1476 -1.0320  1.0635
 2949TIP3    H230339   3.748   5.861   2.182  1.0206 -0.6661 -0.6031
 2950TIP3   OH230340   4.531   1.212  15.883  0.1463 -0.1522 -0.5535
 2950TIP3    H130341   4.478   1.174  15.813 -2.3596 -1.7142  1.9726
 2950TIP3    H230342   4.591   1.142  15.908 -1.5887 -1.0714  1.2922
 2951TIP3   OH230343   2.742   1.726  14.843 -1.0041 -0.1595 -0.0979
 2951TIP3    H130344   2.699   1.773  14.771 -1.1985 -0.3368 -0.0982
 2951TIP3    H230345   2.743   1.788  14.915  1.0126  0.7591 -0.8485
 2952TIP3   OH230346   0.552   4.060   3.100 -0.4487  0.0565  0.1703
 2952TIP3    H130347   0.558   3.968   3.076 -1.3721  0.1273 -0.4202
 2952TIP3    H230348   0.546   4.106   3.016 -1.5850  0.5015  0.4711
 2953TIP3   OH230349   5.629   6.467   5.408 -0.0260 -0.0087  0.0827
 2953TIP3    H130350   5.544   6.423   5.405 -0.1658  0.3055 -1.6648
 2953TIP3    H230351   5.684   6.409   5.460 -0.8091 -1.1458 -0.3177
 2954TIP3   OH230352   3.072   6.183  15.152 -0.0182  0.0586  0.3591
 2954TIP3    H130353   2.978   6.172  15.137 -0.0263 -0.3550  0.7117
 2954TIP3    H230354   3.103   6.228  15.073 -0.2183 -1.2872 -0.5227
 2955TIP3   OH230355   3.002   4.785  13.011  0.4325 -0.1043 -0.2261
 2955TIP3    H130356   3.052   4.845  13.066  0.8940  0.3595 -1.1401
 2955TIP3    H230357   2.927   4.761  13.065  0.4064  1.0310  0.2724
 2956TIP3   OH230358   3.325   2.363  13.167 -0.0623 -0.1866  0.7531
 2956TIP3    H130359   3.303   2.353  13.259 -0.1942 -0.5054  0.6848
 2956TIP3    H230360   3.296   2.282  13.125  0.8715 -0.4608  0.5980
 2957TIP3   OH230361   1.498   4.277   2.065  0.3431  0.0817  0.0990
 2957TIP3    H130362   1.559   4.245   2.131  1.0756 -0.2899 -0.7309
 2957TIP3    H230363   1.551   4.283   1.985 -0.6854 -0.1822 -0.6238
 2958TIP3   OH230364   4.085   0.835   6.690 -0.0681 -0.3766 -0.4146
 2958TIP3    H130365   4.169   0.880   6.678  0.1850 -0.9630 -0.9201
 2958TIP3    H230366   4.107   0.742   6.689 -0.3469 -0.5594  2.3793
 2959TIP3   OH230367   3.918   4.924   1.011 -0.3252  0.3967  0.0331
 2959TIP3    H130368   3.966   4.995   1.055  1.1059  0.9842 -2.2675
 2959TIP3    H230369   3.986   4.873   0.967 -1.5445 -1.0473 -0.2519
 2960TIP3   OH230370   5.036   5.044  15.700  0.4242  0.0817  0.1140
 2960TIP3    H130371   4.949   5.084  15.697  1.0225  1.4408 -2.9327
 2960TIP3    H230372   5.093   5.113  15.733  0.6027 -0.2940  0.6110
 2961TIP3   OH230373   3.291   0.080   1.463  0.4320  0.1845  0.1774
 2961TIP3    H130374   3.377   0.073   1.421  0.5133  1.4236  0.1170
 2961TIP3    H230375   3.235   0.022   1.411  1.2285 -0.7016  0.2631
 2962TIP3   OH230376   1.917   3.749   4.318 -0.5649 -0.1663 -0.5314
 2962TIP3    H130377   1.962   3.817   4.370  1.6289 -0.3956 -2.0284
 2962TIP3    H230378   1.895   3.682   4.382  1.7500 -0.2795  0.2568
 2963TIP3   OH230379   3.678   3.175   2.366 -0.4393  0.1847 -0.6154
 2963TIP3    H130380   3.738   3.103   2.382 -0.7252 -0.0339 -0.5076
 2963TIP3    H230381   3.689   3.196   2.273 -0.2872  0.0671 -0.6241
 2964TIP3   OH230382   0.546   0.588  17.146  0.8587  0.1245  0.0976
 2964TIP3    H130383   0.634   0.559  17.172  0.9758  1.0864  0.8207
 2964TIP3    H230384   0.494   0.582  17.226 -0.7350 -3.7966 -0.9965
 2965TIP3   OH230385   3.632   4.094  12.634 -0.5817  0.2611 -0.0310
 2965TIP3    H130386   3.650   4.187  12.652 -1.2944  0.2563  0.7509
 2965TIP3    H230387   3.546   4.079  12.672  0.4954 -1.3239  1.9928
 2966TIP3   OH230388   0.186   4.789  16.305  0.6746  0.4674  0.4692
 2966TIP3    H130389   0.150   4.874  16.281  1.4095  0.9684  1.0812
 2966TIP3    H230390   0.242   4.765  16.231  0.0211  0.2338  0.0407
 2967TIP3   OH230391   4.208   0.007   1.668  0.4855 -0.5919 -0.2524
 2967TIP3    H130392   4.271  -0.064   1.664  0.6467 -0.6255  1.6643
 2967TIP3    H230393   4.131  -0.033   1.709 -0.0902 -0.0935 -0.8353
 2968TIP3   OH230394   6.041   1.599  16.048 -0.1648  0.0529  0.4031
 2968TIP3    H130395   6.115   1.554  16.089 -0.8247  0.0667  1.6761
 2968TIP3    H230396   6.049   1.690  16.077 -2.6680 -0.5911  3.7718
 2969TIP3   OH230397   1.031   1.725  14.583 -0.3692  0.3555  0.5024
 2969TIP3    H130398   0.939   1.744  14.568  0.3119  3.0931 -0.8251
 2969TIP3    H230399   1.060   1.678  14.504 -0.8207 -1.6341  1.4489
 2970TIP3   OH230400   2.182   3.240  11.442 -0.0641  0.3636 -0.0706
 2970TIP3    H130401   2.172   3.183  11.519  1.3533 -0.0648 -0.1726
 2970TIP3    H230402   2.226   3.185  11.377 -0.0084  1.1425 -0.7092
 2971TIP3   OH230403   2.073   3.503  16.084 -0.2746  0.4033  0.4144
 2971TIP3    H130404   1.989   3.545  16.064 -0.1285  0.2178 -0.6497
 2971TIP3    H230405   2.137   3.553  16.035  0.0000 -0.5501 -0.2475
 2972TIP3   OH230406   3.328   3.620   0.736  0.1489  0.3322  0.0288
 2972TIP3    H130407   3.300   3.617   0.645 -1.0022 -0.9704  0.3999
 2972TIP3    H230408   3.276   3.690   0.775  0.4404  0.7026 -0.2424
 2973TIP3   OH230409   3.159   5.002  15.418 -0.0137  0.2042  0.3158
 2973TIP3    H130410   3.249   5.014  15.386  0.4032 -0.6382  1.1560
 2973TIP3    H230411   3.114   5.082  15.389  0.9132  0.4965 -0.3974
 2974TIP3   OH230412   3.299   0.140   2.774  0.2341  0.2595 -0.1224
 2974TIP3    H130413   3.381   0.176   2.740  0.3800  0.1127  0.0727
 2974TIP3    H230414   3.236   0.154   2.704  0.5714 -0.2057 -0.5265
 2975TIP3   OH230415   6.057   3.780   4.471 -0.2019  0.0515 -1.0630
 2975TIP3    H130416   5.998   3.841   4.516 -0.9363 -0.6942 -0.9996
 2975TIP3    H230417   6.067   3.707   4.531  2.2938  0.9548 -0.2561
 2976TIP3   OH230418   1.200   1.995   0.379 -0.4321 -0.0918 -0.2587
 2976TIP3    H130419   1.166   2.060   0.318 -0.0656  0.4485  0.1096
 2976TIP3    H230420   1.281   1.964   0.339  0.8945  1.7184  0.8577
 2977TIP3   OH230421   1.847   0.696  13.518  0.2475 -0.4290  0.2926
 2977TIP3    H130422   1.932   0.740  13.533  0.4877 -0.2223 -1.4400
 2977TIP3    H230423   1.783   0.753  13.561  0.9796 -0.5567  1.5788
 2978TIP3   OH230424   0.067   6.476  13.039  0.0181  0.4883 -0.1795
 2978TIP3    H130425   0.114   6.557  13.057  1.5901  0.1704 -2.4101
 2978TIP3    H230426   0.001   6.501  12.973  0.1763  0.0654 -0.5024
 2979TIP3   OH230427   0.409   2.814   6.050  0.1953 -0.5984  0.2602
 2979TIP3    H130428   0.398   2.908   6.040 -1.7072 -1.0136 -3.0975
 2979TIP3    H230429   0.458   2.804   6.132  3.1740  3.3714 -0.7285
 2980TIP3   OH230430   5.966   0.155   5.894  0.3333  0.1558 -0.0405
 2980TIP3    H130431   5.971   0.087   5.961  0.2796  0.5242  0.3376
 2980TIP3    H230432   5.986   0.236   5.940 -0.7982  0.5661 -0.2344
 2981TIP3   OH230433   3.622   5.108   2.735  0.5941 -0.8503 -0.3703
 2981TIP3    H130434   3.559   5.180   2.737 -2.2565 -3.1512  0.8178
 2981TIP3    H230435   3.651   5.099   2.826  0.8915 -1.2206 -0.5018
 2982TIP3   OH230436   5.003   2.193   3.477 -0.1521  0.0221 -0.3591
 2982TIP3    H130437   4.981   2.117   3.422  0.9198 -1.3946  1.0669
 2982TIP3    H230438   5.042   2.155   3.555  1.2164  2.1151  0.0476
 2983TIP3   OH230439   3.521   2.078  14.572  0.1437  0.4578 -0.5247
 2983TIP3    H130440   3.503   1.994  14.531  2.2807 -0.2046 -0.2453
 2983TIP3    H230441   3.506   2.063  14.665  3.4684 -0.6524 -0.0308
 2984TIP3   OH230442   6.542   4.880  16.957  0.0479 -0.6406 -0.4354
 2984TIP3    H130443   6.467   4.899  17.015 -0.6302 -0.3297 -1.3811
 2984TIP3    H230444   6.600   4.825  17.009 -0.2837  0.0752  0.7290
 2985TIP3   OH230445   4.601   4.278   4.175 -0.3482  0.0053 -0.0296
 2985TIP3    H130446   4.572   4.309   4.089 -0.5291 -4.0714 -1.6446
 2985TIP3    H230447   4.523   4.239   4.215  0.2448 -0.1714  1.0086
 2986TIP3   OH230448   5.318   4.444   3.966 -0.2245 -0.4469 -0.2506
 2986TIP3    H130449   5.330   4.527   3.920  1.3935 -1.4765 -1.8250
 2986TIP3    H230450   5.324   4.466   4.059  0.9815  1.0865 -0.6677
 2987TIP3   OH230451   2.958   4.227   5.815 -0.1070 -0.4783  0.2011
 2987TIP3    H130452   2.870   4.218   5.778 -0.1459 -0.3163  0.2525
 2987TIP3    H230453   2.960   4.317   5.849 -0.0935 -0.6389  0.6408
 2988TIP3   OH230454   3.159   0.577  16.999  0.0929  0.4270 -0.0620
 2988TIP3    H130455   3.249   0.609  16.995 -0.7472  2.8972 -1.3335
 2988TIP3    H230456   3.138   0.553  16.909 -0.6141  0.1494  0.1704
 2989TIP3   OH230457   5.414   4.573  12.491 -0.3135  0.0330  0.7920
 2989TIP3    H130458   5.441   4.512  12.423  2.9699 -2.3454  3.8788
 2989TIP3    H230459   5.420   4.659  12.450  0.8282 -1.2898 -2.0764
 2990TIP3   OH230460   2.536   6.261   6.084 -0.0381  0.1099  0.4105
 2990TIP3    H130461   2.466   6.323   6.066  0.7797  0.7479 -0.7620
 2990TIP3    H230462   2.616   6.307   6.055  0.8871 -0.5010  1.9050
 2991TIP3   OH230463   2.668   1.632   0.256  0.3054 -0.1894  0.7689
 2991TIP3    H130464   2.742   1.668   0.208 -0.8083  0.6331 -0.3993
 2991TIP3    H230465   2.681   1.537   0.252  1.1019 -0.0640  0.2470
 2992TIP3   OH230466   0.947   1.181   1.493  0.1130 -0.0501 -0.0785
 2992TIP3    H130467   0.869   1.201   1.545 -0.0443 -1.0765  0.1176
 2992TIP3    H230468   0.998   1.123   1.549  1.1611  0.8251 -0.1043
 2993TIP3   OH230469   0.414   2.674  13.545  0.1706  0.5060  0.0065
 2993TIP3    H130470   0.485   2.621  13.509  0.0235  0.0668  0.3510
 2993TIP3    H230471   0.351   2.610  13.578  0.2112  0.8914  0.8630
 2994TIP3   OH230472   5.907   4.362   6.033 -0.2688 -0.4069 -0.7346
 2994TIP3    H130473   5.925   4.449   5.998  0.3292 -0.0560  0.3850
 2994TIP3    H230474   5.971   4.351   6.104 -1.9087 -0.7650  0.7556
 2995TIP3   OH230475   3.713   4.089  12.381 -0.6107 -1.0195 -0.2678
 2995TIP3    H130476   3.633   4.140  12.369 -2.2962 -3.5806 -0.6677
 2995TIP3    H230477   3.718   4.075  12.476  0.2692  0.3648 -0.0659
 2996TIP3   OH230478   6.393   6.178  14.603  0.2996  0.1087 -0.4001
 2996TIP3    H130479   6.428   6.264  14.627  0.5797  0.3571 -1.6627
 2996TIP3    H230480   6.429   6.119  14.670  1.1092  0.7669 -0.2331
 2997TIP3   OH230481   3.836   4.435  11.224  0.0423 -0.3797 -0.0069
 2997TIP3    H130482   3.874   4.508  11.272  1.7621 -1.4515  0.3187
 2997TIP3    H230483   3.888   4.429  11.144  0.7937 -2.0281  0.5616
 2998TIP3   OH230484   0.091   2.741  13.512 -0.4597  0.4480 -0.5374
 2998TIP3    H130485   0.104   2.817  13.570  0.3827  0.1598 -0.3448
 2998TIP3    H230486   0.166   2.685  13.529 -0.4951  0.0995 -1.5173
 2999TIP3   OH230487   3.630   2.105   0.725  0.5214  0.3007  0.0585
 2999TIP3    H130488   3.537   2.090   0.712  0.4423 -2.0414  2.4235
 2999TIP3    H230489   3.672   2.063   0.649 -0.2871  0.7088 -0.6305
 3000TIP3   OH230490   1.460   4.754   5.988 -0.3758 -0.0192 -0.2351
 3000TIP3    H130491   1.517   4.815   5.942 -0.6943  0.4374 -0.0379
 3000TIP3    H230492   1.515   4.716   6.056 -0.1077 -0.1386 -0.5184
 3001TIP3   OH230493   1.387   0.112  15.826  0.0560 -0.0784  0.6402
 3001TIP3    H130494   1.482   0.104  15.828  0.0635  0.0857  1.7762
 3001TIP3    H230495   1.357   0.067  15.905 -0.8655 -0.7034 -0.0466
 3002TIP3   OH230496   3.200   2.072  15.073 -0.0350  0.3110  0.0034
 3002TIP3    H130497   3.163   2.017  15.142  2.0423 -1.3550 -0.1148
 3002TIP3    H230498   3.187   2.022  14.993 -0.4854  1.2535 -0.5360
 3003TIP3   OH230499   2.999   4.428  15.277 -0.2438 -0.1650 -0.2223
 3003TIP3    H130500   3.054   4.373  15.332 -1.1343 -0.5293  0.3084
 3003TIP3    H230501   2.915   4.431  15.321 -0.1225  1.9371 -0.0296
 3004TIP3   OH230502   3.527   2.043  12.365 -0.1122  0.1972  0.0262
 3004TIP3    H130503   3.551   2.074  12.452 -0.3213  0.8540 -0.1457
 3004TIP3    H230504   3.454   2.099  12.339 -1.0707 -0.9997  0.0581
 3005TIP3   OH230505   2.100   0.991   5.742 -0.2380  0.3863 -0.2444
 3005TIP3    H130506   2.081   0.995   5.649 -1.1099 -0.0854 -0.0934
 3005TIP3    H230507   2.041   1.056   5.781 -1.0284 -0.5477  0.1455
 3006TIP3   OH230508   5.636   1.892   4.163 -0.2992  0.2446  0.0796
 3006TIP3    H130509   5.672   1.972   4.201 -0.4135  0.6367 -0.6224
 3006TIP3    H230510   5.664   1.822   4.223  0.3876  0.7227  0.3278
 3007TIP3   OH230511   3.988   6.509  13.929  0.0029 -0.1915 -0.0578
 3007TIP3    H130512   3.926   6.510  13.856 -1.0595 -0.1115  0.8083
 3007TIP3    H230513   3.957   6.577  13.988 -0.0132 -1.1832  1.1370
 3008TIP3   OH230514   2.068   6.368   0.625 -0.4269 -0.4513 -0.7628
 3008TIP3    H130515   2.007   6.414   0.683 -1.2551 -0.2008 -1.7916
 3008TIP3    H230516   2.050   6.275   0.641  2.1799 -0.5865  2.3056
 3009TIP3   OH230517   5.784   1.580  16.232 -0.1057  0.0246  0.9096
 3009TIP3    H130518   5.832   1.523  16.293 -0.1569  0.2242  1.1383
 3009TIP3    H230519   5.823   1.666  16.246 -0.1481  0.0782  0.6876
 3010TIP3   OH230520   5.835   1.902   1.807 -0.1413  0.0735 -0.3985
 3010TIP3    H130521   5.924   1.937   1.812 -0.5661  1.2790 -0.7722
 3010TIP3    H230522   5.827   1.869   1.718  0.1527 -0.6946 -0.1473
 3011TIP3   OH230523   6.755   6.369   0.836  0.3228 -0.5791  0.2974
 3011TIP3    H130524   6.830   6.427   0.823 -1.1330  1.4123  0.4757
 3011TIP3    H230525   6.695   6.389   0.764 -0.2524 -1.8480  0.3881
 3012TIP3   OH230526   3.337   5.178   2.200  0.4270 -0.1540  0.1394
 3012TIP3    H130527   3.258   5.125   2.209  0.1322  0.3113  0.3138
 3012TIP3    H230528   3.362   5.168   2.108  0.9459 -1.3983  0.3990
 3013TIP3   OH230529   5.779   4.091  13.434 -0.0358  0.1994  0.0412
 3013TIP3    H130530   5.865   4.075  13.397 -0.6159 -2.8338 -0.1925
 3013TIP3    H230531   5.730   4.011  13.418 -2.0199  0.7576  2.6710
 3014TIP3   OH230532   4.465   5.697   2.414 -0.1367  0.3627  0.1037
 3014TIP3    H130533   4.413   5.714   2.335 -0.2123  0.3838  0.1582
 3014TIP3    H230534   4.447   5.772   2.471 -1.0635 -0.2649  0.6553
 3015TIP3   OH230535   3.116   0.141  12.942  0.1914 -0.1549  0.5631
 3015TIP3    H130536   3.138   0.203  13.011 -1.7271  0.1756  0.9316
 3015TIP3    H230537   3.020   0.143  12.937  0.1722 -1.8082 -0.6037
 3016TIP3   OH230538   5.042   3.798   2.980  0.3854  0.8570 -0.4017
 3016TIP3    H130539   4.948   3.778   2.981  0.9856 -2.6148  0.5423
 3016TIP3    H230540   5.055   3.857   3.054 -0.9690  1.0139 -0.2537
 3017TIP3   OH230541   0.639   6.546   5.850 -0.6791  0.4421  0.2637
 3017TIP3    H130542   0.600   6.584   5.772  4.6578  0.9956 -2.6186
 3017TIP3    H230543   0.624   6.610   5.919 -1.8090  2.1010 -1.4415
 3018TIP3   OH230544   4.660   1.269  16.693  0.2864  0.3276  0.0597
 3018TIP3    H130545   4.704   1.272  16.608 -0.7364  0.6145 -0.4813
 3018TIP3    H230546   4.697   1.192  16.737  1.3018  0.5534 -0.3652
 3019TIP3   OH230547   6.572   0.328   6.727  0.3416 -0.2548  0.0196
 3019TIP3    H130548   6.517   0.354   6.801  1.6189 -2.2904  1.8155
 3019TIP3    H230549   6.587   0.234   6.740 -0.7002 -1.1252 -3.7835
 3020TIP3   OH230550   2.932   5.467   5.288 -0.8159 -0.0000 -0.3944
 3020TIP3    H130551   2.925   5.441   5.380 -2.7935 -2.0279 -1.0309
 3020TIP3    H230552   2.974   5.392   5.245  0.3369  1.0310 -1.1550
 3021TIP3   OH230553   3.915   0.537   4.333  0.6211 -0.0293  0.1284
 3021TIP3    H130554   3.982   0.593   4.292 -1.8375  1.5454 -2.1433
 3021TIP3    H230555   3.872   0.494   4.259 -1.2365 -0.5130  1.4238
 3022TIP3   OH230556   0.749   0.745   0.714 -0.2496  0.1989  0.4751
 3022TIP3    H130557   0.814   0.676   0.730 -0.9489 -0.3789  0.8870
 3022TIP3    H230558   0.727   0.736   0.621 -0.9605 -0.7099  0.7118
 3023TIP3   OH230559   4.450   3.413  13.571  0.1534  0.0352 -0.2574
 3023TIP3    H130560   4.391   3.435  13.644  1.6132  1.7604  0.4940
 3023TIP3    H230561   4.409   3.453  13.495 -0.0079  0.6438  0.1354
 3024TIP3   OH230562   2.994   3.759  16.426 -0.3165 -0.3003 -0.5461
 3024TIP3    H130563   2.951   3.772  16.341  0.5444  2.1020 -0.6648
 3024TIP3    H230564   2.981   3.841  16.472  0.5242 -1.0532  1.0927
 3025TIP3   OH230565   3.968   2.091   3.019 -0.2890 -0.5001 -0.6114
 3025TIP3    H130566   3.892   2.133   2.980  0.1234 -0.3239 -1.2380
 3025TIP3    H230567   4.010   2.045   2.946  1.1127  0.7518 -0.6334
 3026TIP3   OH230568   5.326   3.776   0.102 -0.3613 -0.0052  0.0997
 3026TIP3    H130569   5.418   3.793   0.082 -0.5497 -0.2372 -1.0434
 3026TIP3    H230570   5.299   3.711   0.037 -0.4967 -2.3992  2.3710
 3027TIP3   OH230571   6.040   6.700   1.743 -0.1310 -0.6814 -0.0201
 3027TIP3    H130572   6.055   6.788   1.708  1.1002 -0.9472 -0.2076
 3027TIP3    H230573   6.111   6.647   1.707 -0.5113 -1.6246  0.5671
 3028TIP3   OH230574   5.099   4.018   2.037 -0.3891 -0.0332 -0.6091
 3028TIP3    H130575   5.193   4.027   2.054 -0.1877 -0.2675 -1.5541
 3028TIP3    H230576   5.058   4.045   2.119  0.5176 -0.5371  0.0355
 3029TIP3   OH230577   6.665   0.256  15.949  0.4839  0.3661  0.2271
 3029TIP3    H130578   6.679   0.179  16.004 -1.7810  0.0957  0.5457
 3029TIP3    H230579   6.748   0.304  15.952  1.5621 -1.4528  0.9608
 3030TIP3   OH230580   0.234   4.457  14.096  0.3392  0.0508 -0.5172
 3030TIP3    H130581   0.282   4.534  14.127  0.4753 -0.0748 -0.4180
 3030TIP3    H230582   0.149   4.463  14.138 -0.5005  1.3798 -2.2555
 3031TIP3   OH230583   5.799   5.979  16.968  0.5813  0.2661  0.1515
 3031TIP3    H130584   5.794   6.060  16.918 -2.0184 -0.3504 -0.7460
 3031TIP3    H230585   5.869   5.928  16.926  1.6195  1.6447  0.1605
 3032TIP3   OH230586   0.024   5.714  11.879 -0.3019 -0.2353  0.1192
 3032TIP3    H130587   0.086   5.775  11.919  0.9232 -1.1469 -0.2965
 3032TIP3    H230588   0.073   5.674  11.807 -1.3432 -1.0810 -0.1506
 3033TIP3   OH230589   6.151   1.719   2.672 -0.3171  0.1791 -0.0893
 3033TIP3    H130590   6.144   1.767   2.589 -0.9402  0.6656  0.2383
 3033TIP3    H230591   6.060   1.699   2.696 -0.1836  0.5744  0.7821
 3034TIP3   OH230592   3.412   6.405  13.410 -0.6322 -0.1142  0.1721
 3034TIP3    H130593   3.388   6.350  13.336 -0.0995  1.9541 -1.6424
 3034TIP3    H230594   3.499   6.439  13.388 -0.7158  1.0374  1.4495
 3035TIP3   OH230595   2.426   1.283   5.234 -0.1235  0.5291 -0.0933
 3035TIP3    H130596   2.495   1.242   5.183  1.1612  1.5589  0.7586
 3035TIP3    H230597   2.345   1.264   5.186  1.0003  1.3605 -2.4283
 3036TIP3   OH230598   4.671   1.627  11.059 -0.1755  0.1569 -0.2267
 3036TIP3    H130599   4.720   1.661  10.984 -0.7692 -0.1377 -0.7590
 3036TIP3    H230600   4.722   1.551  11.088 -0.4036 -0.2726 -0.9050
 3037TIP3   OH230601   0.219   3.045  12.416  0.2119  0.2470  0.1871
 3037TIP3    H130602   0.305   3.021  12.382  1.3906  0.8177  2.5756
 3037TIP3    H230603   0.233   3.061  12.509 -2.6296 -0.3117  0.8139
 3038TIP3   OH230604   4.493   5.361   5.398  0.3299  0.0941  0.6729
 3038TIP3    H130605   4.457   5.403   5.477  0.9260 -2.4379  2.3989
 3038TIP3    H230606   4.571   5.412   5.378  0.1839  0.7784  1.7193
 3039TIP3   OH230607   2.666   5.798  12.157 -0.0417 -0.3922 -0.2527
 3039TIP3    H130608   2.573   5.818  12.154 -0.2015 -0.7642  1.4337
 3039TIP3    H230609   2.706   5.877  12.194  0.1345 -0.7454  0.3177
 3040TIP3   OH230610   1.645   5.168  13.178 -0.6394  0.4320 -0.0186
 3040TIP3    H130611   1.728   5.151  13.223 -0.7145  0.3442  0.0897
 3040TIP3    H230612   1.656   5.255  13.139 -0.2243  0.1049 -0.6365
 3041TIP3   OH230613   4.863   4.533   5.900  0.1826 -0.0544  0.1413
 3041TIP3    H130614   4.835   4.557   5.812 -3.2831 -0.6799  0.9451
 3041TIP3    H230615   4.882   4.616   5.943 -1.7912  0.5658 -0.1052
 3042TIP3   OH230616   5.686   3.004   5.077 -0.6511 -0.3044  0.0023
 3042TIP3    H130617   5.691   3.046   5.162 -1.0834  1.3751 -0.7566
 3042TIP3    H230618   5.597   2.968   5.073 -1.0346  0.6287 -0.1649
 3043TIP3   OH230619   6.698   5.845   1.967  0.0532  0.3684  0.3911
 3043TIP3    H130620   6.657   5.901   1.901 -2.0073  0.6439  1.8150
 3043TIP3    H230621   6.722   5.765   1.919 -0.2511  1.0290 -0.9181
 3044TIP3   OH230622   6.423   6.069   1.399 -0.7966 -0.0651  0.3095
 3044TIP3    H130623   6.518   6.076   1.402 -0.7856 -0.1343  0.1425
 3044TIP3    H230624   6.398   6.120   1.321 -1.0161  1.2539  1.2036
 3045TIP3   OH230625   5.341   6.288   1.388  0.4662  0.8969 -0.8073
 3045TIP3    H130626   5.416   6.230   1.370  0.6742  0.9078 -0.0184
 3045TIP3    H230627   5.365   6.371   1.347  1.9226  1.5947  1.2716
 3046TIP3   OH230628   5.995   0.383   1.996 -0.3020 -0.2125 -0.0395
 3046TIP3    H130629   5.975   0.449   1.930  0.2898 -1.6091 -1.6921
 3046TIP3    H230630   5.925   0.319   1.988 -0.8343  0.1523  1.4939
 3047TIP3   OH230631   2.713   0.473   5.549 -0.2147  0.6065  0.3634
 3047TIP3    H130632   2.733   0.430   5.631  1.5677  0.6232 -0.0245
 3047TIP3    H230633   2.619   0.489   5.552 -0.6643 -1.8206  1.2226
 3048TIP3   OH230634   0.193   2.502  13.587  0.3348  0.1240  0.1595
 3048TIP3    H130635   0.138   2.472  13.659 -3.2835  0.0147 -2.3748
 3048TIP3    H230636   0.198   2.427  13.528 -1.2384  1.6174 -2.0380
 3049TIP3   OH230637   4.312   3.090   5.388  0.8395  0.3003  0.4499
 3049TIP3    H130638   4.400   3.077   5.353  0.0041 -3.4064 -0.6820
 3049TIP3    H230639   4.258   3.110   5.312  0.4149  0.8696  0.8884
 3050TIP3   OH230640   4.610   3.632  12.441  0.2878 -0.3506 -0.1718
 3050TIP3    H130641   4.652   3.610  12.358 -0.1200  1.4189 -0.8913
 3050TIP3    H230642   4.518   3.609  12.429 -0.2685  2.0943 -1.1556
 3051TIP3   OH230643   0.994   2.214   2.876  0.2294  0.5512  0.0694
 3051TIP3    H130644   1.019   2.188   2.965 -1.0654  0.7612  0.5242
 3051TIP3    H230645   1.010   2.136   2.823  0.5834  0.2712  0.5702
 3052TIP3   OH230646   2.556   0.891  12.080 -0.3939 -0.2160  0.3102
 3052TIP3    H130647   2.513   0.962  12.127 -0.4647 -0.9702  1.4361
 3052TIP3    H230648   2.649   0.906  12.092 -0.4158 -0.5679  0.9639
 3053TIP3   OH230649   1.544   3.732   1.559 -0.0693  0.7292 -0.4357
 3053TIP3    H130650   1.598   3.671   1.608 -1.4431  0.6579  1.0555
 3053TIP3    H230651   1.454   3.704   1.576 -0.6379  1.2377 -2.3179
 3054TIP3   OH230652   3.015   0.581  15.343 -0.0655  0.1892  0.9589
 3054TIP3    H130653   3.051   0.589  15.255 -2.7250 -0.2077 -0.2795
 3054TIP3    H230654   3.081   0.533  15.392  2.4170  2.1983 -0.1694
 3055TIP3   OH230655   3.044   1.797  11.697  0.4659 -0.3054  0.5079
 3055TIP3    H130656   2.955   1.773  11.723 -0.2394  0.7996 -0.7495
 3055TIP3    H230657   3.070   1.864  11.761 -0.3765  0.7468 -0.2004
 3056TIP3   OH230658   5.701   3.303   3.232  0.8808 -0.3849  0.0169
 3056TIP3    H130659   5.715   3.216   3.196  1.7219 -0.7848  1.2311
 3056TIP3    H230660   5.768   3.312   3.300  0.3951  0.9551  0.3603
 3057TIP3   OH230661   2.314   4.718   3.289 -0.0500  0.6472 -1.3543
 3057TIP3    H130662   2.241   4.693   3.233 -1.2541 -0.8897  0.7511
 3057TIP3    H230663   2.273   4.760   3.365  1.2068 -0.3835 -0.0431
 3058TIP3   OH230664   3.948   3.089   4.168  0.1628  0.5159 -0.2009
 3058TIP3    H130665   3.917   3.003   4.140  0.4455  0.4027 -0.1630
 3058TIP3    H230666   3.913   3.101   4.256 -0.2861  0.6483 -0.3930
 3059TIP3   OH230667   1.365   6.114  15.152 -0.4733  0.0480 -0.5250
 3059TIP3    H130668   1.422   6.042  15.125 -1.9086 -1.5931  0.6248
 3059TIP3    H230669   1.292   6.111  15.090 -0.2668  0.9259 -0.8307
 3060TIP3   OH230670   4.452   0.377   2.846  0.5912  0.4404 -0.4375
 3060TIP3    H130671   4.418   0.362   2.758 -2.7891 -1.0677  0.9911
 3060TIP3    H230672   4.456   0.472   2.854  0.0864  0.6057 -1.8953
 3061TIP3   OH230673   0.042   0.645   0.210  0.3652  0.3943  0.2225
 3061TIP3    H130674   0.077   0.732   0.229 -1.1372  0.8959  0.8326
 3061TIP3    H230675   0.003   0.654   0.123  1.5092 -0.0926 -0.3508
 3062TIP3   OH230676   3.974   3.177   4.592 -0.1054  0.1883  0.1276
 3062TIP3    H130677   3.956   3.214   4.678  0.7340  1.0326 -0.0488
 3062TIP3    H230678   4.048   3.118   4.606 -0.6736 -0.5239  0.1815
 3063TIP3   OH230679   6.466   5.549   3.372 -0.0720 -0.5604 -0.3346
 3063TIP3    H130680   6.502   5.491   3.438  0.3664  0.2812  0.1930
 3063TIP3    H230681   6.539   5.564   3.311  0.0059 -0.0928 -0.1328
 3064TIP3   OH230682   0.054   2.939   4.234 -0.3396  0.2725 -0.4977
 3064TIP3    H130683   0.023   3.027   4.256  0.0903 -0.3957  3.7236
 3064TIP3    H230684   0.149   2.945   4.236 -0.2386  0.1036 -2.5753
 3065TIP3   OH230685   4.013   2.458  14.914  0.6724  0.4627  0.1207
 3065TIP3    H130686   3.995   2.426  14.826 -0.6263  0.5614  0.3249
 3065TIP3    H230687   3.930   2.494  14.944  1.6537  2.4907  0.5596
 3066TIP3   OH230688   4.890   1.774  13.048 -0.5904 -0.2107  0.6265
 3066TIP3    H130689   4.833   1.750  12.976  0.0778  0.4372 -0.1319
 3066TIP3    H230690   4.951   1.700  13.056  0.8900  0.7517 -1.1089
 3067TIP3   OH230691   5.546   4.126   3.274  0.5449 -0.1947  0.0912
 3067TIP3    H130692   5.581   4.139   3.362 -0.3770 -0.7528  0.5584
 3067TIP3    H230693   5.509   4.211   3.249 -0.6567 -0.4359  0.9339
 3068TIP3   OH230694   0.519   2.189  11.645 -0.2512 -0.0458  0.6873
 3068TIP3    H130695   0.485   2.157  11.728 -1.3669  0.4338  0.4270
 3068TIP3    H230696   0.470   2.270  11.628 -2.8321 -2.0102 -2.2696
 3069TIP3   OH230697   0.332   1.103  12.291  0.2503 -0.1260  0.0632
 3069TIP3    H130698   0.345   1.167  12.361 -1.9557 -0.2383  0.6624
 3069TIP3    H230699   0.333   1.155  12.211 -1.6911  0.7564  0.5550
 3070TIP3   OH230700   5.414   6.160   5.190 -0.2359 -0.3862 -0.2422
 3070TIP3    H130701   5.467   6.081   5.185  0.5960  0.2350 -2.3187
 3070TIP3    H230702   5.433   6.197   5.277  3.3442  0.1685 -1.1130
 3071TIP3   OH230703   2.079   4.305   0.992  0.2518 -0.2100  0.6603
 3071TIP3    H130704   2.164   4.336   1.021 -0.0505  0.8815  0.4563
 3071TIP3    H230705   2.090   4.211   0.977  1.3587 -0.1094  0.8096
 3072TIP3   OH230706   0.009   4.892  11.718  0.0965  0.0681 -0.0644
 3072TIP3    H130707   0.036   4.802  11.737 -1.9775 -0.9288 -1.3929
 3072TIP3    H230708  -0.010   4.891  11.624  0.3809  2.0179 -0.1715
 3073TIP3   OH230709   1.444   5.247   3.827 -0.0274 -0.0543 -0.2422
 3073TIP3    H130710   1.385   5.320   3.842  1.6133  0.9769  1.7264
 3073TIP3    H230711   1.494   5.271   3.749 -1.8685 -0.7930 -1.7338
 3074TIP3   OH230712   2.383   0.692  13.248 -0.2704  0.6014 -0.1691
 3074TIP3    H130713   2.447   0.744  13.200 -1.6252  0.9349 -1.7072
 3074TIP3    H230714   2.394   0.720  13.339  3.0471 -0.7509  0.0032
 3075TIP3   OH230715   1.452   3.972  12.692 -0.3139 -0.2094 -0.3635
 3075TIP3    H130716   1.477   3.881  12.679  0.2855 -0.4228  1.8141
 3075TIP3    H230717   1.480   4.017  12.613 -0.6024 -1.9001 -1.4615
 3076TIP3   OH230718   3.778   1.831  16.151  0.0386  0.4348 -0.3075
 3076TIP3    H130719   3.763   1.897  16.219  2.5410  1.5040 -0.6589
 3076TIP3    H230720   3.853   1.781  16.183 -1.1265 -1.5570 -0.5835
 3077TIP3   OH230721   0.098   3.593  15.613  0.2435  0.5544 -0.0859
 3077TIP3    H130722   0.100   3.537  15.536  0.4574 -0.8513  0.8853
 3077TIP3    H230723   0.174   3.651  15.603  0.5565  0.0550 -0.6962
 3078TIP3   OH230724   5.913   5.325   5.138  0.3725  0.3083  0.1376
 3078TIP3    H130725   5.931   5.330   5.044 -1.9722 -1.3026 -0.4985
 3078TIP3    H230726   5.949   5.241   5.166 -2.1015 -0.9967 -0.2545
 3079TIP3   OH230727   3.901   5.381   4.853 -0.0742 -0.5652  0.1661
 3079TIP3    H130728   3.973   5.322   4.830  0.4956  0.2089 -0.1006
 3079TIP3    H230729   3.937   5.437   4.922  0.4460  1.4239 -1.6061
 3080TIP3   OH230730   5.511   2.043   2.653  0.0380 -0.0540 -0.6018
 3080TIP3    H130731   5.488   2.050   2.561  0.2540  2.5181 -0.5329
 3080TIP3    H230732   5.587   2.100   2.664 -1.0459  1.1344  1.4584
 3081TIP3   OH230733   2.836   3.281  14.380  0.0970 -0.1788 -0.5809
 3081TIP3    H130734   2.823   3.199  14.427  2.1181 -0.0540  0.2981
 3081TIP3    H230735   2.756   3.331  14.396  0.2217 -0.6072  1.7872
 3082TIP3   OH230736   5.474   4.302   5.709 -0.0041 -0.2637  0.1055
 3082TIP3    H130737   5.472   4.250   5.629  1.4166  0.6512 -0.5721
 3082TIP3    H230738   5.401   4.364   5.699 -2.1056 -2.3722  1.1951
 3083TIP3   OH230739   0.772   1.640  16.406  0.1564  0.0740 -0.3188
 3083TIP3    H130740   0.732   1.708  16.460  0.9951 -0.6520  1.2966
 3083TIP3    H230741   0.702   1.577  16.390  0.1974 -0.3920  1.1427
 3084TIP3   OH230742   1.400   5.166   0.536 -0.1305 -0.1837  0.3082
 3084TIP3    H130743   1.466   5.114   0.582 -0.3788 -2.5705 -1.8045
 3084TIP3    H230744   1.428   5.164   0.444 -1.3088  1.7386 -0.1458
 3085TIP3   OH230745   2.799   6.220  16.599  0.0909  0.1742 -0.3122
 3085TIP3    H130746   2.841   6.277  16.535  0.7508 -1.5017 -1.4235
 3085TIP3    H230747   2.709   6.253  16.604  1.1059  3.1282  1.3074
 3086TIP3   OH230748   6.691   4.964  11.962 -0.1848  0.1332 -1.0228
 3086TIP3    H130749   6.713   4.980  11.870  0.0852  2.4112 -0.6323
 3086TIP3    H230750   6.768   4.994  12.011 -0.6205 -0.3279 -0.0117
 3087TIP3   OH230751   6.760   2.269  12.214  0.2846  0.2858 -0.1753
 3087TIP3    H130752   6.752   2.243  12.305 -3.4888  0.0013 -0.3970
 3087TIP3    H230753   6.822   2.342  12.215  1.6282 -0.7714  2.2872
 3088TIP3   OH230754   1.199   4.996  14.079 -0.1783 -0.2317 -0.3217
 3088TIP3    H130755   1.290   4.998  14.049  0.3990 -2.0898  1.1360
 3088TIP3    H230756   1.152   4.952  14.008 -0.1230  1.3589 -1.3998
 3089TIP3   OH230757   5.474   0.299  16.436 -0.0620 -0.1311 -0.3486
 3089TIP3    H130758   5.442   0.320  16.524  0.8892  0.4856 -0.1348
 3089TIP3    H230759   5.564   0.332  16.435  0.4307 -1.4459 -1.0695
 3090TIP3   OH230760   6.287   0.471  14.190 -0.3414 -0.2020 -0.4411
 3090TIP3    H130761   6.310   0.560  14.161 -2.0861  0.0086 -1.3183
 3090TIP3    H230762   6.199   0.457  14.155 -0.0466 -2.3445 -0.4339
 3091TIP3   OH230763   0.767   5.248  12.730  0.0008 -0.7022  0.5852
 3091TIP3    H130764   0.721   5.180  12.778 -0.4686  0.2128  1.4733
 3091TIP3    H230765   0.711   5.266  12.654 -0.7332 -0.1696  1.2284
 3092TIP3   OH230766   3.984   3.981   2.290 -0.6580 -0.6108 -0.5413
 3092TIP3    H130767   3.961   4.055   2.347 -2.2953 -1.0363 -0.6317
 3092TIP3    H230768   3.938   3.998   2.208 -0.0733 -1.1378 -0.9956
 3093TIP3   OH230769   2.610   0.939   6.182  0.2202 -0.1278  0.5123
 3093TIP3    H130770   2.540   0.894   6.229  0.8261 -1.2035  0.4068
 3093TIP3    H230771   2.687   0.885   6.196  0.7436  0.3467 -0.4587
 3094TIP3   OH230772   5.231   5.814   0.030  0.1924  0.5093 -0.1278
 3094TIP3    H130773   5.240   5.721   0.010 -0.5916  0.3275  0.2935
 3094TIP3    H230774   5.282   5.859  -0.037  1.9122 -0.2831  0.6161
 3095TIP3   OH230775   0.291   4.499   1.878 -0.4920  0.1533 -0.3854
 3095TIP3    H130776   0.208   4.457   1.857 -0.6441 -0.2200  0.8979
 3095TIP3    H230777   0.283   4.525   1.969 -0.4517  3.1585 -1.1525
 3096TIP3   OH230778   2.586   0.256  14.331 -0.4382  0.0661  0.1584
 3096TIP3    H130779   2.546   0.182  14.376 -0.3813  0.2896  0.5726
 3096TIP3    H230780   2.679   0.232  14.325 -0.8179 -1.1575 -2.1470
 3097TIP3   OH230781   1.037   0.015  13.718 -0.0812  0.6207  0.6450
 3097TIP3    H130782   0.979   0.085  13.689 -0.7925 -0.2168 -0.0529
 3097TIP3    H230783   1.114   0.022  13.661 -1.1100 -0.4902 -0.9764
 3098TIP3   OH230784   4.784   3.558   5.572 -0.2141 -0.3298 -0.4557
 3098TIP3    H130785   4.809   3.563   5.664 -0.8160 -0.1482 -0.2955
 3098TIP3    H230786   4.867   3.552   5.525  0.1097 -0.1878  0.0830
 3099TIP3   OH230787   4.590   3.127  11.709  0.3869  0.0771 -0.2603
 3099TIP3    H130788   4.665   3.072  11.690  0.9625  0.5960  0.4375
 3099TIP3    H230789   4.627   3.205  11.750 -0.6843 -0.7120  2.4407
 3100TIP3   OH230790   3.361   1.946  14.093  0.0032  0.0295  0.3045
 3100TIP3    H130791   3.438   1.924  14.144  0.2030 -0.5958 -0.2492
 3100TIP3    H230792   3.291   1.891  14.129  0.5337 -1.6913 -1.1663
 3101TIP3   OH230793   5.374   1.890  11.748  0.0189  0.0992 -0.1245
 3101TIP3    H130794   5.325   1.951  11.803 -1.6466  0.0001 -1.4461
 3101TIP3    H230795   5.439   1.852  11.808 -0.2350  1.6416  1.2142
 3102TIP3   OH230796   3.757   1.614   2.184 -0.1383  0.5716 -0.1322
 3102TIP3    H130797   3.784   1.555   2.254  0.5039  2.4013  1.2663
 3102TIP3    H230798   3.730   1.557   2.112  0.2565 -1.3735  1.2001
 3103TIP3   OH230799   3.766   6.313   2.858  0.7210 -0.2854  0.3242
 3103TIP3    H130800   3.823   6.304   2.933  2.6621  2.3075 -0.6901
 3103TIP3    H230801   3.702   6.379   2.884 -1.0081 -2.0909  0.9203
 3104TIP3   OH230802   1.925   2.989   0.869  0.3307  0.3653 -0.0754
 3104TIP3    H130803   1.878   3.069   0.893  0.7141  0.7949 -0.7416
 3104TIP3    H230804   2.012   3.018   0.841  1.2245 -0.4714  1.6779
 3105TIP3   OH230805   2.815   4.850   1.129  0.7821 -0.5772  0.3499
 3105TIP3    H130806   2.853   4.892   1.052  0.4491 -0.3184  0.3243
 3105TIP3    H230807   2.885   4.792   1.162  1.4152  0.3542  0.6726
 3106TIP3   OH230808   4.689   6.495   0.213 -0.0299  0.1629 -0.1852
 3106TIP3    H130809   4.633   6.552   0.267  1.4646 -1.2221  3.0839
 3106TIP3    H230810   4.763   6.550   0.189 -0.7009  0.7901 -0.8862
 3107TIP3   OH230811   6.516   1.125  12.007 -0.0104 -0.2012 -0.0579
 3107TIP3    H130812   6.453   1.173  11.954 -0.7395  0.8670  1.6696
 3107TIP3    H230813   6.559   1.193  12.059  2.2779 -0.9595 -0.8560
 3108TIP3   OH230814   5.622   1.212   6.872 -0.0227 -0.1195 -0.0320
 3108TIP3    H130815   5.676   1.231   6.795  0.8022 -0.9645  0.3220
 3108TIP3    H230816   5.617   1.296   6.918 -0.7109  0.4451 -1.1074
 3109TIP3   OH230817   5.684   2.161  16.405  0.3244  0.3797 -0.1693
 3109TIP3    H130818   5.606   2.108  16.387 -0.1744  0.8959  0.4739
 3109TIP3    H230819   5.746   2.099  16.443  0.1226  0.0354 -0.3923
 3110TIP3   OH230820   5.302   0.773  16.508  0.5534 -0.8331 -0.2536
 3110TIP3    H130821   5.218   0.734  16.533 -0.5103  0.2777 -1.8921
 3110TIP3    H230822   5.357   0.763  16.586 -2.1460  1.4095  2.1785
 3111TIP3   OH230823   0.879   2.438  14.573 -0.6669  0.6730  0.6668
 3111TIP3    H130824   0.820   2.421  14.646  0.8374 -0.5479  1.6827
 3111TIP3    H230825   0.917   2.524  14.592  1.0018 -0.3452  2.3556
 3112TIP3   OH230826   3.344   2.319  14.500 -0.2458 -0.5046  0.0739
 3112TIP3    H130827   3.435   2.340  14.518 -0.1058 -2.0442  1.4067
 3112TIP3    H230828   3.305   2.304  14.586 -1.9918  0.9112 -0.4088
 3113TIP3   OH230829   0.041   5.679  11.214  0.3382  0.5139 -0.5638
 3113TIP3    H130830   0.039   5.768  11.249 -1.2876 -0.0306  0.8945
 3113TIP3    H230831   0.036   5.690  11.119 -0.1669  1.9907 -0.3950
 3114TIP3   OH230832   2.927   6.114  11.887  0.1134 -0.2502  0.2469
 3114TIP3    H130833   2.835   6.102  11.861  0.2697  0.2193 -0.5749
 3114TIP3    H230834   2.937   6.061  11.966 -0.7468 -0.6777  0.0850
 3115TIP3   OH230835   2.835   1.938  15.093 -0.0011  0.1710 -0.4146
 3115TIP3    H130836   2.887   1.862  15.067  1.4047  1.0869 -0.3497
 3115TIP3    H230837   2.888   2.014  15.069 -1.0628  1.1310  0.1618
 3116TIP3   OH230838   6.183   0.467   3.491 -0.3724  0.1195  0.3683
 3116TIP3    H130839   6.120   0.482   3.562 -0.5338 -2.9478  1.0071
 3116TIP3    H230840   6.132   0.422   3.424  0.5191  0.0990 -0.3064
 3117TIP3   OH230841   0.602   5.296   6.093 -0.3440  0.1437  0.6366
 3117TIP3    H130842   0.529   5.355   6.109 -1.3296 -1.1802  1.2009
 3117TIP3    H230843   0.563   5.209   6.096  1.1969 -0.5730  0.5510
 3118TIP3   OH230844   2.955   2.041  15.986  0.5779 -0.2439  0.4839
 3118TIP3    H130845   2.933   2.120  15.937 -0.8382 -0.3400  0.9114
 3118TIP3    H230846   3.050   2.034  15.980  0.9414  2.3848  1.7502
 3119TIP3   OH230847   3.245   3.940   2.412 -0.0486  0.2222  0.3432
 3119TIP3    H130848   3.315   3.945   2.477  0.1174  2.1063  0.0685
 3119TIP3    H230849   3.177   3.999   2.445 -1.1333 -0.8633  0.1330
 3120TIP3   OH230850   0.861   5.119   3.856  0.0968 -0.7171  0.1990
 3120TIP3    H130851   0.928   5.187   3.842 -0.2090 -0.9264 -2.9088
 3120TIP3    H230852   0.780   5.159   3.824 -0.8099 -1.3788  1.5829
 3121TIP3   OH230853   2.649   5.985  10.702  0.4052 -0.3396 -0.3241
 3121TIP3    H130854   2.689   5.927  10.768  2.4971  0.8017 -0.4987
 3121TIP3    H230855   2.630   5.927  10.628 -0.1382 -1.2722  0.5140
 3122TIP3   OH230856   6.547   4.246  11.460  0.4360  0.1545  0.8720
 3122TIP3    H130857   6.468   4.198  11.484  1.5509 -1.6624  1.1101
 3122TIP3    H230858   6.547   4.322  11.518 -0.1957 -0.8145  2.1918
 3123TIP3   OH230859   3.989   0.682   0.542 -0.0507 -0.3152  0.2568
 3123TIP3    H130860   3.905   0.662   0.500  0.5204 -0.8473 -0.6542
 3123TIP3    H230861   4.032   0.598   0.551 -1.1260 -0.6482  4.2230
 3124TIP3   OH230862   6.539   3.511   4.230  0.0552 -0.1439 -0.2542
 3124TIP3    H130863   6.465   3.500   4.289 -0.5327  2.2861 -0.4255
 3124TIP3    H230864   6.543   3.606   4.214  1.5652 -0.4930 -2.3435
 3125TIP3   OH230865   4.327   2.217   5.726 -0.7137  0.1073 -0.1398
 3125TIP3    H130866   4.238   2.183   5.733 -0.5068 -1.0327 -2.2430
 3125TIP3    H230867   4.383   2.143   5.748 -0.2819  0.0464 -1.3616
 3126TIP3   OH230868   0.450   0.896   5.626  0.1597  0.3294 -0.0337
 3126TIP3    H130869   0.511   0.827   5.601  1.4559  0.7494  1.7871
 3126TIP3    H230870   0.393   0.856   5.691 -0.2644  0.4884 -0.3005
 3127TIP3   OH230871   5.041   1.272  15.021  0.6635 -0.7808 -0.3355
 3127TIP3    H130872   5.094   1.340  15.063  0.4980  0.2363 -1.7159
 3127TIP3    H230873   4.968   1.320  14.982 -0.6613 -2.0269  0.5250
 3128TIP3   OH230874   4.663   1.072  15.299  0.1302  0.0739  0.0719
 3128TIP3    H130875   4.756   1.089  15.285 -0.2755  2.0104 -0.5745
 3128TIP3    H230876   4.622   1.095  15.216 -1.0229  0.0522  0.6267
 3129TIP3   OH230877   3.366   6.596   4.325 -0.1920 -0.6577  0.1029
 3129TIP3    H130878   3.438   6.641   4.369 -1.0166  1.1790 -0.3298
 3129TIP3    H230879   3.388   6.503   4.331  0.6627 -0.3507  2.6616
 3130TIP3   OH230880   6.807   5.544   1.323  0.7123  0.0187  0.0307
 3130TIP3    H130881   6.859   5.609   1.276  0.8349 -0.9354 -1.2028
 3130TIP3    H230882   6.738   5.520   1.261 -1.4486  1.4849  1.7287
 3131TIP3   OH230883   2.347   4.811  15.591 -0.0511  0.1731  0.0044
 3131TIP3    H130884   2.338   4.801  15.685 -0.9782  0.8822  0.0069
 3131TIP3    H230885   2.258   4.804  15.557  0.4829 -2.3175 -1.0915
 3132TIP3   OH230886   0.209   4.788   3.149  0.0991  0.0602  0.0187
 3132TIP3    H130887   0.209   4.693   3.142 -0.9355  0.0651 -0.1834
 3132TIP3    H230888   0.219   4.805   3.243 -1.7265 -0.3064  0.3244
 3133TIP3   OH230889   6.503   2.374  15.470  0.1407  0.3139  0.2954
 3133TIP3    H130890   6.535   2.398  15.556 -0.4803  3.4683 -0.2288
 3133TIP3    H230891   6.554   2.297  15.445 -1.2538 -2.2502  4.3317
 3134TIP3   OH230892   0.840   1.429  14.704  0.0467 -0.0644 -0.3553
 3134TIP3    H130893   0.829   1.356  14.764  0.3489 -0.5751 -0.9075
 3134TIP3    H230894   0.930   1.422  14.673 -0.0213  0.3510 -0.6651
 3135TIP3   OH230895   6.182   0.724  11.167 -0.1829  0.7095 -0.4471
 3135TIP3    H130896   6.132   0.803  11.144 -0.7167  0.0386 -1.6477
 3135TIP3    H230897   6.273   0.754  11.171 -0.6191  1.9782  1.8778
 3136TIP3   OH230898   5.139   1.718  11.687 -0.1006  0.3809 -0.3829
 3136TIP3    H130899   5.221   1.747  11.727 -0.4110  1.1408 -0.2887
 3136TIP3    H230900   5.153   1.625  11.670 -0.3420 -0.2931  2.5410
 3137TIP3   OH230901   6.168   6.081  16.770 -0.1709  0.3082  0.2206
 3137TIP3    H130902   6.158   6.028  16.849 -0.1662 -0.0329 -0.0079
 3137TIP3    H230903   6.082   6.079  16.729  0.5223 -1.9130 -1.2883
 3138TIP3   OH230904   0.626   1.271   3.464 -0.2758  0.1836 -0.1486
 3138TIP3    H130905   0.643   1.365   3.470 -1.3902  0.3702  0.1676
 3138TIP3    H230906   0.544   1.258   3.511 -0.3385 -0.8916 -0.5345
 3139TIP3   OH230907   6.620   6.349  13.591 -1.0599 -0.0278  0.1341
 3139TIP3    H130908   6.619   6.319  13.681  0.4200  1.1208  0.5733
 3139TIP3    H230909   6.591   6.274  13.540 -1.4036 -0.8579  1.5089
 3140TIP3   OH230910   2.305   0.930  15.096  0.3710 -0.2994 -0.1013
 3140TIP3    H130911   2.291   0.879  15.176 -0.1863 -0.2127 -0.1358
 3140TIP3    H230912   2.322   0.865  15.029  2.5093 -0.3009  0.3979
 3141TIP3   OH230913   1.878   3.769   6.136 -0.5941  0.0786  0.0698
 3141TIP3    H130914   1.810   3.792   6.198 -1.9723  0.9143 -1.6721
 3141TIP3    H230915   1.892   3.848   6.083  0.8168 -0.4672 -0.4472
 3142TIP3   OH230916   5.601   4.345  14.200 -0.3523  0.0226  0.4377
 3142TIP3    H130917   5.602   4.440  14.213  0.2592  0.3278 -1.5751
 3142TIP3    H230918   5.671   4.313  14.258 -0.0130  0.8816  0.5231
 3143TIP3   OH230919   5.309   3.459  15.296  0.0734  0.1205 -0.2353
 3143TIP3    H130920   5.325   3.483  15.205  2.2361  0.7025  0.2373
 3143TIP3    H230921   5.220   3.424  15.297  0.4864 -1.1873 -2.8148
 3144TIP3   OH230922   2.991   4.106   5.541  0.1551 -0.1471 -0.4025
 3144TIP3    H130923   2.938   4.173   5.498 -0.0043 -0.2327 -0.3417
 3144TIP3    H230924   2.967   4.025   5.496  2.4621  0.2014 -2.4829
 3145TIP3   OH230925   6.009   2.320  10.436 -0.4599  0.1581 -0.4179
 3145TIP3    H130926   6.081   2.262  10.462 -0.0363  0.3824 -1.0763
 3145TIP3    H230927   6.050   2.405  10.421 -0.4266 -0.2392 -3.0626
 3146TIP3   OH230928   2.158   0.678   3.270 -0.0157  0.1262 -0.1015
 3146TIP3    H130929   2.159   0.662   3.176  0.4539 -1.2420  0.1067
 3146TIP3    H230930   2.147   0.591   3.309 -1.9439  0.8431  1.0860
 3147TIP3   OH230931   3.344   1.837  14.426 -0.4523 -0.3272 -0.2170
 3147TIP3    H130932   3.342   1.762  14.366  1.3346  0.0745 -0.8572
 3147TIP3    H230933   3.360   1.799  14.512  1.5900 -0.6808 -0.6930
 3148TIP3   OH230934   5.339   4.565   0.460 -0.2419 -0.3797 -0.6221
 3148TIP3    H130935   5.360   4.582   0.552  1.0419 -1.1266 -0.7537
 3148TIP3    H230936   5.354   4.649   0.417 -1.2691  0.0916 -0.1052
 3149TIP3   OH230937   4.307   2.296   0.604 -0.1041  0.3472  0.3988
 3149TIP3    H130938   4.225   2.261   0.571  0.7200 -0.3024 -1.0790
 3149TIP3    H230939   4.304   2.389   0.583  0.2441  0.0136 -1.2713
 3150TIP3   OH230940   3.737   0.232  16.356  0.3639  0.1401 -0.3830
 3150TIP3    H130941   3.698   0.319  16.354 -1.2248 -0.5422 -0.5182
 3150TIP3    H230942   3.688   0.185  16.424  2.4268 -0.1254  1.0109
 3151TIP3   OH230943   2.030   5.062  15.886 -0.0006 -0.3103 -0.5483
 3151TIP3    H130944   2.025   5.140  15.941 -2.2508 -0.0922 -0.9722
 3151TIP3    H230945   1.990   5.088  15.803 -1.7365 -2.1370 -0.3668
 3152TIP3   OH230946   4.060   0.679  10.492 -0.2297 -0.9849 -0.2485
 3152TIP3    H130947   4.155   0.676  10.490 -0.1338 -0.3611  1.6997
 3152TIP3    H230948   4.037   0.659  10.582 -1.8434  1.1435 -0.1257
 3153TIP3   OH230949   4.702   2.884  13.085  0.7186 -0.5113 -0.2963
 3153TIP3    H130950   4.695   2.969  13.128  0.4158 -1.4247  1.5646
 3153TIP3    H230951   4.772   2.895  13.021  1.9114  0.6554  1.1397
 3154TIP3   OH230952   0.577   5.408  13.441  0.0992  0.2078 -0.1905
 3154TIP3    H130953   0.562   5.442  13.529  1.3567  0.1739  0.0581
 3154TIP3    H230954   0.560   5.314  13.449  0.2910  0.1899  0.0522
 3155TIP3   OH230955   0.200   3.800   0.771 -0.2853  0.4377  0.2775
 3155TIP3    H130956   0.192   3.845   0.687 -0.4577 -1.1247 -0.5809
 3155TIP3    H230957   0.294   3.802   0.789 -0.3218  1.3866  0.4078
 3156TIP3   OH230958   3.343   0.407  16.577  0.6597  0.2569  0.9700
 3156TIP3    H130959   3.317   0.397  16.486 -1.5210  0.9069  1.4628
 3156TIP3    H230960   3.319   0.496  16.600  0.7508 -0.0305  2.2971
 3157TIP3   OH230961   1.899   4.438   5.476 -0.0546 -0.1536 -0.3297
 3157TIP3    H130962   1.961   4.463   5.407  0.0487 -0.4290 -0.3383
 3157TIP3    H230963   1.859   4.520   5.503 -1.8808 -0.2742 -2.3888
 3158TIP3   OH230964   0.494   3.289  15.451  0.0432  0.1846  0.2115
 3158TIP3    H130965   0.580   3.300  15.410  0.0939  1.5500  0.6166
 3158TIP3    H230966   0.502   3.334  15.535 -1.0884  0.4349  0.2023
 3159TIP3   OH230967   4.968   5.178   4.568 -0.0500  0.1342  0.0865
 3159TIP3    H130968   4.873   5.182   4.579  0.0923  0.2673  1.4295
 3159TIP3    H230969   4.991   5.087   4.588  0.2633  0.4721  1.3858
 3160TIP3   OH230970   3.874   0.205   4.313 -0.0298  0.0449 -0.3048
 3160TIP3    H130971   3.826   0.277   4.273 -3.0167 -1.3568  0.4790
 3160TIP3    H230972   3.835   0.126   4.276  2.8005 -1.2590 -0.7663
 3161TIP3   OH230973   0.522   5.154   2.126  0.4104 -0.3280 -0.4162
 3161TIP3    H130974   0.441   5.203   2.137  1.4259  1.4580 -0.4764
 3161TIP3    H230975   0.536   5.150   2.031  1.2054  0.8481 -0.3730
 3162TIP3   OH230976   1.725   2.052   0.747 -0.3403  0.3761 -0.0600
 3162TIP3    H130977   1.704   2.011   0.663 -1.0808  1.6138 -0.5133
 3162TIP3    H230978   1.800   2.003   0.781  1.0353  0.8729 -2.2171
 3163TIP3   OH230979   0.732   6.713   4.062 -0.1918  0.3198  0.0922
 3163TIP3    H130980   0.768   6.800   4.081  0.0030  0.2278  0.1513
 3163TIP3    H230981   0.765   6.692   3.975 -2.3879  1.4252 -1.0911
 3164TIP3   OH230982   5.597   5.268  14.517  1.2624  0.1652 -0.1961
 3164TIP3    H130983   5.642   5.184  14.505  2.8794  1.1594 -1.6680
 3164TIP3    H230984   5.661   5.323  14.562  0.7049  1.0005 -0.4025
 3165TIP3   OH230985   5.797   3.556  16.308  0.2607 -0.2235 -0.0958
 3165TIP3    H130986   5.827   3.513  16.388  0.3361 -1.4119 -0.7319
 3165TIP3    H230987   5.860   3.528  16.241  1.5364  2.5482 -0.1739
 3166TIP3   OH230988   2.360   4.408  16.614  0.0923  0.2484 -0.3454
 3166TIP3    H130989   2.311   4.484  16.646  0.6246 -0.0072  1.1693
 3166TIP3    H230990   2.322   4.334  16.661  1.5701 -0.0119  0.5099
 3167TIP3   OH230991   4.602   0.111  11.115 -0.2791 -0.0464  0.2023
 3167TIP3    H130992   4.665   0.183  11.116 -0.5553  0.2288 -0.7846
 3167TIP3    H230993   4.585   0.092  11.207 -0.4366  1.3600  0.4857
 3168TIP3   OH230994   4.370   0.371  14.943 -0.4910  1.0735  0.2710
 3168TIP3    H130995   4.369   0.443  15.007 -0.1277  1.4181 -0.1010
 3168TIP3    H230996   4.317   0.303  14.983 -1.1460  1.6897  0.4810
 3169TIP3   OH230997   1.612   1.531  15.678  0.0688  0.0797  0.4148
 3169TIP3    H130998   1.529   1.516  15.723 -0.4949 -1.4502 -1.0421
 3169TIP3    H230999   1.644   1.443  15.656  0.5962  0.7143 -1.6089
 3170TIP3   OH231000   4.542   5.800  16.625  0.5220 -0.2344  0.6858
 3170TIP3    H131001   4.632   5.775  16.645 -0.0818 -2.7654  0.5936
 3170TIP3    H231002   4.504   5.722  16.582 -1.1910  1.3751 -0.9339
 3171TIP3   OH231003   2.959   2.834   3.194  0.1981  0.2595  0.3815
 3171TIP3    H131004   3.026   2.882   3.241  0.7654  0.8561 -0.9921
 3171TIP3    H231005   2.966   2.864   3.104 -0.9719 -0.7145 -0.0674
 3172TIP3   OH231006   4.816   6.703  13.332  0.2367  0.6082  0.3543
 3172TIP3    H131007   4.860   6.665  13.255  0.5385  0.8228  0.4235
 3172TIP3    H231008   4.727   6.721  13.301  0.1082 -0.0762  0.2912
 3173TIP3   OH231009   0.909   1.112   2.354  0.0597  0.1790  0.2400
 3173TIP3    H131010   0.843   1.182   2.358 -1.2024 -0.9294 -0.5246
 3173TIP3    H231011   0.993   1.159   2.355 -0.6454  1.5802  2.8111
 3174TIP3   OH231012   4.528   1.283  12.287  0.4399  0.5116  0.0852
 3174TIP3    H131013   4.523   1.219  12.216  1.4944 -0.5060  0.8727
 3174TIP3    H231014   4.527   1.368  12.243  1.6648 -0.0897 -1.2159
 3175TIP3   OH231015   5.668   5.381   3.324 -0.2928  0.3220 -0.0448
 3175TIP3    H131016   5.741   5.334   3.283 -1.1198  0.1719 -1.4234
 3175TIP3    H231017   5.707   5.428   3.397  0.5653 -2.5486  1.4520
 3176TIP3   OH231018   3.572   1.782   1.492 -0.5341  0.0021 -0.0904
 3176TIP3    H131019   3.509   1.854   1.487 -0.6421 -0.0305  0.8055
 3176TIP3    H231020   3.543   1.721   1.424 -1.2120  0.1956  0.0201
 3177TIP3   OH231021   5.156   2.301   6.693 -0.4273 -0.0054  0.1711
 3177TIP3    H131022   5.113   2.368   6.641 -1.2689 -1.0614 -0.5536
 3177TIP3    H231023   5.087   2.266   6.749 -0.4587 -1.4149 -0.6830
 3178TIP3   OH231024   1.040   5.686   2.688 -0.5332 -0.4487  0.4713
 3178TIP3    H131025   0.950   5.658   2.703 -1.2538  1.0614 -0.7627
 3178TIP3    H231026   1.041   5.779   2.711  0.4439 -0.2036 -0.4608
 3179TIP3   OH231027   5.806   1.716  10.899  0.4690  0.2999 -0.2900
 3179TIP3    H131028   5.891   1.711  10.942  1.1573 -0.0393 -1.6380
 3179TIP3    H231029   5.763   1.792  10.938  0.5388 -0.6849  1.8556
 3180TIP3   OH231030   3.919   0.134   5.740  0.3545 -0.4117  0.2857
 3180TIP3    H131031   4.014   0.121   5.741  0.5496  0.7577 -0.8343
 3180TIP3    H231032   3.903   0.201   5.806  0.5176  0.5261 -0.6030
 3181TIP3   OH231033   6.526   2.997  14.082  0.2349  0.3080  0.0463
 3181TIP3    H131034   6.508   2.971  13.992  1.6287 -0.1708 -0.1139
 3181TIP3    H231035   6.492   3.087  14.088  2.4706  1.4025 -1.7877
 3182TIP3   OH231036   5.052   2.159  14.882  0.1644  0.1934 -0.1114
 3182TIP3    H131037   5.070   2.200  14.797 -0.1433  1.6993  0.5166
 3182TIP3    H231038   4.999   2.224  14.929 -0.1768 -0.8626  1.0189
 3183TIP3   OH231039   5.409   4.830  13.812 -0.6144 -0.2425  0.4497
 3183TIP3    H131040   5.345   4.870  13.870 -0.0246  0.7118  0.4560
 3183TIP3    H231041   5.448   4.759  13.863 -2.2631 -1.4302  0.1541
 3184TIP3   OH231042   1.240   3.239  16.720  0.3912  0.1502  0.1020
 3184TIP3    H131043   1.198   3.154  16.703 -0.0595 -0.0526  1.9126
 3184TIP3    H231044   1.168   3.302  16.716  0.1113 -0.0061  1.7956
 3185TIP3   OH231045   1.881   4.111   2.675 -0.0490 -0.3124  0.2857
 3185TIP3    H131046   1.879   4.119   2.771  1.2879  0.5608  0.2726
 3185TIP3    H231047   1.803   4.060   2.654 -0.9108  0.3122  1.7630
 3186TIP3   OH231048   3.127   4.314  10.494 -0.2679  0.7738  0.2086
 3186TIP3    H131049   3.112   4.393  10.444 -0.2674  0.8577  0.3417
 3186TIP3    H231050   3.060   4.314  10.562  0.2183  1.0668  0.6970
 3187TIP3   OH231051   1.297   3.621   3.509 -0.1644 -0.1073  0.4200
 3187TIP3    H131052   1.370   3.679   3.532 -0.7306  0.6136  0.4448
 3187TIP3    H231053   1.338   3.546   3.467  0.4975  1.1402 -1.3290
 3188TIP3   OH231054   1.305   5.132  15.403 -0.3035  0.4841 -0.1236
 3188TIP3    H131055   1.396   5.148  15.377 -0.1180 -0.8669 -0.3732
 3188TIP3    H231056   1.256   5.131  15.320 -0.4709  0.6959 -0.0305
 3189TIP3   OH231057   1.021   3.712   0.950 -0.7552  0.3385 -0.2952
 3189TIP3    H131058   1.034   3.706   1.044  0.2342 -4.1372 -0.4835
 3189TIP3    H231059   1.089   3.772   0.920 -0.6453  1.2937  1.7250
 3190TIP3   OH231060   4.620   2.149   0.179 -0.2155  0.7625  0.2171
 3190TIP3    H131061   4.580   2.222   0.133 -0.9287 -0.8307 -1.8522
 3190TIP3    H231062   4.561   2.130   0.252 -1.1514  0.9193 -0.4937
 3191TIP3   OH231063   6.744   2.236   4.563 -0.2065  0.1047  0.2672
 3191TIP3    H131064   6.664   2.189   4.588 -0.7033  1.5555  1.5983
 3191TIP3    H231065   6.712   2.311   4.514  0.1052  1.7485  2.4250
 3192TIP3   OH231066   1.222   4.642  11.349 -0.1851 -0.1874  0.0388
 3192TIP3    H131067   1.303   4.685  11.322 -1.5695  1.7028 -1.2901
 3192TIP3    H231068   1.224   4.557  11.305  0.7771  0.0681 -0.4400
 3193TIP3   OH231069   4.954   2.587   2.070  0.1813  0.3428 -0.2231
 3193TIP3    H131070   4.920   2.645   2.137 -0.5151  0.6203 -0.8082
 3193TIP3    H231071   4.923   2.500   2.095 -1.2521  0.6323 -0.9185
 3194TIP3   OH231072   0.775   0.391  10.914  0.4225 -0.4069  0.4794
 3194TIP3    H131073   0.708   0.336  10.956 -0.2544  0.1573  0.1451
 3194TIP3    H231074   0.738   0.415  10.829  0.4687  1.0035  0.8276
 3195TIP3   OH231075   2.675   2.239  10.463  0.3447 -0.2496  0.4211
 3195TIP3    H131076   2.723   2.296  10.403  0.6647  0.0116  0.9242
 3195TIP3    H231077   2.676   2.286  10.547 -1.1874 -0.0026  0.3364
 3196TIP3   OH231078   1.980   4.048  14.998  0.3212  0.0645  0.0613
 3196TIP3    H131079   2.017   4.044  15.086 -1.3274 -0.1620  0.7708
 3196TIP3    H231080   2.045   4.097  14.947  0.7722  1.2209  1.6663
 3197TIP3   OH231081   0.385   3.041   1.581  0.1682 -0.3442 -0.0330
 3197TIP3    H131082   0.425   2.990   1.652 -1.3630  0.4328  1.4491
 3197TIP3    H231083   0.308   2.990   1.556  1.2933 -1.2069 -2.0242
 3198TIP3   OH231084   3.258   1.297  16.241  0.2606 -0.0902  0.0984
 3198TIP3    H131085   3.322   1.229  16.221  1.2779  0.3244  1.6846
 3198TIP3    H231086   3.190   1.287  16.175  1.9658 -0.5392 -1.6733
 3199TIP3   OH231087   4.603   2.336  12.069  0.2881  0.4900  0.0438
 3199TIP3    H131088   4.670   2.319  12.136  1.5772 -1.1583 -1.5528
 3199TIP3    H231089   4.528   2.284  12.097  0.3751  0.7707  0.8255
 3200TIP3   OH231090   0.495   6.057  13.910  0.5168 -0.2183 -0.0062
 3200TIP3    H131091   0.463   6.119  13.975 -1.5077 -0.9159 -0.2798
 3200TIP3    H231092   0.463   6.090  13.827  5.4470  2.2654 -1.2481
 3201TIP3   OH231093   5.964   0.871   2.594  0.2786 -0.3812  0.0543
 3201TIP3    H131094   5.927   0.954   2.626 -0.0891 -0.2318 -0.7214
 3201TIP3    H231095   6.058   0.880   2.609  0.2723  0.2932 -0.2586
 3202TIP3   OH231096   2.411   3.699   1.369 -0.1296 -0.0504  0.1580
 3202TIP3    H131097   2.477   3.652   1.318  0.5356  0.3191  0.6667
 3202TIP3    H231098   2.369   3.757   1.306  1.9735  1.7926  0.3688
 3203TIP3   OH231099   2.342   5.210  11.944  0.0273  0.0698 -0.0722
 3203TIP3    H131100   2.436   5.216  11.931 -0.3211  0.8959 -2.8936
 3203TIP3    H231101   2.325   5.117  11.957  1.1818 -0.0957  0.3955
 3204TIP3   OH231102   6.255   6.768   4.323  0.1822 -0.4522 -0.5519
 3204TIP3    H131103   6.328   6.827   4.344 -0.7984  0.1320  1.4325
 3204TIP3    H231104   6.298   6.688   4.293  1.6021  0.3504 -0.7682
 3205TIP3   OH231105   0.860   3.702  12.424  0.0637 -0.4633  0.1487
 3205TIP3    H131106   0.886   3.630  12.366 -0.7407 -1.5780  1.1390
 3205TIP3    H231107   0.920   3.695  12.498  0.6711  0.5633 -0.2257
 3206TIP3   OH231108   2.731   1.878   2.797 -0.0305 -0.0074 -0.6119
 3206TIP3    H131109   2.790   1.803   2.802 -0.9078 -0.7929 -1.6575
 3206TIP3    H231110   2.674   1.859   2.723 -1.4768  0.8193  0.2468
 3207TIP3   OH231111   3.861   4.921  16.499 -0.1092 -0.4203  0.3464
 3207TIP3    H131112   3.916   4.994  16.471  2.0111 -1.7338  0.8309
 3207TIP3    H231113   3.921   4.846  16.502 -1.6301 -1.6530  2.2633
 3208TIP3   OH231114   4.854   6.025   3.630  0.9060  0.7208 -0.1242
 3208TIP3    H131115   4.867   6.082   3.705 -1.9510  1.1852  0.1161
 3208TIP3    H231116   4.811   6.080   3.565  1.7109 -0.1516 -1.4489
 3209TIP3   OH231117   1.060   3.243  17.196  0.1563  0.1766  0.0496
 3209TIP3    H131118   1.006   3.316  17.166 -0.0059  0.7594  1.6723
 3209TIP3    H231119   1.149   3.278  17.199  0.2215  0.0228 -0.0521
 3210TIP3   OH231120   5.611   2.878   4.676 -0.0465  0.5040  0.3880
 3210TIP3    H131121   5.660   2.948   4.631 -0.8439  1.0260  0.2997
 3210TIP3    H231122   5.542   2.925   4.724  0.0802 -0.1468  1.2212
 3211TIP3   OH231123   2.168   0.161  11.472 -0.3754  0.2931 -0.3223
 3211TIP3    H131124   2.202   0.247  11.495 -2.5516  1.0008  0.4594
 3211TIP3    H231125   2.136   0.171  11.383 -0.2317  0.1521 -0.3914
 3212TIP3   OH231126   0.374   0.464   1.977  0.1892 -0.3232 -0.3860
 3212TIP3    H131127   0.284   0.434   1.967 -0.2724  0.4583  1.0615
 3212TIP3    H231128   0.402   0.428   2.061  1.0773 -0.1848 -0.6068
 3213TIP3   OH231129   3.699   6.033   1.381 -0.2848  0.1659  0.6652
 3213TIP3    H131130   3.739   5.999   1.461  0.3675  1.6674  1.0050
 3213TIP3    H231131   3.645   6.106   1.410 -1.3675 -0.3050 -0.0938
 3214TIP3   OH231132   3.284   3.448   2.605 -0.4557 -0.0632  0.1218
 3214TIP3    H131133   3.360   3.454   2.548 -1.2086  3.0749 -0.7111
 3214TIP3    H231134   3.281   3.355   2.631  2.9049 -0.5370 -0.7278
 3215TIP3   OH231135   0.804   4.740   4.328 -0.0919  0.1467  0.7369
 3215TIP3    H131136   0.878   4.759   4.386  1.7497  0.7267 -1.6211
 3215TIP3    H231137   0.776   4.825   4.296 -0.1848 -0.2338 -0.2273
 3216TIP3   OH231138   5.349   3.857  16.592  0.3694  0.3407 -0.0732
 3216TIP3    H131139   5.282   3.808  16.544 -1.0069  1.1465  0.9830
 3216TIP3    H231140   5.306   3.885  16.672  1.9175  1.0727  0.5357
 3217TIP3   OH231141   5.037   3.291  16.881 -0.1195  0.3955 -0.2720
 3217TIP3    H131142   4.992   3.263  16.801  0.7379 -0.3294 -0.5212
 3217TIP3    H231143   5.124   3.318  16.851 -0.1045  1.0299  0.3036
 3218TIP3   OH231144   0.784   0.095   2.935 -0.3871  0.4252 -0.2229
 3218TIP3    H131145   0.813   0.006   2.916  0.6637  0.2638  1.8281
 3218TIP3    H231146   0.704   0.106   2.884 -0.6411 -1.7667 -0.3786
 3219TIP3   OH231147   1.800   0.035   3.572  0.4537  0.5873 -0.3755
 3219TIP3    H131148   1.813  -0.008   3.656  0.2610  0.9077 -0.1770
 3219TIP3    H231149   1.854   0.114   3.577  0.8317  0.3584 -0.7479
 3220TIP3   OH231150   1.622   2.304  15.205 -0.0842  0.5350 -0.1233
 3220TIP3    H131151   1.617   2.292  15.110 -0.1452 -1.4864  0.0979
 3220TIP3    H231152   1.555   2.370  15.225 -2.0007 -1.0095 -1.1843
 3221TIP3   OH231153   0.717   5.178  15.252 -0.1157 -0.0197  0.1589
 3221TIP3    H131154   0.757   5.259  15.283 -2.0386  1.1604 -0.2333
 3221TIP3    H231155   0.624   5.199  15.244 -0.1438 -0.8002 -4.3141
 3222TIP3   OH231156   0.849   0.179   3.938  0.3340  0.2713 -0.2769
 3222TIP3    H131157   0.923   0.231   3.907  1.1824 -0.2223  0.8377
 3222TIP3    H231158   0.781   0.192   3.872  0.9811  1.7176 -0.7067
 3223TIP3   OH231159   5.047   3.245  12.170  0.5732  0.7059  0.3402
 3223TIP3    H131160   4.990   3.286  12.104  1.1037 -1.7465 -1.7865
 3223TIP3    H231161   4.994   3.243  12.249 -1.0531  1.4891 -0.6748
 3224TIP3   OH231162   0.721   6.500  15.280  0.1898 -0.6358  1.0620
 3224TIP3    H131163   0.802   6.546  15.255 -0.0841  0.4849  2.1060
 3224TIP3    H231164   0.746   6.450  15.358  0.3891 -2.0291  0.1460
 3225TIP3   OH231165   2.984   0.815   5.423  0.1375 -0.1749 -0.1396
 3225TIP3    H131166   3.041   0.891   5.437  0.8467 -0.6253 -0.4956
 3225TIP3    H231167   2.951   0.827   5.334 -0.4080  0.1364  0.1030
 3226TIP3   OH231168   1.925   2.325  13.404 -0.0329 -0.0028 -0.6030
 3226TIP3    H131169   1.917   2.235  13.372 -1.2068  0.1672 -0.8406
 3226TIP3    H231170   1.968   2.372  13.332  0.9541 -0.4521 -0.3136
 3227TIP3   OH231171   4.654   6.030  15.100 -0.0710 -0.2607 -0.0315
 3227TIP3    H131172   4.569   5.990  15.117  0.7431 -1.1133  2.4189
 3227TIP3    H231173   4.707   6.009  15.177  2.0729  1.0758 -1.0332
 3228TIP3   OH231174   2.470   0.801   1.933 -0.3149  0.3029  0.4540
 3228TIP3    H131175   2.484   0.867   1.865  0.2304 -0.8352 -0.5641
 3228TIP3    H231176   2.408   0.842   1.994  1.5583  2.5598  0.9823
 3229TIP3   OH231177   2.145   3.441   5.717  0.9143  0.2104  0.4354
 3229TIP3    H131178   2.205   3.367   5.726  0.9122  0.0145 -1.0534
 3229TIP3    H231179   2.197   3.510   5.678  0.6252  0.6460  0.8085
 3230TIP3   OH231180   5.243   1.497  13.309 -0.2291 -0.6543  0.1735
 3230TIP3    H131181   5.215   1.411  13.339 -0.5736 -0.3587  0.7229
 3230TIP3    H231182   5.323   1.480  13.259 -1.1773 -1.4617 -1.1191
 3231TIP3   OH231183   2.657   2.556  12.778 -0.5124 -0.0785 -0.2322
 3231TIP3    H131184   2.669   2.593  12.691 -1.6394  2.9153  0.7538
 3231TIP3    H231185   2.565   2.532  12.781  0.1484 -3.0511 -0.7765
 3232TIP3   OH231186   3.873   6.691   3.219 -0.0910  0.1912  0.0101
 3232TIP3    H131187   3.821   6.689   3.139  0.1429  1.4463 -0.2030
 3232TIP3    H231188   3.956   6.649   3.195 -0.7267 -1.1588  0.1479
 3233TIP3   OH231189   1.976   1.192   5.005  0.2216  0.1521 -0.2727
 3233TIP3    H131190   1.903   1.215   5.064 -0.4887  0.2596 -1.1672
 3233TIP3    H231191   1.964   1.099   4.988  2.0390 -0.5733  1.9013
 3234TIP3   OH231192   3.417   2.070   4.057 -0.4308 -0.2828 -0.0568
 3234TIP3    H131193   3.451   1.983   4.036  0.4946 -0.0774  0.5295
 3234TIP3    H231194   3.322   2.060   4.058 -0.3274 -1.2768 -0.0345
 3235TIP3   OH231195   5.922   1.887  13.808 -0.1809 -0.4696  0.3466
 3235TIP3    H131196   5.982   1.949  13.849 -0.6296  0.4551 -0.3604
 3235TIP3    H231197   5.846   1.939  13.783 -0.4994 -1.2612 -0.4132
 3236TIP3   OH231198   6.528   2.692   0.658  0.5937 -1.0316  0.2638
 3236TIP3    H131199   6.609   2.711   0.705  1.0294  0.5651 -1.0415
 3236TIP3    H231200   6.466   2.760   0.686 -0.2510 -2.0833  1.0526
 3237TIP3   OH231201   2.028   2.593   2.877  0.2319 -0.2406 -0.0791
 3237TIP3    H131202   2.089   2.667   2.873 -2.1497  1.9026  0.2097
 3237TIP3    H231203   2.063   2.530   2.815  1.5183  1.8518 -1.6438
 3238TIP3   OH231204   2.062   0.062  13.071 -0.6275  0.5476  0.0682
 3238TIP3    H131205   2.086   0.043  13.162 -0.5549  3.1475  0.6623
 3238TIP3    H231206   2.140   0.041  13.021  0.0411  0.9769  0.8991
 3239TIP3   OH231207   2.426   4.036  12.189 -0.0816  0.3411  0.0356
 3239TIP3    H131208   2.461   4.027  12.277  0.3423  0.2950 -0.1336
 3239TIP3    H231209   2.378   4.119  12.191  0.4732  0.6697  0.1366
 3240TIP3   OH231210   1.603   0.841  11.741  0.1738 -0.7235  0.5453
 3240TIP3    H131211   1.573   0.816  11.829 -0.8513 -0.5186  0.2768
 3240TIP3    H231212   1.561   0.925  11.725  0.8249 -0.4833  0.0809
 3241TIP3   OH231213   6.077   2.848  14.913 -0.0952 -0.5474 -0.0254
 3241TIP3    H131214   6.036   2.919  14.864 -0.4619 -0.4636  0.3974
 3241TIP3    H231215   6.022   2.772  14.897  0.9157 -1.0265 -1.3890
 3242TIP3   OH231216   4.282   6.113  12.601 -0.5947  0.1120 -0.3226
 3242TIP3    H131217   4.250   6.203  12.596  0.2001  0.4497  0.4488
 3242TIP3    H231218   4.271   6.089  12.693  0.0030 -0.2693 -0.3435
 3243TIP3   OH231219   0.413   3.386  14.155  0.8602  0.1268 -0.9882
 3243TIP3    H131220   0.351   3.435  14.101 -0.3083  0.1659  0.3274
 3243TIP3    H231221   0.366   3.371  14.237  1.2782 -2.9199 -1.1973
 3244TIP3   OH231222   0.402   4.928  12.404  0.8379  0.4966  0.0055
 3244TIP3    H131223   0.461   4.917  12.330 -0.0155  0.0941 -0.6272
 3244TIP3    H231224   0.329   4.869  12.386  0.6315  0.3614  1.1881
 3245TIP3   OH231225   6.554   0.534   1.652  0.3737  0.3475 -0.4087
 3245TIP3    H131226   6.541   0.488   1.569  0.2191  0.5094 -0.4756
 3245TIP3    H231227   6.600   0.614   1.628  0.2657  0.4279 -0.3488
 3246TIP3   OH231228   1.869   5.820  16.330 -0.1185 -0.0636  0.2098
 3246TIP3    H131229   1.934   5.863  16.275 -1.1565 -0.1128 -1.0905
 3246TIP3    H231230   1.908   5.735  16.352  0.3965  0.0457 -0.2700
 3247TIP3   OH231231   0.813   0.498   5.745 -0.3257  0.2073  0.0927
 3247TIP3    H131232   0.796   0.412   5.783 -1.2639  0.2559 -0.1908
 3247TIP3    H231233   0.793   0.559   5.815  2.8992  0.1631  1.2098
 3248TIP3   OH231234   1.491   3.498  16.219  0.7272 -1.1309 -0.4392
 3248TIP3    H131235   1.469   3.551  16.296  3.2294 -1.2830  0.4955
 3248TIP3    H231236   1.524   3.416  16.256  0.5551 -1.8032 -1.7452
 3249TIP3   OH231237   3.200   0.226  16.879 -0.6786 -0.3465 -0.2028
 3249TIP3    H131238   3.172   0.194  16.793 -1.3180 -0.1915 -0.0581
 3249TIP3    H231239   3.123   0.268  16.915  0.0863  1.1791 -0.2834
 3250TIP3   OH231240   5.358   0.533   3.633  0.5169  0.1303 -0.3361
 3250TIP3    H131241   5.339   0.618   3.595  2.3800  0.9500  0.4617
 3250TIP3    H231242   5.274   0.501   3.665  0.0445  2.5862  1.1399
 3251TIP3   OH231243   4.072   2.323  10.861  0.0518 -0.0297  0.1644
 3251TIP3    H131244   4.036   2.269  10.790  0.9542  0.7496 -0.9081
 3251TIP3    H231245   4.163   2.339  10.835 -0.3164  2.4022  0.2003
 3252TIP3   OH231246   3.652   0.421  16.985  0.1233  0.0863 -0.3720
 3252TIP3    H131247   3.620   0.510  16.969  0.2961 -0.2662 -3.1309
 3252TIP3    H231248   3.739   0.419  16.944  0.0632 -1.3713 -0.4708
 3253TIP3   OH231249   5.978   2.065  12.025  0.2390  0.4469  0.0131
 3253TIP3    H131250   6.070   2.089  12.030  0.5504 -0.1018 -2.0069
 3253TIP3    H231251   5.945   2.076  12.114  2.1595  0.9843  0.7068
 3254TIP3   OH231252   4.629   0.068  15.810 -0.0762 -0.3515 -0.2123
 3254TIP3    H131253   4.604   0.084  15.901  0.6572  1.0277 -0.2276
 3254TIP3    H231254   4.570   0.123  15.759  2.3074  2.3465 -0.2875
 3255TIP3   OH231255   5.467   0.411  10.580  0.3754 -0.0144 -0.1724
 3255TIP3    H131256   5.386   0.426  10.531 -0.1441 -0.3851  0.5459
 3255TIP3    H231257   5.488   0.496  10.619 -0.5922 -0.2835  0.9850
 3256TIP3   OH231258   6.525   0.583  16.260 -0.2873 -0.0714  0.5452
 3256TIP3    H131259   6.493   0.503  16.219  1.5926 -0.6315  0.0382
 3256TIP3    H231260   6.479   0.654  16.215 -0.7503 -0.8045 -0.1621
 3257TIP3   OH231261   4.354   3.899   4.929  0.4716  0.1218  0.2554
 3257TIP3    H131262   4.294   3.879   4.857  1.2831 -0.9001 -0.1545
 3257TIP3    H231263   4.307   3.964   4.981 -1.0020 -0.6403 -0.0559
 3258TIP3   OH231264   5.181   1.479   4.490  0.2817 -0.2238  0.7623
 3258TIP3    H131265   5.244   1.487   4.418  0.2413  0.0570  0.7568
 3258TIP3    H231266   5.149   1.568   4.504  0.2249 -0.2920  1.0716
 3259TIP3   OH231267   3.782   5.121   1.571 -0.2049  0.1210 -0.0315
 3259TIP3    H131268   3.781   5.084   1.483  0.4075  0.7274 -0.3003
 3259TIP3    H231269   3.875   5.138   1.588 -0.4123  0.8367  0.3849
 3260TIP3   OH231270   5.630   5.597   5.462 -0.4492  0.3764  0.5672
 3260TIP3    H131271   5.641   5.502   5.453  0.5502  0.3229  1.9344
 3260TIP3    H231272   5.560   5.607   5.526 -1.1935  0.5861 -0.2698
 3261TIP3   OH231273   6.021   6.667   2.562  0.1426  0.5664 -0.3189
 3261TIP3    H131274   6.082   6.595   2.550 -0.8839 -0.1781 -1.2788
 3261TIP3    H231275   6.067   6.728   2.620  0.8816 -1.0134  0.8308
 3262TIP3   OH231276   5.726   1.560   5.102 -0.4656 -0.3896  0.0652
 3262TIP3    H131277   5.692   1.631   5.157 -1.4520 -0.8314  0.0338
 3262TIP3    H231278   5.703   1.585   5.013 -0.5552 -0.6134  0.0260
 3263TIP3   OH231279   6.599   4.260   3.603  0.6678 -0.0018 -0.1534
 3263TIP3    H131280   6.540   4.216   3.543  3.2071  0.1489 -2.9868
 3263TIP3    H231281   6.570   4.352   3.604 -0.3358 -0.3123  0.1556
 3264TIP3   OH231282   2.954   6.272   3.879  0.2621  0.0472  0.2700
 3264TIP3    H131283   2.966   6.354   3.928 -0.7960 -0.5084  1.5397
 3264TIP3    H231284   2.997   6.206   3.934 -0.2235 -0.4738  0.0276
 3265TIP3   OH231285   1.016   1.106  13.896 -0.0081  0.0721 -0.2062
 3265TIP3    H131286   1.023   1.037  13.830 -0.3527 -0.3644  0.2067
 3265TIP3    H231287   0.930   1.145  13.880 -0.7033 -0.9816  0.8900
 3266TIP3   OH231288   6.058   4.288  13.695  0.0349 -0.6637 -0.1055
 3266TIP3    H131289   6.015   4.210  13.731  0.8950 -1.7477 -1.3147
 3266TIP3    H231290   6.135   4.253  13.650  0.4290  0.9093 -0.6901
 3267TIP3   OH231291   6.580   3.549  13.464  0.3393  0.0897  0.1617
 3267TIP3    H131292   6.485   3.541  13.477  0.2903 -0.2619 -0.3774
 3267TIP3    H231293   6.613   3.581  13.548 -0.3033  0.5827  0.2334
 3268TIP3   OH231294   0.295   2.829  11.277 -0.2307  0.6214  0.6664
 3268TIP3    H131295   0.369   2.890  11.279  1.1637 -0.8998 -0.5168
 3268TIP3    H231296   0.260   2.837  11.189  0.7408 -1.0521  0.0743
 3269TIP3   OH231297   3.403   1.073  11.123 -0.2265 -0.3334  0.6197
 3269TIP3    H131298   3.470   1.044  11.185  1.5323  1.1692 -0.4751
 3269TIP3    H231299   3.383   0.995  11.071 -0.6529 -1.2347  2.0821
 3270TIP3   OH231300   2.756   5.658   5.206 -0.7850  0.0819 -0.5001
 3270TIP3    H131301   2.827   5.598   5.226 -0.6347  0.9108  1.8318
 3270TIP3    H231302   2.676   5.609   5.227 -1.1151 -1.2624 -4.2225
 3271TIP3   OH231303   4.140   4.799   4.948 -0.3290  0.0352 -0.2312
 3271TIP3    H131304   4.114   4.788   4.857 -2.1148 -1.8418  0.4241
 3271TIP3    H231305   4.234   4.780   4.949 -0.1431  0.7441 -1.7496
 3272TIP3   OH231306   1.929   0.782  11.078  0.1775  0.1459  0.2543
 3272TIP3    H131307   1.950   0.689  11.069 -1.2709 -0.1526 -0.4741
 3272TIP3    H231308   1.960   0.822  10.997  0.4613  0.2274  0.4029
 3273TIP3   OH231309   3.731   2.964   5.572  0.0710 -0.6625 -0.3465
 3273TIP3    H131310   3.782   2.883   5.582 -0.5469 -1.0156 -0.0326
 3273TIP3    H231311   3.640   2.935   5.566 -0.1228 -0.0155 -0.6424
 3274TIP3   OH231312   1.987   3.686  17.203 -0.1280 -0.0148 -0.0769
 3274TIP3    H131313   1.981   3.674  17.109 -0.5004  1.1829 -0.2209
 3274TIP3    H231314   2.077   3.662  17.225  1.4935  4.0274 -1.4732
 3275TIP3   OH231315   4.725   0.619  11.676 -0.0372  0.4665 -0.1177
 3275TIP3    H131316   4.729   0.691  11.739  1.2650  0.1857  0.1553
 3275TIP3    H231317   4.679   0.656  11.600 -0.7577  1.1069  0.6203
 3276TIP3   OH231318   4.917   1.185  17.105  0.0430  0.2716 -0.0113
 3276TIP3    H131319   5.010   1.175  17.126  0.2306  0.1855 -0.8486
 3276TIP3    H231320   4.873   1.176  17.189  0.7498 -0.2865  0.3147
 3277TIP3   OH231321   3.497   2.649  11.422 -0.2433 -0.3291  0.3268
 3277TIP3    H131322   3.592   2.645  11.414  0.0525 -0.3907  2.9609
 3277TIP3    H231323   3.481   2.724  11.480 -1.6369 -1.4785  1.5127
 3278TIP3   OH231324   4.607   4.688   3.877 -0.0361 -0.7896  0.3612
 3278TIP3    H131325   4.558   4.768   3.857  1.3462  0.1656  0.6578
 3278TIP3    H231326   4.694   4.719   3.901  1.3830 -2.5466 -2.1610
 3279TIP3   OH231327   1.074   1.233  10.637 -1.0700 -0.3315  0.4268
 3279TIP3    H131328   1.129   1.156  10.647 -1.3290 -0.7082 -0.8504
 3279TIP3    H231329   1.108   1.276  10.558 -1.8795  0.0431  0.2725
 3280TIP3   OH231330   0.754   1.828   1.454  0.6560 -0.2928  0.1585
 3280TIP3    H131331   0.743   1.755   1.516  0.5460 -0.6606 -0.2849
 3280TIP3    H231332   0.827   1.800   1.398  0.2450 -0.3231 -0.3720
 3281TIP3   OH231333   0.233   2.812   3.873 -0.5503 -0.2626  0.6311
 3281TIP3    H131334   0.144   2.778   3.878 -0.3569 -1.4369 -2.0486
 3281TIP3    H231335   0.224   2.896   3.828 -0.2342 -1.2717 -1.4657
 3282TIP3   OH231336   1.205   4.500  14.708 -0.0599  0.2371  0.1291
 3282TIP3    H131337   1.119   4.542  14.714 -0.6765 -0.7716 -1.0334
 3282TIP3    H231338   1.262   4.567  14.671 -0.4478  0.7943  0.5251
 3283TIP3   OH231339   2.642   2.484  12.386  0.3471  0.4249  0.2512
 3283TIP3    H131340   2.564   2.533  12.358  0.8311  0.0510 -1.9878
 3283TIP3    H231341   2.623   2.393  12.360  0.5713 -0.1110  1.8733
 3284TIP3   OH231342   1.032   3.057  16.823  0.5802  0.0222  0.3804
 3284TIP3    H131343   1.084   2.999  16.879  0.5503 -0.3851 -0.0041
 3284TIP3    H231344   0.980   2.997  16.768 -2.4031  0.3545  2.5921
 3285TIP3   OH231345   4.366   5.477   1.195 -0.0098 -0.3271 -0.0311
 3285TIP3    H131346   4.302   5.435   1.252 -0.1794  0.1857  0.1550
 3285TIP3    H231347   4.341   5.569   1.193 -0.9784 -0.5879 -2.2324
 3286TIP3   OH231348   6.646   0.687   4.079 -0.4665  0.0653  0.1736
 3286TIP3    H131349   6.584   0.677   4.007 -0.1401  0.7157 -0.2069
 3286TIP3    H231350   6.597   0.734   4.147  0.1407  2.3724 -0.8818
 3287TIP3   OH231351   5.242   6.179  14.012 -0.3646 -0.0948 -0.4543
 3287TIP3    H131352   5.306   6.152  13.946 -0.0962  0.2992 -0.3583
 3287TIP3    H231353   5.259   6.273  14.025  1.2468 -0.6150  1.9475
 3288TIP3   OH231354   0.871   1.943  16.150 -0.4411 -0.0980 -0.7643
 3288TIP3    H131355   0.781   1.977  16.151 -0.6505 -0.5214  1.5189
 3288TIP3    H231356   0.923   2.013  16.189 -0.1955 -0.7393  0.1023
 3289TIP3   OH231357   5.696   0.450  12.787 -0.1805  0.1920 -0.0370
 3289TIP3    H131358   5.617   0.458  12.734  0.6247  0.1297 -1.2903
 3289TIP3    H231359   5.669   0.476  12.875 -1.9247 -1.1285 -0.1281
 3290TIP3   OH231360   4.552   1.647   4.420 -0.2525 -0.1713 -0.7068
 3290TIP3    H131361   4.603   1.568   4.436  0.9237  0.6307 -0.3724
 3290TIP3    H231362   4.600   1.717   4.464 -1.5749  0.6513 -0.4909
 3291TIP3   OH231363   5.991   0.439  16.544  0.9086 -0.5227  0.3947
 3291TIP3    H131364   5.916   0.457  16.488  2.0978  2.5629 -0.4502
 3291TIP3    H231365   5.972   0.354  16.583 -1.4233 -1.4278 -2.3061
 3292TIP3   OH231366   5.883   4.919  15.177  0.1316  0.1510 -0.4863
 3292TIP3    H131367   5.876   4.848  15.241  0.5687 -1.4832 -2.1789
 3292TIP3    H231368   5.865   4.998  15.228 -0.1965 -1.1268  1.5090
 3293TIP3   OH231369   0.445   0.110  15.171 -0.0900 -0.0084  0.1033
 3293TIP3    H131370   0.516   0.049  15.151 -0.0057  0.4573 -1.1265
 3293TIP3    H231371   0.383   0.058  15.223  0.9101 -0.5547  0.7838
 3294TIP3   OH231372   0.059   4.423   1.706  0.0106 -0.0657  0.4846
 3294TIP3    H131373  -0.030   4.387   1.712 -0.1234  0.1737  0.0009
 3294TIP3    H231374   0.057   4.478   1.627  0.7665 -0.5742  0.0940
 3295TIP3   OH231375   5.232   5.310   5.301  0.0688  0.0888 -1.1990
 3295TIP3    H131376   5.234   5.305   5.205  0.8899  0.6148 -1.2164
 3295TIP3    H231377   5.313   5.268   5.329 -0.1555 -0.0382 -0.7243
 3296TIP3   OH231378   4.616   4.944   4.187  0.4736 -0.4204  0.1944
 3296TIP3    H131379   4.693   4.986   4.150 -0.7728  1.5637 -0.2834
 3296TIP3    H231380   4.544   5.005   4.169 -1.1726 -2.0786  0.8407
 3297TIP3   OH231381   3.683   0.554   0.565  0.2317 -0.7752 -0.3726
 3297TIP3    H131382   3.695   0.460   0.552 -0.0204 -1.1336  1.5842
 3297TIP3    H231383   3.709   0.569   0.656 -0.1605  0.9821 -0.5062
 3298TIP3   OH231384   0.105   1.923   0.838 -0.1826  0.6118  0.2166
 3298TIP3    H131385   0.185   1.974   0.828  0.5903 -0.5163  0.4980
 3298TIP3    H231386   0.083   1.931   0.930 -0.9978  1.7534 -0.0444
 3299TIP3   OH231387   4.807   5.353  14.642  0.2674 -0.8188  0.0466
 3299TIP3    H131388   4.811   5.279  14.580 -0.5458 -1.4467  0.7188
 3299TIP3    H231389   4.850   5.425  14.596  0.0687 -1.3951 -1.0787
 3300TIP3   OH231390   0.312   1.463  13.452  0.1278 -0.5040  0.2973
 3300TIP3    H131391   0.238   1.446  13.393  0.7278 -0.3831 -0.5084
 3300TIP3    H231392   0.339   1.376  13.482 -1.0414 -0.4903  1.5125
 3301TIP3   OH231393   5.185   6.405   0.915  0.3916 -0.0891  0.0933
 3301TIP3    H131394   5.165   6.369   1.001 -0.0175  2.0245  0.9438
 3301TIP3    H231395   5.115   6.372   0.858  1.0791 -2.1039  0.3451
 3302TIP3   OH231396   2.183   4.279   2.121  0.5567  0.2937 -0.4028
 3302TIP3    H131397   2.222   4.355   2.078  1.6719 -0.1952 -0.2864
 3302TIP3    H231398   2.247   4.209   2.108 -0.0813 -0.4145  0.1944
 3303TIP3   OH231399   1.396   4.322   1.643 -0.6752 -0.1343 -0.0084
 3303TIP3    H131400   1.390   4.226   1.640 -1.3918 -0.1459  1.0652
 3303TIP3    H231401   1.373   4.344   1.734  1.3194  0.9276  0.3020
 3304TIP3   OH231402   0.941   4.311   2.628  0.5752 -0.3359 -0.5459
 3304TIP3    H131403   1.010   4.329   2.565 -0.3393  0.5265 -1.3266
 3304TIP3    H231404   0.930   4.216   2.626  0.7482 -0.3402 -1.4778
 3305TIP3   OH231405   4.449   2.370  14.831  0.2079  0.0231 -0.2851
 3305TIP3    H131406   4.489   2.371  14.918  0.5071 -1.1255 -0.3880
 3305TIP3    H231407   4.518   2.335  14.774  0.2944  1.5046 -1.1501
 3306TIP3   OH231408   5.819   1.704  14.573 -0.4344  0.4125  0.0206
 3306TIP3    H131409   5.774   1.722  14.655 -1.5329 -2.4899  0.1439
 3306TIP3    H231410   5.898   1.759  14.576 -0.5451  0.5174  2.9233
 3307TIP3   OH231411   4.832   5.727   2.735  0.0606  0.0775  0.1729
 3307TIP3    H131412   4.898   5.670   2.696  2.1253  0.3709  2.9861
 3307TIP3    H231413   4.778   5.668   2.789 -0.5349  0.1971 -0.2742
 3308TIP3   OH231414   2.595   1.277   0.885 -0.3307  0.1205 -0.1340
 3308TIP3    H131415   2.501   1.258   0.883 -0.4563 -0.1850  3.0724
 3308TIP3    H231416   2.602   1.367   0.855 -1.4830 -0.1478 -1.3418
 3309TIP3   OH231417   0.816   4.550  11.931  0.1686  0.1485  0.2691
 3309TIP3    H131418   0.840   4.459  11.949 -0.9881 -0.2719 -0.2219
 3309TIP3    H231419   0.890   4.585  11.881  0.7480 -0.4279  0.6946
 3310TIP3   OH231420   0.414   0.675  14.365  0.4954  0.0490 -0.3490
 3310TIP3    H131421   0.499   0.716  14.382  0.3480  1.1416 -2.0524
 3310TIP3    H231422   0.435   0.599  14.310  0.3538  0.4651 -0.9825
 3311TIP3   OH231423   4.600   5.864  14.642  0.1128 -0.4880  0.2455
 3311TIP3    H131424   4.542   5.886  14.568 -2.2137  0.2715  2.1576
 3311TIP3    H231425   4.541   5.829  14.709  1.6319  1.4977  2.8112
 3312TIP3   OH231426   1.568   5.949  14.974 -0.6485  0.8742 -0.2938
 3312TIP3    H131427   1.562   5.914  15.063  0.1724  1.6760  0.0883
 3312TIP3    H231428   1.604   5.877  14.922  0.7326  1.0292  0.4197
 3313TIP3   OH231429   0.774   5.605  13.496 -0.0407  0.4150  0.7180
 3313TIP3    H131430   0.777   5.676  13.432  1.3100 -1.2500 -1.2271
 3313TIP3    H231431   0.711   5.543  13.460  2.1501 -1.4621 -0.1706
 3314TIP3   OH231432   3.577   3.436   1.523 -0.7959  0.0309  1.1891
 3314TIP3    H131433   3.516   3.363   1.537  0.5691 -1.4103  0.0552
 3314TIP3    H231434   3.627   3.441   1.604 -1.6627  0.5170  1.7172
 3315TIP3   OH231435   0.637   3.409  10.830 -1.1005  0.1598 -0.2185
 3315TIP3    H131436   0.620   3.483  10.772  0.8080  1.0355  0.2571
 3315TIP3    H231437   0.646   3.448  10.917  1.6125 -0.3260 -0.2044
 3316TIP3   OH231438   5.009   3.192  11.210 -0.5510  0.2886 -0.0512
 3316TIP3    H131439   4.990   3.212  11.118 -0.4386  0.2679 -0.0786
 3316TIP3    H231440   4.997   3.098  11.217 -0.7242  0.3133 -0.0064
 3317TIP3   OH231441   6.740   6.533  15.220 -0.1305 -0.2268 -0.5574
 3317TIP3    H131442   6.653   6.496  15.216 -0.1136 -0.3895  0.3703
 3317TIP3    H231443   6.797   6.460  15.247 -0.0118  0.2990  0.7047
 3318TIP3   OH231444   1.356   5.165  11.057  0.2436 -0.3031  0.1467
 3318TIP3    H131445   1.411   5.177  10.980  1.6109  0.9084  1.2586
 3318TIP3    H231446   1.270   5.144  11.022  0.2786  2.3353 -1.8030
 3319TIP3   OH231447   5.427   3.664   4.914  0.1995  0.6236 -0.2206
 3319TIP3    H131448   5.401   3.606   4.842  0.2925 -1.0440  1.0121
 3319TIP3    H231449   5.344   3.692   4.953  0.0991 -0.9870  0.8678
 3320TIP3   OH231450   3.481   4.649  15.339  0.1629  0.4477  0.1703
 3320TIP3    H131451   3.486   4.732  15.293  0.3579  0.0744 -0.4946
 3320TIP3    H231452   3.414   4.599  15.293 -1.2242  0.8636  1.6320
 3321TIP3   OH231453   1.762   1.913   2.964  0.0060 -0.1381  0.1728
 3321TIP3    H131454   1.840   1.942   2.918 -0.9959  3.3291  0.3863
 3321TIP3    H231455   1.694   1.910   2.896 -0.4270  0.2682  0.5840
 3322TIP3   OH231456   0.533   0.058   4.807 -0.3730  0.0728 -0.3492
 3322TIP3    H131457   0.626   0.048   4.788  0.2316  1.8987  1.3506
 3322TIP3    H231458   0.521   0.020   4.894 -1.2477 -0.2413 -0.5929
 3323TIP3   OH231459   5.766   3.039  16.827 -0.0975  0.4072  0.7623
 3323TIP3    H131460   5.855   3.056  16.797 -0.7224  0.3774 -1.2406
 3323TIP3    H231461   5.738   2.962  16.778 -1.1552  0.2578  1.5462
 3324TIP3   OH231462   1.409   6.808   1.230 -0.3237  0.3102 -0.1432
 3324TIP3    H131463   1.333   6.832   1.177  0.3230  2.2721 -0.2550
 3324TIP3    H231464   1.414   6.876   1.297  1.4531  0.3531 -0.2746
 3325TIP3   OH231465   0.452   5.649  11.699 -0.1746 -0.0382  0.1052
 3325TIP3    H131466   0.393   5.604  11.759 -1.5409 -1.3679 -2.0989
 3325TIP3    H231467   0.519   5.584  11.678  1.2143  0.9408  1.3495
 3326TIP3   OH231468   4.413   4.444   4.321  0.3651  0.1956  0.6356
 3326TIP3    H131469   4.383   4.510   4.259 -0.6924 -0.3765  0.5090
 3326TIP3    H231470   4.507   4.460   4.330  0.1252  1.7472  0.6620
 3327TIP3   OH231471   5.372   1.536   3.577  0.1981  0.5607  0.2506
 3327TIP3    H131472   5.324   1.455   3.559 -1.3171  1.8749 -2.1251
 3327TIP3    H231473   5.451   1.507   3.623  0.7659 -2.5287 -2.3040
 3328TIP3   OH231474   5.957   2.697  15.794  0.0191  0.1112  0.4160
 3328TIP3    H131475   5.991   2.724  15.880 -1.5814  0.8566  0.8564
 3328TIP3    H231476   5.864   2.719  15.798 -0.1030  0.0378 -1.4796
 3329TIP3   OH231477   2.727   3.826   2.831 -0.0339  0.0652 -0.3443
 3329TIP3    H131478   2.797   3.764   2.848  1.6398  1.6141 -1.2687
 3329TIP3    H231479   2.648   3.783   2.864  1.4110 -1.4981  1.2686
 3330TIP3   OH231480   0.156   4.085  16.213 -0.3380  0.1588 -0.1245
 3330TIP3    H131481   0.075   4.070  16.261  0.1132 -1.0516  0.3019
 3330TIP3    H231482   0.153   4.177  16.188 -1.2967  0.4169  0.8884
 3331TIP3   OH231483   3.643   5.641   3.433  0.4057  0.0116  0.2747
 3331TIP3    H131484   3.656   5.720   3.486  1.5602  0.9279 -1.2677
 3331TIP3    H231485   3.730   5.602   3.426  0.2577 -0.1628 -0.7950
 3332TIP3   OH231486   5.285   2.553  16.982  0.4058  0.2804 -0.4139
 3332TIP3    H131487   5.201   2.511  16.966  0.0337  1.5698 -2.2310
 3332TIP3    H231488   5.350   2.490  16.951 -0.0834  0.5270 -2.0513
 3333TIP3   OH231489   2.671   3.438   6.610 -0.0846  0.0248 -0.1167
 3333TIP3    H131490   2.607   3.366   6.610  1.5920 -1.5909  1.2275
 3333TIP3    H231491   2.684   3.459   6.518 -0.8467 -1.2017 -0.5292
 3334TIP3   OH231492   0.105   6.116  13.344 -0.4551  0.3288 -0.0964
 3334TIP3    H131493   0.057   6.040  13.379 -1.4193  0.7118 -0.5563
 3334TIP3    H231494   0.151   6.152  13.420 -0.0018 -0.6993  0.1327
 3335TIP3   OH231495   5.076   3.057   2.752 -0.3372  0.5669 -0.2662
 3335TIP3    H131496   5.135   3.125   2.721  0.7408 -0.4538 -0.5253
 3335TIP3    H231497   5.134   2.987   2.781 -1.3977  0.2189  1.0855
 3336TIP3   OH231498   3.744   5.349   6.773  0.4028  0.2941 -0.5024
 3336TIP3    H131499   3.777   5.335   6.685  0.2233 -3.2190 -0.1813
 3336TIP3    H231500   3.821   5.371   6.825  1.4046 -2.2324 -0.7772
 3337TIP3   OH231501   4.862   0.078  13.513 -0.6679 -0.3161  0.0272
 3337TIP3    H131502   4.889   0.003  13.461 -0.8698  0.9237 -1.9650
 3337TIP3    H231503   4.794   0.044  13.572 -0.9545 -1.6295 -1.0226
 3338TIP3   OH231504   0.875   0.432  12.445 -0.5945 -0.4135  0.6098
 3338TIP3    H131505   0.897   0.409  12.354 -1.3489 -0.3072  0.3865
 3338TIP3    H231506   0.900   0.524  12.453 -3.2059  0.4986 -0.4563
 3339TIP3   OH231507   5.485   5.353  15.673  0.0121 -0.3292 -0.3975
 3339TIP3    H131508   5.465   5.304  15.593 -2.8557  0.0332 -0.0171
 3339TIP3    H231509   5.523   5.288  15.732  0.5328 -1.0001 -1.4438
 3340TIP3   OH231510   2.034   2.447   2.588 -0.5580 -0.7714  0.4952
 3340TIP3    H131511   2.125   2.424   2.572  0.1811  0.8540  2.0741
 3340TIP3    H231512   1.998   2.466   2.501  0.8747 -0.4533 -0.0437
 3341TIP3   OH231513   5.324   6.767   2.673  0.5251  0.2875  0.1845
 3341TIP3    H131514   5.381   6.696   2.644 -0.3801 -0.6287  0.5860
 3341TIP3    H231515   5.383   6.840   2.692  1.3960 -0.0343 -1.1340
 3342TIP3   OH231516   5.316   3.105   0.315 -0.1709 -0.0940  0.3984
 3342TIP3    H131517   5.269   3.182   0.347 -1.0508 -1.0538  1.4704
 3342TIP3    H231518   5.322   3.047   0.390 -0.2690 -1.4480 -0.5976
 3343TIP3   OH231519   1.462   3.696  16.392 -0.1985  0.3256  0.4715
 3343TIP3    H131520   1.409   3.659  16.463 -1.8049 -1.3116 -1.4421
 3343TIP3    H231521   1.404   3.759  16.350  0.2907  0.3901 -0.1135
 3344TIP3   OH231522   2.578   6.532   3.358 -0.2641  0.5568 -0.2593
 3344TIP3    H131523   2.488   6.516   3.329  0.1321 -0.5128 -0.9538
 3344TIP3    H231524   2.583   6.489   3.444  0.1236 -1.0943 -1.0829
 3345TIP3   OH231525   0.525   4.244  12.505  0.0830  0.1958  0.2812
 3345TIP3    H131526   0.467   4.304  12.458  1.2370  0.6076 -0.6927
 3345TIP3    H231527   0.592   4.220  12.440  1.0303 -0.2133  1.3676
 3346TIP3   OH231528   0.284   4.363   0.176  0.1620 -0.3572  0.1781
 3346TIP3    H131529   0.264   4.457   0.176  0.5074 -0.2847 -0.0196
 3346TIP3    H231530   0.233   4.328   0.250 -0.1946 -0.0650  0.0750
 3347TIP3   OH231531   1.430   2.049  10.952  0.0618  0.2810 -0.8266
 3347TIP3    H131532   1.377   2.036  10.872 -2.9400  2.3203  0.6302
 3347TIP3    H231533   1.480   1.968  10.961 -2.1380 -1.4548 -2.9261
 3348TIP3   OH231534   5.379   3.847  11.994  0.5071 -0.6113  0.5220
 3348TIP3    H131535   5.358   3.756  12.018 -0.2742 -0.3806  0.7252
 3348TIP3    H231536   5.358   3.852  11.901 -1.4934 -0.0733  0.9620
 3349TIP3   OH231537   5.395   3.013   4.766 -0.4472 -0.1590  0.5715
 3349TIP3    H131538   5.328   2.995   4.699  0.0217 -1.2621  0.3822
 3349TIP3    H231539   5.413   3.107   4.756 -1.4160 -0.0018  0.1238
 3350TIP3   OH231540   2.052   2.442   1.654  0.0876  0.2067 -0.1958
 3350TIP3    H131541   2.135   2.458   1.699 -0.3010 -1.3140  1.1426
 3350TIP3    H231542   1.986   2.476   1.714 -0.3672 -0.5645 -0.2564
 3351TIP3   OH231543   3.477   5.441   3.148  0.0661 -0.8233 -0.0197
 3351TIP3    H131544   3.564   5.465   3.117 -0.9818  0.0126 -2.5854
 3351TIP3    H231545   3.447   5.516   3.198  0.5367 -0.8099  0.2427
 3352TIP3   OH231546   1.976   1.631   0.192 -0.5641 -0.0307 -0.3114
 3352TIP3    H131547   2.049   1.682   0.227  0.3398  0.1765 -2.3264
 3352TIP3    H231548   1.984   1.640   0.097 -2.3299 -1.2662 -0.6319
 3353TIP3   OH231549   0.877   2.635  14.256 -0.5746  0.0965 -0.0818
 3353TIP3    H131550   0.941   2.571  14.284  0.7247  1.4559  0.1766
 3353TIP3    H231551   0.919   2.680  14.182 -2.2650 -0.6558 -1.6035
 3354TIP3   OH231552   0.547   2.449  13.116 -0.4559  0.0537  0.0804
 3354TIP3    H131553   0.612   2.400  13.065 -0.4165  0.4946 -0.3012
 3354TIP3    H231554   0.525   2.392  13.189 -0.7783 -0.7465 -0.6257
 3355TIP3   OH231555   3.351   2.351  15.146 -0.2640 -0.4657  0.0885
 3355TIP3    H131556   3.310   2.273  15.184  1.0164 -0.7591  0.9446
 3355TIP3    H231557   3.355   2.413  15.219  1.4123 -0.7065  0.2469
 3356TIP3   OH231558   0.739   1.665  12.461 -0.5743  0.1178 -0.0143
 3356TIP3    H131559   0.810   1.611  12.428  0.4971 -0.0663  2.3673
 3356TIP3    H231560   0.768   1.755  12.447 -0.1747  0.0461  0.3671
 3357TIP3   OH231561   1.805   5.075   4.653 -0.5029 -0.0321 -0.1878
 3357TIP3    H131562   1.814   4.981   4.668 -1.0302 -0.2305 -1.0344
 3357TIP3    H231563   1.895   5.109   4.658 -0.3938 -0.4280  0.9743
 3358TIP3   OH231564   2.428   1.284  14.042 -0.0077  0.6576 -0.1003
 3358TIP3    H131565   2.421   1.221  13.971 -1.0544  0.2489  0.3432
 3358TIP3    H231566   2.510   1.261  14.086 -1.1746 -1.5312  1.0835
 3359TIP3   OH231567   5.817   6.532  12.534 -0.5495  0.1752  0.8435
 3359TIP3    H131568   5.759   6.566  12.602  0.4465  1.2886  1.1577
 3359TIP3    H231569   5.765   6.464  12.490 -1.5475  0.1135  2.0738
 3360TIP3   OH231570   1.639   3.926  13.288 -0.7778  0.1526  0.6628
 3360TIP3    H131571   1.637   3.918  13.384  0.2011 -1.8018  0.5752
 3360TIP3    H231572   1.712   3.985  13.270 -0.3447 -0.2281  1.1204
 3361TIP3   OH231573   5.888   2.220  14.527  0.3462 -0.4071  0.1849
 3361TIP3    H131574   5.844   2.290  14.576 -1.3277 -2.0233  1.1465
 3361TIP3    H231575   5.902   2.256  14.440 -1.6647  0.7276  0.2632
 3362TIP3   OH231576   1.989   2.612   3.752  0.3788  0.0065  0.1180
 3362TIP3    H131577   1.979   2.521   3.778  1.0934  0.1408  0.9167
 3362TIP3    H231578   2.001   2.609   3.657 -0.0931 -0.6856  0.0794
 3363TIP3   OH231579   6.042   1.257  16.839  0.4713 -0.3100 -0.1812
 3363TIP3    H131580   6.051   1.319  16.767  0.8115  0.5178  0.5500
 3363TIP3    H231581   5.988   1.187  16.804 -1.2304  1.1245 -0.5920
 3364TIP3   OH231582   0.321   4.237   4.080  0.4783  0.3532 -0.1145
 3364TIP3    H131583   0.387   4.242   4.011  0.6961 -0.3938  0.0383
 3364TIP3    H231584   0.358   4.288   4.152  0.6473  0.3817 -0.2213
 3365TIP3   OH231585   5.987   4.276  12.365 -0.5758  0.0303 -0.1481
 3365TIP3    H131586   6.060   4.337  12.382 -0.5772  0.3859 -1.3185
 3365TIP3    H231587   6.030   4.194  12.342 -0.4928  0.5074 -1.8220
 3366TIP3   OH231588   6.659   0.128  12.796  0.5494  0.2601  0.0550
 3366TIP3    H131589   6.677   0.219  12.820  1.7653  0.1684 -0.4773
 3366TIP3    H231590   6.728   0.077  12.838 -0.8391 -0.5988  1.4291
 3367TIP3   OH231591   4.937   4.845  13.775 -0.5835  0.6856  0.1144
 3367TIP3    H131592   4.897   4.819  13.692  0.2305 -0.5456  0.0832
 3367TIP3    H231593   4.873   4.818  13.841  0.4378 -2.0342  0.1228
 3368TIP3   OH231594   0.790   4.300  14.294 -0.1649  0.1011 -0.2185
 3368TIP3    H131595   0.860   4.308  14.229  1.0954 -0.2588  1.0695
 3368TIP3    H231596   0.738   4.225  14.263  1.7693 -1.5629  0.3644
 3369TIP3   OH231597   2.175   0.891   5.244  0.8126 -0.0784  0.1206
 3369TIP3    H131598   2.231   0.841   5.303 -0.9220 -0.7185  1.3070
 3369TIP3    H231599   2.123   0.824   5.198 -1.1939  0.5278  1.3766
 3370TIP3   OH231600   5.184   6.499  11.316 -0.2367 -0.6982  0.2841
 3370TIP3    H131601   5.220   6.493  11.404 -0.9885 -0.1213  0.6442
 3370TIP3    H231602   5.090   6.488  11.328 -0.3535 -0.5374 -0.4352
 3371TIP3   OH231603   2.383   6.024  11.563  0.1530 -0.0063 -0.2876
 3371TIP3    H131604   2.450   6.007  11.498  0.5943  1.6047 -0.3058
 3371TIP3    H231605   2.432   6.036  11.645 -0.3170 -1.0952  0.1684
 3372TIP3   OH231606   0.072   0.030  13.797  0.0827 -0.1949  0.8428
 3372TIP3    H131607   0.119   0.024  13.881 -0.7946 -0.3645  1.3330
 3372TIP3    H231608   0.025   0.113  13.802 -1.1835 -0.9039  1.1802
 3373TIP3   OH231609   4.360   0.742  15.218 -0.1590 -0.2060  0.0078
 3373TIP3    H131610   4.378   0.761  15.310 -1.0042 -0.2237  0.1778
 3373TIP3    H231611   4.295   0.807  15.192 -1.3096 -1.3480 -0.0546
 3374TIP3   OH231612   0.255   2.423   5.732  0.3907 -0.5762  0.0307
 3374TIP3    H131613   0.312   2.497   5.753  0.0233 -0.0517 -0.7620
 3374TIP3    H231614   0.234   2.435   5.639 -0.4348 -1.1582  0.1318
 3375TIP3   OH231615   0.865   3.817   6.411  0.3527  0.7639 -0.3182
 3375TIP3    H131616   0.951   3.859   6.422  0.2531  0.7460  0.6739
 3375TIP3    H231617   0.802   3.886   6.431  0.1701  0.3836  0.4470
 3376TIP3   OH231618   0.826   2.358  13.504 -0.4097 -0.0726 -0.5404
 3376TIP3    H131619   0.867   2.326  13.584  0.0720 -1.0638 -1.1551
 3376TIP3    H231620   0.743   2.311  13.498 -0.6748  0.3689 -0.3744
 3377TIP3   OH231621   1.401   2.489   5.013  0.3921 -0.1736  0.1187
 3377TIP3    H131622   1.351   2.563   5.047  1.2809  0.4728  0.0394
 3377TIP3    H231623   1.488   2.499   5.051  0.9530 -0.3266 -1.1080
 3378TIP3   OH231624   5.316   4.290   1.548  0.3179 -0.0770  0.5321
 3378TIP3    H131625   5.382   4.256   1.609  0.5800 -1.3575 -0.4291
 3378TIP3    H231626   5.246   4.225   1.550 -0.6185  0.9084  0.9892
 3379TIP3   OH231627   0.625   4.172  11.459  0.3935  0.0049 -0.1427
 3379TIP3    H131628   0.556   4.120  11.416  0.1765  1.5278 -1.7710
 3379TIP3    H231629   0.579   4.250  11.491  1.2830  0.8894 -0.9696
 3380TIP3   OH231630   4.871   1.038   5.440 -0.1549  0.6320  0.6855
 3380TIP3    H131631   4.901   0.949   5.421 -0.7581  0.5748 -0.0279
 3380TIP3    H231632   4.810   1.028   5.513 -2.8810 -0.0485 -1.5006
 3381TIP3   OH231633   4.369   5.812   3.934  0.0095  0.6472 -0.4386
 3381TIP3    H131634   4.408   5.802   3.847 -0.1465  2.6859 -0.8006
 3381TIP3    H231635   4.276   5.828   3.916 -0.2820 -0.2417  0.2023
 3382TIP3   OH231636   2.393   1.726  16.412 -0.2078  1.2748  0.0025
 3382TIP3    H131637   2.358   1.753  16.497  3.2662 -1.1288  2.4838
 3382TIP3    H231638   2.342   1.648  16.389 -0.0016  0.8648  0.8819
 3383TIP3   OH231639   5.536   4.051  11.576  0.3105  0.3270  0.3772
 3383TIP3    H131640   5.488   3.970  11.560  0.5104  0.0222  1.2674
 3383TIP3    H231641   5.551   4.052  11.670  0.8021  1.1250  0.3028
 3384TIP3   OH231642   4.402   6.542   6.320 -0.2159 -0.6288 -0.7436
 3384TIP3    H131643   4.373   6.476   6.382 -0.9241 -1.4402 -1.8903
 3384TIP3    H231644   4.333   6.608   6.320 -0.8712 -1.2853 -1.5953
 3385TIP3   OH231645   5.206   0.060  13.875 -0.2705  0.0828  0.6212
 3385TIP3    H131646   5.209  -0.007  13.807  1.5633  0.4673  0.2717
 3385TIP3    H231647   5.112   0.076  13.888 -0.6996 -1.0897 -0.7108
 3386TIP3   OH231648   2.579   0.559  11.280  0.4076 -0.1531  0.1380
 3386TIP3    H131649   2.539   0.502  11.347 -0.1121  1.2929  1.1162
 3386TIP3    H231650   2.504   0.602  11.238  0.7917 -0.1765 -0.5826
 3387TIP3   OH231651   1.708   1.951   1.123 -0.2761  0.2178  0.2399
 3387TIP3    H131652   1.765   1.938   1.048  2.3360  1.6772  1.8214
 3387TIP3    H231653   1.682   2.043   1.117 -1.4249 -0.0852  0.2801
 3388TIP3   OH231654   5.728   4.848  15.703  0.5513 -0.7758  0.8253
 3388TIP3    H131655   5.653   4.847  15.763 -0.8386  0.5432 -0.7867
 3388TIP3    H231656   5.792   4.906  15.745 -0.1094 -0.4296  1.3640
 3389TIP3   OH231657   3.154   0.011  13.245 -0.1610  0.1931  0.7926
 3389TIP3    H131658   3.189   0.098  13.229 -1.0293  0.2210 -1.2072
 3389TIP3    H231659   3.133   0.010  13.339 -2.7065  3.1643  0.4053
 3390TIP3   OH231660   4.369   4.400  11.930 -0.3265  0.3617  0.6545
 3390TIP3    H131661   4.298   4.356  11.977 -0.4627  1.2198  1.2682
 3390TIP3    H231662   4.438   4.334  11.924 -1.3648 -0.6688 -0.4317
 3391TIP3   OH231663   6.646   3.259   5.853  0.0772 -0.2619  0.5925
 3391TIP3    H131664   6.606   3.221   5.931  0.0002 -0.4717  0.4534
 3391TIP3    H231665   6.573   3.301   5.807  0.6266  2.8028  2.2829
 3392TIP3   OH231666   5.720   0.423   0.313  0.1197 -0.8514 -0.2817
 3392TIP3    H131667   5.728   0.342   0.363  0.4012 -1.5772 -1.4528
 3392TIP3    H231668   5.667   0.481   0.368  1.1257 -1.3053  1.2033
 3393TIP3   OH231669   6.034   1.480  16.696 -0.2598 -0.7128  0.9035
 3393TIP3    H131670   6.001   1.550  16.640 -0.6544 -0.4398  1.4640
 3393TIP3    H231671   5.979   1.484  16.774 -1.5674 -2.8952  0.1660
 3394TIP3   OH231672   6.359   2.127  15.615  0.2512  0.2200  0.1227
 3394TIP3    H131673   6.320   2.052  15.662 -0.2517  0.3261 -0.1171
 3394TIP3    H231674   6.386   2.187  15.685  1.2712 -0.4804  0.3401
 3395TIP3   OH231675   0.843   2.820   2.820 -0.6020  0.0994  0.3308
 3395TIP3    H131676   0.863   2.829   2.913 -0.5131 -1.6276  0.5093
 3395TIP3    H231677   0.882   2.737   2.795 -1.2674  0.1817 -1.0817
 3396TIP3   OH231678   5.502   2.812  14.629 -0.1745  0.0087  0.5817
 3396TIP3    H131679   5.450   2.866  14.569  0.8244  0.9936  0.5614
 3396TIP3    H231680   5.490   2.723  14.597 -1.6673  0.2297  0.4620
 3397TIP3   OH231681   1.672   1.368  14.566  0.0292 -0.0905 -0.2680
 3397TIP3    H131682   1.661   1.273  14.560  1.9164 -0.3632 -0.2840
 3397TIP3    H231683   1.745   1.387  14.506 -0.4384  1.4099 -0.4160
 3398TIP3   OH231684   0.845   0.547   2.310  0.0884  0.7418  0.2773
 3398TIP3    H131685   0.836   0.599   2.230 -1.1507 -0.7456 -0.6078
 3398TIP3    H231686   0.888   0.606   2.372  0.3755  2.2012 -1.2230
 3399TIP3   OH231687   2.759   0.633   2.870 -0.3093  0.0556  0.0106
 3399TIP3    H131688   2.687   0.588   2.826 -0.0536 -1.1711  0.7939
 3399TIP3    H231689   2.834   0.575   2.860  0.3907  0.9579 -0.1271
 3400TIP3   OH231690   5.932   0.458  13.483  0.3305  0.9586 -0.1605
 3400TIP3    H131691   5.878   0.510  13.423  1.4207  1.2865 -0.8754
 3400TIP3    H231692   5.875   0.386  13.510 -0.6486  1.5899 -0.4556
 3401TIP3   OH231693   3.205   5.389   3.572 -0.5399  0.1099  0.3195
 3401TIP3    H131694   3.191   5.427   3.486  1.5731  1.1083  0.3480
 3401TIP3    H231695   3.278   5.439   3.609  0.8659 -2.4636  1.3178
 3402TIP3   OH231696   5.793   3.284  12.800  0.0391  0.2013 -0.9542
 3402TIP3    H131697   5.770   3.377  12.798  1.2175  0.6983  2.2855
 3402TIP3    H231698   5.713   3.241  12.832  0.5074  0.6133  0.8592
 3403TIP3   OH231699   4.430   4.498  14.815  0.2695 -0.2251 -0.2917
 3403TIP3    H131700   4.483   4.542  14.882  1.9973  0.2562 -1.8945
 3403TIP3    H231701   4.395   4.569  14.761  2.3738 -0.6510 -2.3860
 3404TIP3   OH231702   2.868   3.130   3.951 -0.1532  0.2456 -0.1193
 3404TIP3    H131703   2.955   3.119   3.913  0.7366  1.3318  1.4671
 3404TIP3    H231704   2.813   3.068   3.904  1.9833 -2.2598  0.4947
 3405TIP3   OH231705   3.471   5.208  14.090 -0.0575 -0.0286 -0.4727
 3405TIP3    H131706   3.395   5.149  14.094  0.5634 -0.8125  1.0799
 3405TIP3    H231707   3.455   5.271  14.160  0.6063 -0.0870 -0.2595
 3406TIP3   OH231708   0.251   0.591  15.741  0.2074  0.0251 -0.7232
 3406TIP3    H131709   0.209   0.624  15.661 -2.7336  1.4905  1.2320
 3406TIP3    H231710   0.282   0.670  15.785  0.9329 -0.6810  0.0649
 3407TIP3   OH231711   5.625   5.631  17.106  0.1348 -0.1607 -0.7374
 3407TIP3    H131712   5.639   5.628  17.201  1.0158 -0.3743 -0.8597
 3407TIP3    H231713   5.652   5.544  17.075 -0.9651 -0.3957 -1.0926
 3408TIP3   OH231714   0.837   5.903  16.219 -0.3069  0.0532 -0.8042
 3408TIP3    H131715   0.886   5.965  16.165  1.7994 -0.1816  0.6657
 3408TIP3    H231716   0.805   5.956  16.293  2.4857 -0.6403  1.0693
 3409TIP3   OH231717   5.432   6.609  16.339  0.3858 -0.0828 -0.6642
 3409TIP3    H131718   5.377   6.685  16.357  0.4522  0.2757 -1.8725
 3409TIP3    H231719   5.378   6.534  16.362 -1.0316  0.2282 -2.7606
 3410TIP3   OH231720   6.256   6.774  11.618  0.6647  0.9099  0.1573
 3410TIP3    H131721   6.304   6.693  11.599 -0.8179 -0.0008  0.2002
 3410TIP3    H231722   6.269   6.828  11.540 -1.9789 -1.1734 -1.8854
 3411TIP3   OH231723   2.173   5.984   0.009  0.1989 -0.0904  0.8510
 3411TIP3    H131724   2.153   5.892   0.027  0.1538 -0.6021 -1.4415
 3411TIP3    H231725   2.206   6.019   0.092  1.1332 -2.4366  1.5454
 3412TIP3   OH231726   0.981   6.121  13.203 -0.3722  0.2637 -0.1926
 3412TIP3    H131727   0.996   6.033  13.169 -1.0731  0.1192 -0.1480
 3412TIP3    H231728   0.888   6.122  13.227 -0.7197  1.4259 -1.4268
 3413TIP3   OH231729   3.365   0.303  11.670 -0.2668 -0.2638 -0.3625
 3413TIP3    H131730   3.303   0.357  11.719  3.1323  1.8931  2.0196
 3413TIP3    H231731   3.341   0.316  11.578 -1.8795  2.4059  0.3279
 3414TIP3   OH231732   2.219   1.563   3.787  0.4265  0.1899  0.0919
 3414TIP3    H131733   2.299   1.512   3.796 -0.3303 -0.7288  2.6330
 3414TIP3    H231734   2.151   1.508   3.827 -1.1448  1.6611 -0.4122
 3415TIP3   OH231735   0.002   3.368  12.537 -0.1510 -0.1306  0.4159
 3415TIP3    H131736  -0.059   3.401  12.471  0.7997  1.3515  0.2175
 3415TIP3    H231737   0.001   3.435  12.606  2.1777  0.6702 -0.2059
 3416TIP3   OH231738   4.544   5.763  16.272  0.5083 -0.4180  0.2810
 3416TIP3    H131739   4.488   5.707  16.327  0.7990 -1.1102 -0.1138
 3416TIP3    H231740   4.601   5.808  16.334 -1.5176  1.5460  0.8551
 3417TIP3   OH231741   0.036   1.315   4.012 -0.0887  0.3624 -0.6619
 3417TIP3    H131742  -0.033   1.333   4.076 -0.9671 -0.1953 -1.4290
 3417TIP3    H231743   0.104   1.272   4.063  1.0691  3.5624  0.7451
 3418TIP3   OH231744   5.537   1.181  16.148 -0.2937 -0.3824 -0.3684
 3418TIP3    H131745   5.600   1.234  16.099 -0.5701 -0.3445 -0.6914
 3418TIP3    H231746   5.522   1.230  16.228 -1.3480  0.5876 -1.1235
 3419TIP3   OH231747   0.984   0.247   1.533  0.0681  0.3356 -0.3256
 3419TIP3    H131748   0.931   0.168   1.524 -0.5878  0.7961 -0.5286
 3419TIP3    H231749   1.045   0.226   1.604 -0.5545 -0.1084  0.0881
 3420TIP3   OH231750   5.206   1.463  15.139 -0.4689  0.0658  0.1712
 3420TIP3    H131751   5.175   1.434  15.225 -0.1069 -1.5107 -0.2066
 3420TIP3    H231752   5.287   1.510  15.158  0.0566 -0.9905  0.6496
 3421TIP3   OH231753   2.393   2.300   3.804  0.5218 -0.2007  0.2671
 3421TIP3    H131754   2.408   2.271   3.714 -0.6412 -0.1451  0.0388
 3421TIP3    H231755   2.438   2.236   3.858  2.9278  0.8367 -0.3823
 3422TIP3   OH231756   2.161   1.265  16.571  0.1143  0.2895  0.0888
 3422TIP3    H131757   2.142   1.222  16.487  1.8354 -0.5727  0.1038
 3422TIP3    H231758   2.078   1.261  16.619 -1.2576  1.8358 -1.9652
 3423TIP3   OH231759   6.617   3.497   6.141  0.6235 -1.2319 -0.2703
 3423TIP3    H131760   6.588   3.588   6.156  0.6802 -0.8713 -2.0377
 3423TIP3    H231761   6.628   3.460   6.228 -0.9778 -0.0327  0.4958
 3424TIP3   OH231762   4.614   6.796  12.862 -0.2022  0.0125  0.5883
 3424TIP3    H131763   4.666   6.719  12.884  1.2433  0.6253 -0.5106
 3424TIP3    H231764   4.544   6.762  12.806 -1.4538 -0.9196  2.6290
 3425TIP3   OH231765   0.555   4.206   2.876  0.3387 -0.1560 -0.2507
 3425TIP3    H131766   0.635   4.251   2.904  1.0477 -0.8718 -1.0197
 3425TIP3    H231767   0.524   4.257   2.801  1.3522 -1.0938 -1.3606
 3426TIP3   OH231768   4.783   5.147  12.046  0.2554  0.1110  0.1031
 3426TIP3    H131769   4.865   5.101  12.062 -0.9208 -1.1527  3.4049
 3426TIP3    H231770   4.765   5.193  12.128 -2.7334 -0.3782 -0.1699
 3427TIP3   OH231771   4.818   6.534  16.905 -0.2286  0.2172 -0.3122
 3427TIP3    H131772   4.756   6.507  16.973  1.6023  0.1302  1.4369
 3427TIP3    H231773   4.765   6.546  16.827 -2.4120  0.0826  1.0696
 3428TIP3   OH231774   5.785   0.236  13.399  0.6144  0.3145  0.1723
 3428TIP3    H131775   5.864   0.251  13.348  0.7281 -0.8500 -0.0346
 3428TIP3    H231776   5.714   0.272  13.345  0.9184  0.6761  0.0120
 3429TIP3   OH231777   1.699   0.526   0.833 -0.3772 -0.0625 -0.1080
 3429TIP3    H131778   1.625   0.566   0.879 -0.3136 -0.6027  0.4765
 3429TIP3    H231779   1.659   0.459   0.778 -0.4844  0.7906 -1.0922
 3430TIP3   OH231780   1.725   6.601  12.300 -0.2532  0.1823  0.1447
 3430TIP3    H131781   1.633   6.582  12.283 -0.7275  1.3226  1.2265
 3430TIP3    H231782   1.766   6.516  12.311 -1.2545 -0.3362 -0.0327
 3431TIP3   OH231783   2.626   5.725  11.819  0.0591 -0.0857  0.3422
 3431TIP3    H131784   2.563   5.698  11.885  0.5652 -1.2308  0.3926
 3431TIP3    H231785   2.685   5.785  11.864 -0.9769  1.0133  0.2870
 3432TIP3   OH231786   6.074   0.441   5.055 -0.3898 -0.4989  0.6592
 3432TIP3    H131787   6.061   0.461   4.963  1.6203  0.0494  0.4544
 3432TIP3    H231788   5.988   0.453   5.095 -0.8238  1.4407 -0.7529
 3433TIP3   OH231789   6.667   1.121   1.484 -0.1069  0.1845  0.0873
 3433TIP3    H131790   6.637   1.185   1.548 -0.5152 -1.0079  1.1481
 3433TIP3    H231791   6.589   1.066   1.467  0.4861 -0.6527 -0.0028
 3434TIP3   OH231792   2.979   4.563  15.745  0.7406  0.0122 -0.5265
 3434TIP3    H131793   2.974   4.658  15.738  1.6738  0.1860  0.7814
 3434TIP3    H231794   3.070   4.546  15.770  0.4655 -1.1942 -0.3007
 3435TIP3   OH231795   2.579   1.047  10.726  0.2300  0.4837  0.2627
 3435TIP3    H131796   2.572   1.090  10.641  1.7508 -0.3422 -0.3020
 3435TIP3    H231797   2.666   1.070  10.759  0.2823 -0.4889  0.8642
 3436TIP3   OH231798   5.854   2.438   5.133 -0.1460 -0.1902  0.2028
 3436TIP3    H131799   5.800   2.364   5.103 -1.4071  0.1950  1.4199
 3436TIP3    H231800   5.885   2.480   5.053  0.0248 -1.6212 -0.5083
 3437TIP3   OH231801   1.945   2.059  17.195  0.1028 -0.3569 -0.1136
 3437TIP3    H131802   2.011   2.119  17.231 -0.6845 -0.1877  1.1145
 3437TIP3    H231803   1.953   2.069  17.100  0.5636  1.0637  0.0519
 3438TIP3   OH231804   5.676   3.686   4.392  0.4595  0.9288 -0.1962
 3438TIP3    H131805   5.719   3.675   4.307  0.0634 -1.5930 -0.1579
 3438TIP3    H231806   5.584   3.704   4.370  0.3069  0.0364 -0.3387
 3439TIP3   OH231807   2.796   6.216  12.943  0.2146  0.5805 -0.3217
 3439TIP3    H131808   2.809   6.229  12.849 -1.0276 -0.0725 -0.6046
 3439TIP3    H231809   2.843   6.288  12.984  2.3988 -0.1869 -1.3330
 3440TIP3   OH231810   6.624   5.584   4.136 -0.0558  0.8166  0.0838
 3440TIP3    H131811   6.541   5.541   4.156  1.1755 -1.9662 -0.2624
 3440TIP3    H231812   6.688   5.539   4.191  1.6762  0.6793 -1.9278
 3441TIP3   OH231813   6.102   4.552   3.362 -0.5174 -0.8567  0.8097
 3441TIP3    H131814   6.162   4.561   3.435  1.3601 -2.8126 -0.3670
 3441TIP3    H231815   6.043   4.481   3.389 -0.6172 -0.7372  0.9073
 3442TIP3   OH231816   3.187   4.482   1.932 -0.3641 -0.2294 -0.0495
 3442TIP3    H131817   3.116   4.524   1.884 -0.2256  0.2075  0.1233
 3442TIP3    H231818   3.185   4.523   2.019 -0.0302 -0.3616  0.0215
 3443TIP3   OH231819   5.305   5.291   1.617 -0.2381 -0.5030  0.5411
 3443TIP3    H131820   5.329   5.378   1.650 -0.3168  1.4196 -3.8436
 3443TIP3    H231821   5.388   5.246   1.605  0.0073 -0.0307  0.4397
 3444TIP3   OH231822   2.429   6.522   2.019 -0.0487 -0.5813 -0.5376
 3444TIP3    H131823   2.375   6.600   2.032 -0.4253 -0.8103 -0.7249
 3444TIP3    H231824   2.388   6.476   1.946  0.4274 -0.7336 -0.7157
 3445TIP3   OH231825   0.399   6.738  11.399  0.2619  0.0215 -0.2246
 3445TIP3    H131826   0.394   6.827  11.365 -0.8679  0.3402  0.6911
 3445TIP3    H231827   0.458   6.744  11.475 -0.4423  0.1785  0.3254
 3446TIP3   OH231828   2.007   3.805   1.253 -0.2788  0.1879  0.4160
 3446TIP3    H131829   2.039   3.733   1.308 -0.7551  0.5511  1.1933
 3446TIP3    H231830   1.934   3.767   1.205 -0.1119 -0.0279  0.3320
 3447TIP3   OH231831   3.701   5.347   3.696  0.3564  0.0715 -0.1440
 3447TIP3    H131832   3.770   5.412   3.682 -0.2780  0.5384 -1.2654
 3447TIP3    H231833   3.741   5.264   3.670  0.0575  0.5571 -2.3974
 3448TIP3   OH231834   1.704   6.637  11.324  0.0123  0.3128 -0.4041
 3448TIP3    H131835   1.624   6.650  11.274  1.2410  2.4871 -1.9905
 3448TIP3    H231836   1.759   6.581  11.269 -0.6872 -1.9685  1.0923
 3449TIP3   OH231837   3.573   6.194   0.443  0.4490  0.7715 -0.0444
 3449TIP3    H131838   3.663   6.205   0.472  0.7103 -0.1402 -0.4997
 3449TIP3    H231839   3.537   6.283   0.444  1.1697  1.0671  0.6944
 3450TIP3   OH231840   0.449   0.385  15.775 -0.1918 -0.0516 -0.2979
 3450TIP3    H131841   0.404   0.306  15.805 -0.7092 -0.3869 -1.8547
 3450TIP3    H231842   0.380   0.450  15.764  0.1457  0.4260  0.3717
 3451TIP3   OH231843   6.136   5.619  15.458 -0.1607 -0.2072  0.1212
 3451TIP3    H131844   6.129   5.578  15.545 -0.1650  0.7547  0.5908
 3451TIP3    H231845   6.055   5.594  15.413  0.0056 -1.0132  0.2592
 3452TIP3   OH231846   3.553   5.029  15.745 -0.2254  0.1143  0.0578
 3452TIP3    H131847   3.599   5.014  15.662 -1.6507 -0.2307 -0.6904
 3452TIP3    H231848   3.624   5.041  15.809  0.9131 -1.2336 -0.8874
 3453TIP3   OH231849   6.368   6.462   0.081  0.1385 -0.4026 -0.6389
 3453TIP3    H131850   6.360   6.552   0.051  0.2423 -0.0958  0.2299
 3453TIP3    H231851   6.343   6.409   0.005 -0.8923  0.3654 -0.8531
 3454TIP3   OH231852   6.240   6.094  11.843  0.9478  0.2709  0.3857
 3454TIP3    H131853   6.293   6.081  11.922  0.5966  0.8691  0.7301
 3454TIP3    H231854   6.180   6.165  11.867 -1.4580 -1.7729  0.7388
 3455TIP3   OH231855   2.141   6.467  13.695 -0.2240  0.6606 -0.0407
 3455TIP3    H131856   2.097   6.459  13.779 -3.6848 -1.0730 -1.7959
 3455TIP3    H231857   2.134   6.379  13.656  3.6789  0.6426 -1.1572
 3456TIP3   OH231858   3.060   1.113  11.510  0.2423  0.2839 -0.3973
 3456TIP3    H131859   3.110   1.164  11.446 -0.3271  1.1824 -0.1355
 3456TIP3    H231860   2.988   1.076  11.460 -1.9424  3.3797  0.1901
 3457TIP3   OH231861   0.797   4.226   2.266 -0.3245 -0.1170 -0.1404
 3457TIP3    H131862   0.751   4.293   2.317 -0.8735 -1.3644  1.0825
 3457TIP3    H231863   0.768   4.143   2.304  2.0748 -1.0020 -0.0694
 3458TIP3   OH231864   2.537   2.315   2.396 -0.4426 -0.3132 -0.4471
 3458TIP3    H131865   2.628   2.343   2.392  0.0950 -1.5732  1.6793
 3458TIP3    H231866   2.522   2.270   2.313  0.5160  0.8129 -1.2609
 3459TIP3   OH231867   1.885   1.161   5.860  0.2784 -0.5049  0.0974
 3459TIP3    H131868   1.796   1.175   5.827  0.4555  1.4256  0.3000
 3459TIP3    H231869   1.875   1.160   5.955  0.4496 -0.5111  0.1147
 3460TIP3   OH231870   4.649   2.574   5.734 -0.1535 -0.2242  0.7466
 3460TIP3    H131871   4.628   2.632   5.661  1.1070 -0.3926  0.2312
 3460TIP3    H231872   4.739   2.546   5.718 -0.7071 -2.3351  0.9686
 3461TIP3   OH231873   3.096   6.211   3.479  0.0115  0.6269  0.5798
 3461TIP3    H131874   3.149   6.196   3.557 -0.4462 -0.9370  0.6090
 3461TIP3    H231875   3.118   6.301   3.452  0.4577  1.0572  2.2715
 3462TIP3   OH231876   1.866   4.684   3.335 -0.7917  0.2031  0.1079
 3462TIP3    H131877   1.931   4.637   3.282 -0.3068 -0.3103  1.1214
 3462TIP3    H231878   1.840   4.758   3.281 -1.9930 -1.4977 -1.7970
 3463TIP3   OH231879   4.918   6.106   4.727 -0.3897 -0.3494 -0.5890
 3463TIP3    H131880   4.878   6.176   4.779  1.0580  0.2572 -0.2669
 3463TIP3    H231881   4.856   6.033   4.734 -1.7070  0.7165 -0.5460
 3464TIP3   OH231882   4.005   5.564  10.335  0.1552 -0.1096 -0.2302
 3464TIP3    H131883   4.064   5.616  10.390  0.7779  0.6163 -1.5466
 3464TIP3    H231884   3.949   5.518  10.398 -0.0641  1.7151  1.0093
 3465TIP3   OH231885   2.593   0.019  14.128 -0.0097 -0.0392  0.2086
 3465TIP3    H131886   2.572   0.068  14.207 -1.7172  1.3098 -1.0261
 3465TIP3    H231887   2.509  -0.009  14.093  0.6106  0.3384 -1.7134
 3466TIP3   OH231888   1.167   4.794   4.960 -0.0707  0.6079 -0.8578
 3466TIP3    H131889   1.137   4.826   4.875 -0.3979  0.9783 -0.6077
 3466TIP3    H231890   1.171   4.872   5.015  0.7798  0.4772 -0.7140
 3467TIP3   OH231891   2.010   5.460  15.620  0.2286  0.1813  0.2076
 3467TIP3    H131892   2.088   5.499  15.661  0.5604  0.2787 -0.4995
 3467TIP3    H231893   1.939   5.519  15.644  0.3266 -0.0221  1.0405
 3468TIP3   OH231894   3.490   5.303  16.993 -0.2844 -0.0088  0.3229
 3468TIP3    H131895   3.551   5.343  16.932  1.6653 -1.3226  1.3274
 3468TIP3    H231896   3.540   5.293  17.074 -1.2034 -2.8431  0.6333
 3469TIP3   OH231897   4.143   5.670   2.652  0.2591  0.3307 -0.2905
 3469TIP3    H131898   4.118   5.680   2.744 -0.5496  1.6558 -0.6297
 3469TIP3    H231899   4.060   5.654   2.606  0.6151  0.0297 -0.8483
 3470TIP3   OH231900   1.366   1.359  12.959 -0.6321  0.1652 -0.4407
 3470TIP3    H131901   1.418   1.409  13.022  1.1532 -2.9862  0.8345
 3470TIP3    H231902   1.421   1.356  12.880  0.0632 -1.0519  0.0536
 3471TIP3   OH231903   1.258   3.645  16.565 -0.0094  0.1677 -0.7462
 3471TIP3    H131904   1.281   3.638  16.657 -0.7328 -1.5231 -0.6600
 3471TIP3    H231905   1.203   3.722  16.559 -1.1647 -0.5262  0.5228
 3472TIP3   OH231906   5.211   4.823  15.546  0.2649 -0.0976 -0.4720
 3472TIP3    H131907   5.147   4.758  15.517  0.2339  0.3657 -1.4670
 3472TIP3    H231908   5.157   4.894  15.584  0.3459 -1.4653  2.5211
 3473TIP3   OH231909   6.574   1.081   4.089  0.5869  0.4919 -0.4594
 3473TIP3    H131910   6.622   1.098   4.170  1.4284 -2.7772 -0.1065
 3473TIP3    H231911   6.483   1.070   4.117  0.7277  0.2672 -0.0759
 3474TIP3   OH231912   4.400   4.125   4.304  0.1142  0.1353  0.1465
 3474TIP3    H131913   4.380   4.208   4.348  1.3273 -0.7753  2.6411
 3474TIP3    H231914   4.319   4.074   4.310 -0.1257  0.5176  0.1675
 3475TIP3   OH231915   4.432   6.596   2.774  0.4955 -0.5020  0.3450
 3475TIP3    H131916   4.357   6.643   2.811  1.0673  1.5657 -0.8975
 3475TIP3    H231917   4.460   6.651   2.701  3.7231 -0.7424  1.2301
 3476TIP3   OH231918   3.840   3.709   2.922  0.8359  0.1896  0.3414
 3476TIP3    H131919   3.814   3.656   2.847  0.4434  0.8453 -0.0029
 3476TIP3    H231920   3.871   3.646   2.987  0.1066 -0.4742  0.0606
 3477TIP3   OH231921   0.340   4.660   4.986 -0.0707 -0.7555 -0.2184
 3477TIP3    H131922   0.414   4.617   4.943  1.8729  2.1492 -0.0416
 3477TIP3    H231923   0.294   4.704   4.916  0.4428  0.2729  0.0740
 3478TIP3   OH231924   5.406   3.570   0.700 -0.2265  0.3779  0.3239
 3478TIP3    H131925   5.472   3.530   0.756 -1.0654 -1.8477 -0.1680
 3478TIP3    H231926   5.328   3.577   0.755 -0.1588  1.2331  0.3388
 3479TIP3   OH231927   4.284   5.616   0.688 -0.6838 -0.1441  0.0964
 3479TIP3    H131928   4.370   5.658   0.694  0.2164 -1.8807  0.0988
 3479TIP3    H231929   4.246   5.627   0.775  0.8244 -1.8351  1.0646
 3480TIP3   OH231930   3.771   3.499   2.411  0.5090 -1.0179 -0.3387
 3480TIP3    H131931   3.690   3.474   2.455  0.9177 -1.8576 -0.0402
 3480TIP3    H231932   3.841   3.461   2.465  1.0984 -0.3182 -0.5963
 3481TIP3   OH231933   1.598   4.515  13.495 -0.8648  0.4117 -0.1026
 3481TIP3    H131934   1.560   4.471  13.571  1.1510 -0.2954  0.5685
 3481TIP3    H231935   1.528   4.573  13.463 -1.6419  1.0710  2.5405
 3482TIP3   OH231936   0.042   6.120   5.853 -0.0634  0.3007 -0.1597
 3482TIP3    H131937   0.008   6.209   5.857  2.1053  1.2144 -0.8718
 3482TIP3    H231938   0.031   6.086   5.942 -1.0120  1.2265  0.0868
 3483TIP3   OH231939   2.007   0.843   2.088  0.2291 -0.4184 -0.6247
 3483TIP3    H131940   2.026   0.932   2.059  0.8643 -0.8071 -1.4353
 3483TIP3    H231941   1.911   0.840   2.094  0.1623  0.0865 -1.3468
 3484TIP3   OH231942   2.932   3.464   6.022  0.6709  0.3515  0.0674
 3484TIP3    H131943   2.848   3.470   6.068  1.2621  0.3548  1.1623
 3484TIP3    H231944   2.908   3.439   5.932 -0.8309  4.3516 -0.8511
 3485TIP3   OH231945   4.453   5.339   4.392  0.3689 -0.5897 -0.6036
 3485TIP3    H131946   4.508   5.298   4.326 -0.4577 -1.0194 -1.0356
 3485TIP3    H231947   4.515   5.371   4.458  1.1437 -0.8843 -1.1741
 3486TIP3   OH231948   0.583   5.576   3.501 -0.1666 -0.4385 -0.0331
 3486TIP3    H131949   0.532   5.513   3.449 -0.2311 -0.7160  0.3660
 3486TIP3    H231950   0.523   5.650   3.514 -0.1855 -0.4120 -0.2623
 3487TIP3   OH231951   2.821   2.817  15.651  0.3877 -0.3241  0.2200
 3487TIP3    H131952   2.735   2.827  15.691  1.2959  1.6527  1.8173
 3487TIP3    H231953   2.812   2.855  15.564 -0.7237 -1.5816 -0.2505
 3488TIP3   OH231954   2.227   1.344   4.771 -0.0454 -0.0657  0.4912
 3488TIP3    H131955   2.202   1.397   4.847  1.6796  2.1610 -0.3734
 3488TIP3    H231956   2.214   1.401   4.696  2.1061 -0.7624 -0.4903
 3489TIP3   OH231957   5.370   1.120  11.901  0.1253  0.2824  0.0598
 3489TIP3    H131958   5.321   1.128  11.983  1.5635 -0.6810  1.0668
 3489TIP3    H231959   5.306   1.092  11.836 -1.2995  2.2153  0.5419
 3490TIP3   OH231960   3.504   3.291  12.186 -0.5042 -0.4981 -0.1429
 3490TIP3    H131961   3.551   3.262  12.264 -0.8315 -0.7187 -0.0260
 3490TIP3    H231962   3.431   3.229  12.178 -0.8622 -0.0675 -0.2344
 3491TIP3   OH231963   6.253   3.352   2.856  0.3993  0.6164 -0.2915
 3491TIP3    H131964   6.335   3.305   2.841 -0.6263 -1.2789 -0.1710
 3491TIP3    H231965   6.257   3.376   2.949  0.6613  0.2268 -0.1971
 3492TIP3   OH231966   5.376   4.601   1.361 -0.0193 -0.3010  0.0443
 3492TIP3    H131967   5.406   4.611   1.271 -1.0917  0.4824 -0.2391
 3492TIP3    H231968   5.351   4.509   1.369 -0.5876 -0.2142 -0.6781
 3493TIP3   OH231969   6.540   4.539  15.748  0.0209 -0.6732  1.3427
 3493TIP3    H131970   6.584   4.482  15.811  0.6082 -2.1826 -0.3612
 3493TIP3    H231971   6.591   4.532  15.668 -1.4411  0.1300  0.2792
 3494TIP3   OH231972   2.535   1.408   5.439  0.7615 -0.1858  0.5656
 3494TIP3    H131973   2.469   1.474   5.459 -0.1893 -0.9291 -0.0357
 3494TIP3    H231974   2.504   1.367   5.358  3.8705  2.0151 -2.0225
 3495TIP3   OH231975   0.460   6.371   5.068  0.2026  0.0753 -0.0589
 3495TIP3    H131976   0.424   6.424   4.997  0.0544  0.6673  0.4461
 3495TIP3    H231977   0.422   6.284   5.055 -0.4720  0.3881 -0.2294
 3496TIP3   OH231978   0.969   6.221  11.848 -0.0726 -0.4146  0.2023
 3496TIP3    H131979   0.889   6.169  11.842 -1.2395  1.4104 -1.1435
 3496TIP3    H231980   0.997   6.213  11.939 -0.6048 -2.7075  0.2397
 3497TIP3   OH231981   4.465   6.380   1.862 -0.0291 -0.2989  0.4919
 3497TIP3    H131982   4.427   6.455   1.816  0.4385 -1.5429 -2.0576
 3497TIP3    H231983   4.530   6.345   1.802  0.8543 -1.8557  2.2692
 3498TIP3   OH231984   2.247   0.885   4.592  0.8080 -0.5323 -0.2083
 3498TIP3    H131985   2.281   0.909   4.506  0.0059  2.7538  0.2556
 3498TIP3    H231986   2.154   0.906   4.588  0.5377 -1.3554  1.1328
 3499TIP3   OH231987   0.291   6.811  16.054 -0.7012  0.4171  0.2661
 3499TIP3    H131988   0.251   6.834  15.970  0.0265  2.5616  0.4643
 3499TIP3    H231989   0.354   6.742  16.032 -2.6034 -1.2018 -0.4384
 3500TIP3   OH231990   0.574   6.677  15.119  0.1417 -0.4242 -0.0831
 3500TIP3    H131991   0.599   6.593  15.159  0.1680 -1.0153 -1.3220
 3500TIP3    H231992   0.651   6.703  15.068 -0.6549 -0.7551 -1.4874
 3501TIP3   OH231993   4.740   2.353   4.953  0.7840  0.0883  0.0144
 3501TIP3    H131994   4.700   2.428   4.998  1.2313  0.4375 -0.1597
 3501TIP3    H231995   4.833   2.375   4.949  0.8566 -0.2886 -0.4077
 3502TIP3   OH231996   1.279   2.390   2.940 -0.2038  0.2249  0.0011
 3502TIP3    H131997   1.341   2.396   3.012 -1.4811 -2.0663  1.4458
 3502TIP3    H231998   1.331   2.363   2.864  0.8266  0.2708  0.6831
 3503TIP3   OH231999   5.227   0.580  11.870  0.1057 -0.0753  0.0842
 3503TIP3    H132000   5.289   0.547  11.805  1.1647  1.7623  0.0971
 3503TIP3    H232001   5.142   0.546  11.842  0.9122 -1.5005 -0.7207
 3504TIP3   OH232002   4.345   1.080  16.367 -0.2282  0.3237  0.0280
 3504TIP3    H132003   4.371   1.107  16.279  1.8320 -0.7832  0.2608
 3504TIP3    H232004   4.382   1.147  16.424  2.1672 -1.1832  0.3486
 3505TIP3   OH232005   1.734   4.275   4.783 -0.0907 -0.8865  0.0659
 3505TIP3    H132006   1.722   4.226   4.864  0.5127 -3.2516 -1.1494
 3505TIP3    H232007   1.826   4.259   4.760 -0.3924 -0.7310 -1.3263
 3506TIP3   OH232008   0.639   1.095   1.349  0.3071  0.8923 -0.1287
 3506TIP3    H132009   0.721   1.114   1.304  0.1312  2.5212  0.1998
 3506TIP3    H232010   0.666   1.061   1.434  0.6381 -2.1244 -1.3054
 3507TIP3   OH232011   5.717   2.867   0.475  0.0620  0.0396 -0.1555
 3507TIP3    H132012   5.739   2.862   0.568  0.4911  1.2922 -0.1639
 3507TIP3    H232013   5.622   2.880   0.473 -0.0702 -0.8560  0.0651
 3508TIP3   OH232014   6.747   4.053  11.437 -0.1933  0.1128  0.1856
 3508TIP3    H132015   6.687   4.123  11.414  2.3629  1.8800 -1.7968
 3508TIP3    H232016   6.809   4.093  11.497  0.6053 -0.7817 -0.0137
 3509TIP3   OH232017   5.101   1.489   3.466  0.1684  0.1684 -0.3266
 3509TIP3    H132018   5.059   1.574   3.456 -0.9878 -0.1502  1.2963
 3509TIP3    H232019   5.141   1.492   3.553  0.4088 -0.8074 -0.3897
 3510TIP3   OH232020   0.437   1.892  12.497  0.2043 -0.7522  0.0512
 3510TIP3    H132021   0.509   1.943  12.460  0.4181 -1.8338 -1.0864
 3510TIP3    H232022   0.366   1.955  12.509  0.8160  0.0137 -0.2836
 3511TIP3   OH232023   5.624   6.622   3.667 -0.2518  0.3803  0.1201
 3511TIP3    H132024   5.690   6.651   3.604  0.4097  3.5972  2.0665
 3511TIP3    H232025   5.672   6.611   3.749 -1.4355 -1.6542  0.5966
 3512TIP3   OH232026   1.548   2.269  14.648  0.3548 -0.3272 -0.3621
 3512TIP3    H132027   1.565   2.211  14.574 -2.1386 -2.1911  0.3833
 3512TIP3    H232028   1.468   2.317  14.623  0.7404  0.6521  0.2338
 3513TIP3   OH232029   0.028   6.708   2.190 -0.2568  0.4511 -0.6882
 3513TIP3    H132030  -0.049   6.682   2.239  0.0063 -0.6780 -0.8471
 3513TIP3    H232031   0.088   6.633   2.197  0.5555  1.0393 -1.1182
 3514TIP3   OH232032   2.616   5.519   3.107  0.4698  0.4835  0.2123
 3514TIP3    H132033   2.616   5.550   3.017  1.6851  0.2147  0.1051
 3514TIP3    H232034   2.695   5.557   3.146  0.5701 -0.3361  0.8355
 3515TIP3   OH232035   6.064   6.817  12.783  0.1524 -0.4735  0.3705
 3515TIP3    H132036   6.153   6.853  12.785 -0.4523  1.0942  0.8357
 3515TIP3    H232037   6.053   6.784  12.694  1.0506 -0.2665  0.1735
 3516TIP3   OH232038   4.476   0.611  11.449  0.3261 -0.1170  0.0028
 3516TIP3    H132039   4.503   0.703  11.457 -1.7500  0.6741 -1.3005
 3516TIP3    H232040   4.395   0.606  11.500 -0.8351 -0.5953 -1.8048
 3517TIP3   OH232041   6.103   6.152   5.599  0.6611 -0.1084  0.1384
 3517TIP3    H132042   6.156   6.163   5.678  0.7045  0.1953  0.0712
 3517TIP3    H232043   6.059   6.068   5.610 -0.8223  0.7744  1.3721
 3518TIP3   OH232044   3.360   3.302   1.592  0.0273 -0.0985 -0.1213
 3518TIP3    H132045   3.352   3.320   1.686 -1.2300  0.7045 -0.3586
 3518TIP3    H232046   3.364   3.206   1.586  1.7285 -0.1197  0.8414
 3519TIP3   OH232047   2.629   0.890  11.743 -0.2529 -0.3405  0.0849
 3519TIP3    H132048   2.549   0.864  11.787 -0.4241 -1.6939 -0.9547
 3519TIP3    H232049   2.606   0.970  11.696 -1.7303 -1.8937 -2.0490
 3520TIP3   OH232050   3.608   2.304   6.041  0.2006  0.4140  0.3819
 3520TIP3    H132051   3.573   2.228   5.993 -0.7877 -0.2044  1.9938
 3520TIP3    H232052   3.604   2.376   5.978 -1.2027 -0.3235 -0.4385
 3521TIP3   OH232053   5.931   3.782  11.468  0.7318 -0.6545  0.2985
 3521TIP3    H132054   5.847   3.793  11.513  1.7253 -0.7452  2.2816
 3521TIP3    H232055   5.913   3.806  11.377 -1.6795 -1.6852  0.4207
 3522TIP3   OH232056   3.696   2.592  15.455 -0.2156  0.0888  0.0091
 3522TIP3    H132057   3.684   2.531  15.528 -0.5806 -0.6496 -0.6518
 3522TIP3    H232058   3.736   2.539  15.386 -0.3909  0.6384 -0.5223
 3523TIP3   OH232059   1.451   1.385   3.013  0.2674  0.3376  0.2059
 3523TIP3    H132060   1.533   1.375   2.964  0.4041  0.2888  0.4464
 3523TIP3    H232061   1.416   1.297   3.019 -0.5180  0.5224 -1.1237
 3524TIP3   OH232062   4.709   5.890  11.851  0.2584  0.1459 -0.2799
 3524TIP3    H132063   4.789   5.908  11.902  0.1138  0.4651 -0.1623
 3524TIP3    H232064   4.667   5.975  11.842 -0.0795 -0.0257 -0.3279
 3525TIP3   OH232065   4.769   5.622  13.786 -0.1130 -0.1332 -0.4181
 3525TIP3    H132066   4.751   5.660  13.700  1.0131  1.0901 -0.1557
 3525TIP3    H232067   4.694   5.566  13.804 -0.9268  0.4979 -1.6905
 3526TIP3   OH232068   5.540   2.536   1.303 -0.6930 -0.4259  0.2931
 3526TIP3    H132069   5.485   2.524   1.380 -1.9637 -1.3931 -0.7055
 3526TIP3    H232070   5.627   2.552   1.337 -1.3255 -0.3333  1.9273
 3527TIP3   OH232071   0.056   1.964  11.757 -0.1926 -0.2871 -0.2065
 3527TIP3    H132072   0.012   2.043  11.728  0.5315  0.5611  0.9163
 3527TIP3    H232073  -0.014   1.903  11.779 -0.9033  1.1341  1.8448
 3528TIP3   OH232074   6.230   3.198   1.093  0.1550 -0.2868  0.3582
 3528TIP3    H132075   6.279   3.186   1.012 -2.1518  2.4077 -1.6280
 3528TIP3    H232076   6.246   3.288   1.119 -0.1303 -0.7360  2.2896
 3529TIP3   OH232077   3.997   5.245  15.804 -0.6634 -0.3065 -0.4470
 3529TIP3    H132078   4.003   5.150  15.815 -1.2116 -0.4273 -1.1152
 3529TIP3    H232079   3.941   5.256  15.727 -0.2748  0.5513 -0.6082
 3530TIP3   OH232080   4.791   0.016  14.620 -0.0845  0.2886 -0.4299
 3530TIP3    H132081   4.743   0.096  14.598 -0.0381  0.0764 -1.3634
 3530TIP3    H232082   4.756  -0.049  14.560 -0.5001 -0.5364  0.6723
 3531TIP3   OH232083   6.440   4.759   2.985  0.3127  0.2887  0.5429
 3531TIP3    H132084   6.511   4.741   3.047  0.1753 -3.3862 -0.0995
 3531TIP3    H232085   6.427   4.675   2.940 -3.0509  1.3952 -0.8301
 3532TIP3   OH232086   0.105   6.049  16.088 -0.4386  0.1943  0.3741
 3532TIP3    H132087   0.141   6.099  16.161  1.2536 -2.2346  1.3580
 3532TIP3    H232088   0.013   6.036  16.111 -0.0863  0.0181  1.7823
 3533TIP3   OH232089   5.677   1.470   0.902  0.3323  0.2244  0.1947
 3533TIP3    H132090   5.709   1.541   0.846  1.0878  1.1096  1.6925
 3533TIP3    H232091   5.701   1.497   0.991  1.3104 -2.2438  0.7651
 3534TIP3   OH232092   5.075   4.588  10.765  0.1303 -0.5329  0.2230
 3534TIP3    H132093   5.103   4.530  10.836  0.0901 -0.1735  0.5340
 3534TIP3    H232094   5.059   4.529  10.692  1.2422 -0.7885  0.1748
 3535TIP3   OH232095   0.150   3.779  13.704 -0.1376 -0.2848  0.1321
 3535TIP3    H132096   0.129   3.692  13.672  1.9745 -0.2259 -1.6741
 3535TIP3    H232097   0.153   3.834  13.625 -1.3263  1.4372  1.2108
 3536TIP3   OH232098   0.950   5.567  15.596 -0.4927 -0.4936 -0.2743
 3536TIP3    H132099   1.026   5.605  15.552 -1.4163 -0.3837 -1.8730
 3536TIP3    H232100   0.897   5.530  15.525 -2.2569  0.0265  0.6994
 3537TIP3   OH232101   2.918   1.655  11.950  0.3799 -0.1604  0.0409
 3537TIP3    H132102   3.010   1.628  11.956 -0.2870 -2.9343 -0.5567
 3537TIP3    H232103   2.887   1.656  12.040  0.4192 -1.7332  0.1035
 3538TIP3   OH232104   6.246   0.460  13.293  0.0332  0.1176  0.6731
 3538TIP3    H132105   6.255   0.554  13.279 -0.6549 -0.1555 -2.0194
 3538TIP3    H232106   6.265   0.421  13.208 -1.6583 -2.0545  1.2095
 3539TIP3   OH232107   3.338   3.383  13.759  0.1419 -0.5906  0.1724
 3539TIP3    H132108   3.417   3.436  13.755  0.3248 -0.8336  0.4855
 3539TIP3    H232109   3.370   3.295  13.782  0.0780 -1.3372 -2.3189
 3540TIP3   OH232110   6.727   1.090  13.149  0.5047  0.1559  0.4699
 3540TIP3    H132111   6.820   1.073  13.164  0.2817 -0.8281  0.8165
 3540TIP3    H232112   6.686   1.074  13.234 -0.6773 -4.7519 -0.7440
 3541TIP3   OH232113   2.076   0.532  15.597 -0.1188 -0.4646 -0.2956
 3541TIP3    H132114   2.072   0.537  15.693  0.7221  0.2400 -0.2808
 3541TIP3    H232115   2.059   0.440  15.577 -1.0025 -0.4908  0.4823
 3542TIP3   OH232116   3.564   3.182  12.434  0.2161  0.1497 -0.0655
 3542TIP3    H132117   3.480   3.140  12.453 -0.1324  0.1178 -1.5852
 3542TIP3    H232118   3.628   3.110  12.433 -0.0891 -0.1146 -0.9484
 3543TIP3   OH232119   2.968   1.380   0.128 -0.2959  0.6337 -0.0321
 3543TIP3    H132120   2.980   1.396   0.221 -0.4051 -0.2590  0.1491
 3543TIP3    H232121   3.046   1.331   0.101 -0.3630  0.7030 -0.3658
 3544TIP3   OH232122   3.897   6.707   1.571  0.1788  0.1063  0.3671
 3544TIP3    H132123   3.968   6.762   1.538  0.5223 -0.2954  0.4198
 3544TIP3    H232124   3.941   6.627   1.600 -0.4987 -0.9400 -1.3542
 3545TIP3   OH232125   2.208   1.301   3.506 -0.1514  0.2989 -0.4889
 3545TIP3    H132126   2.274   1.369   3.513 -0.9068  1.0375 -0.3170
 3545TIP3    H232127   2.199   1.284   3.412  1.8746 -1.4469 -0.4445
 3546TIP3   OH232128   6.742   5.201   2.924  0.6049  0.3191 -0.3380
 3546TIP3    H132129   6.787   5.253   2.857  0.9749  0.0211 -0.3307
 3546TIP3    H232130   6.813   5.152   2.966  0.8329  2.7998  2.4202
 3547TIP3   OH232131   6.675   4.054   5.071 -0.8957 -0.3458 -0.0424
 3547TIP3    H132132   6.604   4.103   5.029 -0.4121  1.5132  1.1749
 3547TIP3    H232133   6.743   4.047   5.004 -1.8345 -1.3546 -0.9301
 3548TIP3   OH232134   3.010   5.852   5.455 -0.3248  0.2094 -0.5025
 3548TIP3    H132135   2.928   5.843   5.407 -0.5483  0.2189 -0.1252
 3548TIP3    H232136   2.987   5.901   5.534  0.2228  1.0151 -0.8352
 3549TIP3   OH232137   5.921   0.123  15.956 -0.1264 -0.2665 -0.4874
 3549TIP3    H132138   6.005   0.167  15.970 -0.8863  0.7052  1.4107
 3549TIP3    H232139   5.898   0.142  15.865  0.5095  1.6520 -0.2905
 3550TIP3   OH232140   2.801   2.919   0.144 -0.4606  0.1219  0.6421
 3550TIP3    H132141   2.894   2.908   0.128 -0.8656 -0.0108 -2.2503
 3550TIP3    H232142   2.796   2.985   0.213  1.7956  1.5337 -0.4201
 3551TIP3   OH232143   5.916   6.504  11.718  0.0223  0.3095  0.4512
 3551TIP3    H132144   5.853   6.434  11.700 -0.1451  0.6749 -0.4677
 3551TIP3    H232145   6.001   6.461  11.720 -0.2760 -0.2949  2.3355
 3552TIP3   OH232146   1.909   1.141  11.610 -0.7418 -0.1120  0.5733
 3552TIP3    H132147   1.970   1.173  11.544 -2.1021  0.0268 -0.6777
 3552TIP3    H232148   1.851   1.081  11.562 -2.4173  0.7932  1.3737
 3553TIP3   OH232149   4.795   6.303  13.100 -0.1261 -0.4288  0.2256
 3553TIP3    H132150   4.787   6.213  13.068  0.5367  0.3228 -2.2081
 3553TIP3    H232151   4.711   6.321  13.142 -1.8286 -0.9359 -2.7295
 3554TIP3   OH232152   0.383   0.007   1.540  0.0482 -0.3052 -0.5287
 3554TIP3    H132153   0.425  -0.002   1.455  1.5309  2.4447 -0.1954
 3554TIP3    H232154   0.439   0.067   1.589 -2.1421  0.3181  1.4266
 3555TIP3   OH232155   2.566   6.766   2.142  0.1355  0.7627 -0.2973
 3555TIP3    H132156   2.506   6.819   2.194 -0.1400 -0.3904  0.6177
 3555TIP3    H232157   2.573   6.683   2.190 -1.3310 -0.9995 -2.8615
 3556TIP3   OH232158   1.085   2.287   4.678  0.0049  0.2466 -0.5230
 3556TIP3    H132159   1.160   2.291   4.619 -0.4987  1.0967 -1.1268
 3556TIP3    H232160   1.115   2.333   4.757  0.1831  0.4372 -0.6973
 3557TIP3   OH232161   4.088   6.116   6.025 -0.0787  0.1395 -0.2939
 3557TIP3    H132162   4.056   6.049   6.086  0.0823 -1.6387 -2.0603
 3557TIP3    H232163   4.157   6.162   6.074 -1.1032 -0.0508  1.4246
 3558TIP3   OH232164   0.615   4.936   0.351 -0.5158 -0.0463 -0.0629
 3558TIP3    H132165   0.614   5.022   0.395 -1.0332 -0.1199  0.0817
 3558TIP3    H232166   0.647   4.955   0.263  0.8359  0.0556  0.4282
 3559TIP3   OH232167   6.363   6.281   3.569  0.0273  0.1690  0.0364
 3559TIP3    H132168   6.377   6.218   3.640 -1.8960  0.3119  0.6115
 3559TIP3    H232169   6.347   6.364   3.614 -0.2332  0.4700 -0.6075
 3560TIP3   OH232170   2.190   2.536  11.333  0.5561 -0.3221 -0.0544
 3560TIP3    H132171   2.228   2.620  11.359  0.0497 -0.2511  0.4852
 3560TIP3    H232172   2.201   2.533  11.238 -0.3820  0.8461 -0.2206
 3561TIP3   OH232173   1.826   3.302   4.389 -0.0908 -0.0516 -0.0948
 3561TIP3    H132174   1.791   3.342   4.310  0.0015  0.6675  0.2161
 3561TIP3    H232175   1.909   3.263   4.362 -0.1139  0.0951 -0.3768
 3562TIP3   OH232176   4.915   2.827   3.981  0.1839 -0.2580  0.5224
 3562TIP3    H132177   4.933   2.887   4.053  0.5701 -0.4154  0.5573
 3562TIP3    H232178   4.996   2.826   3.929  0.0216 -0.3968  0.2680
 3563TIP3   OH232179   4.876   3.383  13.740  0.2868  0.7329 -0.2078
 3563TIP3    H132180   4.870   3.291  13.714  3.6780  0.9209 -2.1706
 3563TIP3    H232181   4.839   3.431  13.667  2.5414  0.9891 -1.2552
 3564TIP3   OH232182   4.750   4.069  11.759  0.8706 -0.0071 -0.0703
 3564TIP3    H132183   4.783   3.981  11.776  2.0363  0.5482  0.6666
 3564TIP3    H232184   4.809   4.103  11.691 -1.2076 -0.7065 -2.4015
 3565TIP3   OH232185   2.301   5.149   1.867  0.1925 -0.1048 -0.7565
 3565TIP3    H132186   2.261   5.223   1.913 -0.5703 -0.6868 -0.4628
 3565TIP3    H232187   2.234   5.119   1.806  0.8523  0.0446 -1.5761
 3566TIP3   OH232188   4.897   0.821  12.296 -0.1217  0.1670  0.4292
 3566TIP3    H132189   4.981   0.866  12.298  0.3055 -0.5011 -0.9065
 3566TIP3    H232190   4.910   0.749  12.234 -1.8952  0.5388 -0.4541
 3567TIP3   OH232191   4.806   5.820   5.657  0.5262 -0.4715  0.3135
 3567TIP3    H132192   4.848   5.739   5.627 -0.2762 -0.7232 -0.1665
 3567TIP3    H232193   4.879   5.880   5.674  1.1294 -1.2827  0.6531
 3568TIP3   OH232194   0.722   1.628  13.687 -0.3760  0.0180  0.3689
 3568TIP3    H132195   0.795   1.634  13.626 -0.6128  0.2399  0.1046
 3568TIP3    H232196   0.644   1.635  13.632 -0.6224 -1.4652  0.4978
 3569TIP3   OH232197   3.098   5.913   1.892 -0.8298  0.0290  0.9180
 3569TIP3    H132198   3.143   5.850   1.947  1.0413 -0.9726 -1.5658
 3569TIP3    H232199   3.167   5.957   1.843 -2.3542 -0.8055 -2.2870
 3570TIP3   OH232200   1.280   1.880  16.351 -0.2809  0.6159  0.0295
 3570TIP3    H132201   1.193   1.916  16.364 -0.3531 -0.4353  3.2375
 3570TIP3    H232202   1.337   1.957  16.340 -1.3713  1.3486 -0.7281
 3571TIP3   OH232203   3.827   2.474  16.513  0.0304 -1.1303 -0.4854
 3571TIP3    H132204   3.832   2.396  16.567  1.1733 -1.0698 -0.4767
 3571TIP3    H232205   3.766   2.451  16.443 -0.5392 -1.6195  0.1627
 3572TIP3   OH232206   0.019   5.312  16.187  0.2379 -0.2324  0.3212
 3572TIP3    H132207  -0.034   5.299  16.108  0.1241 -1.4026  0.5637
 3572TIP3    H232208   0.013   5.228  16.233  2.6144 -0.5463  0.1680
 3573TIP3   OH232209   6.643   6.622  14.752 -0.1818 -0.2164 -0.6787
 3573TIP3    H132210   6.618   6.678  14.825  0.8254  0.1771 -0.6172
 3573TIP3    H232211   6.738   6.613  14.761  0.0840  0.5438 -2.4397
 3574TIP3   OH232212   3.593   4.525   3.956 -0.1775  0.3246  0.3696
 3574TIP3    H132213   3.599   4.579   3.877 -0.5704  0.0759  0.1655
 3574TIP3    H232214   3.615   4.585   4.028 -1.9519  1.1505  0.2917
 3575TIP3   OH232215   0.102   6.157  16.858 -0.2260  0.4664  0.6013
 3575TIP3    H132216   0.189   6.122  16.840 -0.1074  0.2160  1.6337
 3575TIP3    H232217   0.058   6.089  16.909 -1.4773  0.0618 -0.9248
 3576TIP3   OH232218   4.667   5.506   0.756  0.0278  0.0559  0.6847
 3576TIP3    H132219   4.760   5.491   0.738  0.3941 -1.2165  3.1257
 3576TIP3    H232220   4.633   5.419   0.777 -0.8964  0.9058  3.0254
 3577TIP3   OH232221   0.170   1.300   5.595  0.4559 -0.4185  0.1854
 3577TIP3    H132222   0.209   1.354   5.526  2.4407 -0.4401  1.2173
 3577TIP3    H232223   0.159   1.214   5.554  2.5051 -0.7050  0.0893
 3578TIP3   OH232224   0.738   5.737   4.059  0.1181 -0.0737 -0.3322
 3578TIP3    H132225   0.772   5.769   3.976 -0.8866  0.2618 -0.6242
 3578TIP3    H232226   0.689   5.811   4.095 -0.2119 -0.5104  0.1262
 3579TIP3   OH232227   1.784   6.797  11.094 -0.7624 -0.2977 -0.2186
 3579TIP3    H132228   1.701   6.749  11.093 -0.9302 -0.0138  0.0339
 3579TIP3    H232229   1.801   6.813  11.187 -1.3911  1.3177 -0.3522
 3580TIP3   OH232230   5.147   4.519   3.069  0.2466 -0.7313  0.2049
 3580TIP3    H132231   5.214   4.480   3.126  0.6791  0.6796  0.7100
 3580TIP3    H232232   5.179   4.608   3.053  0.4731 -1.2432 -2.8056
 3581TIP3   OH232233   3.674   2.484  14.075 -0.3098  0.4466 -0.3801
 3581TIP3    H132234   3.712   2.568  14.050  0.9664 -0.2117 -0.7303
 3581TIP3    H232235   3.629   2.501  14.158 -0.2893  1.5222 -0.5824
 3582TIP3   OH232236   1.774   5.905  16.591 -0.6930 -0.2405  0.3825
 3582TIP3    H132237   1.682   5.915  16.565 -0.0980  1.4725 -1.3280
 3582TIP3    H232238   1.818   5.872  16.513  0.4294  0.6827  0.5979
 3583TIP3   OH232239   6.811   1.005  17.124 -0.0526  0.1022 -0.3432
 3583TIP3    H132240   6.902   0.981  17.109 -0.8898 -3.4984 -0.4320
 3583TIP3    H232241   6.816   1.090  17.169  3.3627 -0.4645  0.6274
 3584TIP3   OH232242   6.799   5.489  17.187 -0.2034  0.4955  0.6604
 3584TIP3    H132243   6.824   5.471  17.278  0.4219 -0.8239  0.2538
 3584TIP3    H232244   6.841   5.420  17.136  1.6894  2.6892 -0.9723
 3585TIP3   OH232245   0.693   4.996  13.197 -0.4640 -0.1213  0.0067
 3585TIP3    H132246   0.705   4.903  13.175  1.0989  0.5580 -2.2619
 3585TIP3    H232247   0.773   5.039  13.168 -1.3662  2.0568  0.5298
 3586TIP3   OH232248   2.783   4.578   2.260 -0.2668  0.6584 -0.2429
 3586TIP3    H132249   2.819   4.511   2.202 -1.1679  0.3227 -0.4310
 3586TIP3    H232250   2.847   4.585   2.331 -0.5938 -1.0673  0.2666
 3587TIP3   OH232251   0.987   4.746  15.337 -0.2565 -0.7315  0.6202
 3587TIP3    H132252   0.971   4.718  15.247 -0.1944  1.4204 -0.1106
 3587TIP3    H232253   0.979   4.841  15.335 -0.4287 -0.6313  2.9400
 3588TIP3   OH232254   4.372   0.458   4.137  0.3586 -0.3445 -0.0238
 3588TIP3    H132255   4.391   0.486   4.227 -1.9105  0.9297  0.1457
 3588TIP3    H232256   4.298   0.398   4.147  0.1576 -0.2766 -1.0198
 3589TIP3   OH232257   5.505   1.192  13.244 -0.1548 -0.0547  0.1504
 3589TIP3    H132258   5.578   1.164  13.301  0.2778  1.2087  0.2447
 3589TIP3    H232259   5.515   1.139  13.165 -0.0299 -0.9611  0.7540
 3590TIP3   OH232260   0.825   1.575   5.271 -0.4383 -0.9256 -0.4091
 3590TIP3    H132261   0.802   1.634   5.198 -1.4277 -1.6125 -0.6821
 3590TIP3    H232262   0.751   1.583   5.332  0.8168  0.3600  1.0195
 3591TIP3   OH232263   3.393   3.327   4.665  0.0157 -0.3691  0.0261
 3591TIP3    H132264   3.348   3.332   4.749 -2.7280 -1.4357 -1.2533
 3591TIP3    H232265   3.444   3.246   4.669 -0.3115 -0.5511  0.5633
 3592TIP3   OH232266   5.781   1.133  14.751 -0.1237  0.1260  0.1279
 3592TIP3    H132267   5.844   1.074  14.791 -0.6153 -1.9492 -1.9337
 3592TIP3    H232268   5.833   1.188  14.692  0.3046  1.7291  1.8995
 3593TIP3   OH232269   5.654   1.381   0.621 -0.2178 -0.1287 -0.3346
 3593TIP3    H132270   5.652   1.286   0.630 -0.0527 -0.0670  0.4212
 3593TIP3    H232271   5.746   1.405   0.633 -0.6400  0.3930  2.7675
 3594TIP3   OH232272   6.363   5.049   4.339 -0.1696  0.2852 -0.0827
 3594TIP3    H132273   6.357   5.089   4.252 -0.1801 -0.8296 -0.6098
 3594TIP3    H232274   6.414   4.969   4.325 -1.2118 -0.5434  0.7008
 3595TIP3   OH232275   0.153   3.446  13.260 -0.0157 -0.4163 -0.4726
 3595TIP3    H132276   0.205   3.400  13.194 -1.3674  0.2642 -2.0791
 3595TIP3    H232277   0.130   3.378  13.324 -0.0163 -1.4667 -1.5564
 3596TIP3   OH232278   5.847   4.752   0.272 -0.2765 -0.3814 -0.4711
 3596TIP3    H132279   5.774   4.750   0.334 -1.3268 -0.1899 -1.6610
 3596TIP3    H232280   5.899   4.828   0.299  0.6152 -1.6184  1.5783
 3597TIP3   OH232281   5.070   2.383  16.997 -0.2362 -0.4841 -0.1387
 3597TIP3    H132282   4.989   2.335  16.982 -0.9192  0.5228  0.2632
 3597TIP3    H232283   5.068   2.407  17.090 -0.9859  2.1713 -0.7472
 3598TIP3   OH232284   3.478   1.941   0.209 -0.1263 -0.4051 -0.8705
 3598TIP3    H132285   3.384   1.943   0.195 -0.1968 -0.5495 -0.4500
 3598TIP3    H232286   3.497   1.851   0.235 -0.4369  0.3520  2.5415
 3599TIP3   OH232287   0.279   5.663   3.274  0.3062 -0.4730  0.0206
 3599TIP3    H132288   0.283   5.589   3.334  1.8272 -0.6036 -0.2049
 3599TIP3    H232289   0.238   5.733   3.325 -4.0674 -2.2063 -0.6701
 3600TIP3   OH232290   3.018   2.908   3.608  0.5645  0.1105  0.0289
 3600TIP3    H132291   3.068   2.839   3.650 -1.3103 -1.3304  0.0171
 3600TIP3    H232292   3.019   2.980   3.670  2.2463 -0.0190  0.1990
 3601TIP3   OH232293   3.633   1.563  12.222 -0.2888 -0.1414 -0.6740
 3601TIP3    H132294   3.621   1.583  12.129 -2.1143  1.3519 -0.1538
 3601TIP3    H232295   3.594   1.636  12.269  0.3166 -1.0042  1.3043
 3602TIP3   OH232296   0.034   3.539  14.356 -0.1426  0.1430 -0.2147
 3602TIP3    H132297   0.065   3.541  14.266 -2.0110 -0.4070 -0.9235
 3602TIP3    H232298  -0.049   3.491  14.352 -0.8741  1.1249  1.6053
 3603TIP3   OH232299   1.942   3.611   4.882  0.4612 -0.6602  0.0344
 3603TIP3    H132300   1.948   3.528   4.929 -2.7370  0.0335  1.9819
 3603TIP3    H232301   1.851   3.615   4.853  1.3281  0.7860 -2.8568
 3604TIP3   OH232302   1.058   1.864   4.900 -0.5499  0.0308 -0.4429
 3604TIP3    H132303   1.070   1.834   4.991  0.3858 -2.2889 -1.2502
 3604TIP3    H232304   1.014   1.790   4.857 -2.0140  1.5457 -1.6583
 3605TIP3   OH232305   6.429   5.226   4.552 -0.4236  0.4070 -0.0182
 3605TIP3    H132306   6.426   5.151   4.493 -0.3689 -0.1988  0.7297
 3605TIP3    H232307   6.502   5.279   4.520  0.5304 -0.6405  0.3436
 3606TIP3   OH232308   5.308   0.477   3.337 -0.1996  0.1937 -0.1491
 3606TIP3    H132309   5.217   0.486   3.366 -0.1691 -1.4763  0.5576
 3606TIP3    H232310   5.360   0.509   3.410 -0.1920 -1.3980  0.5905
 3607TIP3   OH232311   4.283   2.764  11.277  0.7586  0.1453  0.9631
 3607TIP3    H132312   4.265   2.853  11.306  0.4056  0.4703 -0.2130
 3607TIP3    H232313   4.218   2.710  11.323  1.4206  0.3743  2.2188
 3608TIP3   OH232314   1.057   2.233   5.210  0.3548  0.4201 -0.0972
 3608TIP3    H132315   1.151   2.249   5.198  0.5617  0.2584  1.1646
 3608TIP3    H232316   1.047   2.219   5.304 -0.4609 -2.6141 -0.5341
 3609TIP3   OH232317   6.742   1.910   0.573 -0.2490 -0.4268  0.5703
 3609TIP3    H132318   6.786   1.947   0.649 -2.3084  0.6232  1.3265
 3609TIP3    H232319   6.710   1.986   0.524 -0.1809 -1.1219 -0.5944
 3610TIP3   OH232320   6.718   5.147   3.662 -0.0179  0.3912 -0.2444
 3610TIP3    H132321   6.784   5.202   3.705 -0.9978  0.7124  0.8914
 3610TIP3    H232322   6.747   5.142   3.571  1.3595  0.8497  0.1417
 3611TIP3   OH232323   2.006   6.620   2.331  0.2238  0.4910  0.0274
 3611TIP3    H132324   2.001   6.662   2.246 -1.1662 -1.3405 -0.8759
 3611TIP3    H232325   2.087   6.569   2.329  0.9355  1.5809  0.3940
 3612TIP3   OH232326   1.244   2.867   0.263  0.6158 -0.2371  0.3708
 3612TIP3    H132327   1.188   2.911   0.327  0.3285  0.4260 -0.3073
 3612TIP3    H232328   1.234   2.920   0.184  0.8073 -1.1532 -0.2746
 3613TIP3   OH232329   3.391   6.416  17.083  0.0771 -0.7217  0.7403
 3613TIP3    H132330   3.470   6.470  17.090 -0.8530  0.6956  0.4422
 3613TIP3    H232331   3.413   6.351  17.015  0.2006  1.0876 -1.0272
 3614TIP3   OH232332   5.502   1.531  15.105  0.6032 -0.7737 -0.5186
 3614TIP3    H132333   5.514   1.436  15.096  1.3181 -0.7717  0.2802
 3614TIP3    H232334   5.572   1.568  15.051 -0.1655 -0.6796 -1.4755
 3615TIP3   OH232335   3.785   6.390  12.946  0.5288  0.0256  0.5528
 3615TIP3    H132336   3.790   6.482  12.918  1.5484 -0.3331 -0.5287
 3615TIP3    H232337   3.858   6.347  12.901  0.3080 -1.2456  1.3512
 3616TIP3   OH232338   0.522   1.607  11.917  0.0812 -0.1796  0.3375
 3616TIP3    H132339   0.551   1.690  11.879 -0.8087  0.4679  1.0374
 3616TIP3    H232340   0.442   1.586  11.870  1.4370 -1.7920 -1.3591
 3617TIP3   OH232341   6.507   3.900  12.079  0.4987  0.0936 -0.8446
 3617TIP3    H132342   6.466   3.944  12.004 -1.1408  2.4126  1.2617
 3617TIP3    H232343   6.588   3.949  12.094 -0.4247  1.3150  0.3773
 3618TIP3   OH232344   5.542   5.275   0.618 -0.3917 -0.3064 -0.6183
 3618TIP3    H132345   5.576   5.358   0.585 -1.5389  0.4673  0.0859
 3618TIP3    H232346   5.617   5.233   0.659 -0.1150  1.0742  0.3402
 3619TIP3   OH232347   4.873   0.122  15.514  0.0380  0.2846 -0.3782
 3619TIP3    H132348   4.837   0.181  15.448  0.4025  0.8367 -0.0938
 3619TIP3    H232349   4.860   0.034  15.478  0.3731  0.5864 -1.2469
 3620TIP3   OH232350   3.020   4.780   6.158 -0.3283 -0.7529  0.0064
 3620TIP3    H132351   2.932   4.743   6.153 -0.9332  0.4690  0.8833
 3620TIP3    H232352   3.005   4.873   6.176  1.1509 -0.6602  0.9425
 3621TIP3   OH232353   5.580   1.188   4.438  0.5919 -0.0181 -0.4196
 3621TIP3    H132354   5.590   1.168   4.531  1.3021 -1.8362 -0.8522
 3621TIP3    H232355   5.486   1.179   4.423  0.6702 -1.5818 -0.2221
 3622TIP3   OH232356   2.486   6.683   1.678 -0.1260  0.1382 -0.2619
 3622TIP3    H132357   2.414   6.643   1.728 -1.5771  0.1670 -2.2201
 3622TIP3    H232358   2.564   6.637   1.709 -1.1785 -1.0480  0.7897
 3623TIP3   OH232359   4.429   6.352   0.151 -0.0121 -0.1953 -0.3034
 3623TIP3    H132360   4.366   6.382   0.217 -0.8016  1.2714 -1.6648
 3623TIP3    H232361   4.513   6.351   0.196 -0.8405 -1.3842  1.3200
 3624TIP3   OH232362   6.329   4.033  13.827  0.0803 -0.1054  0.1275
 3624TIP3    H132363   6.241   4.045  13.862  0.4875 -1.9287  2.0019
 3624TIP3    H232364   6.321   3.959  13.766  0.5135 -1.3100  1.4636
 3625TIP3   OH232365   4.127   5.313  12.473  0.6031  0.3009 -0.7596
 3625TIP3    H132366   4.099   5.404  12.476  1.2441  0.5052  2.1647
 3625TIP3    H232367   4.197   5.307  12.538  0.5662 -2.2704 -0.8464
 3626TIP3   OH232368   2.817   1.814  16.850 -0.0024 -0.1675 -0.6663
 3626TIP3    H132369   2.866   1.839  16.772 -0.7289 -1.2053 -1.4987
 3626TIP3    H232370   2.742   1.765  16.815  0.3525 -1.7895  0.7413
 3627TIP3   OH232371   6.765   1.009  13.956  0.1403  0.2268  0.1368
 3627TIP3    H132372   6.683   1.052  13.981 -1.4019 -1.2593 -2.0173
 3627TIP3    H232373   6.766   0.927  14.006  1.2050  0.9627  1.3993
 3628TIP3   OH232374   1.072   1.787   5.196  0.3813 -0.0459  0.4607
 3628TIP3    H132375   0.993   1.832   5.228  0.5381  1.0362 -0.5818
 3628TIP3    H232376   1.144   1.838   5.232  0.5766 -0.0643  0.1031
 3629TIP3   OH232377   4.372   6.325  11.136  0.0668  0.2250 -0.2815
 3629TIP3    H132378   4.402   6.258  11.197  0.8290 -0.2029 -1.0994
 3629TIP3    H232379   4.350   6.276  11.056 -0.9683  0.7671 -0.3481
 3630TIP3   OH232380   3.481   0.713   3.719 -0.2748  0.1534 -0.0674
 3630TIP3    H132381   3.396   0.668   3.713  0.7710 -1.8542 -0.7396
 3630TIP3    H232382   3.503   0.734   3.629  0.5994 -0.6856 -0.0648
 3631TIP3   OH232383   6.201   1.398  17.084  0.6438 -0.2552  0.8982
 3631TIP3    H132384   6.145   1.374  17.010  0.2892 -1.8043  1.6450
 3631TIP3    H232385   6.288   1.365  17.060  0.9689  0.9264  0.3583
 3632TIP3   OH232386   5.145   1.623   0.019  0.3599  0.0981  0.1692
 3632TIP3    H132387   5.177   1.597   0.105 -0.9795  1.1928  1.0478
 3632TIP3    H232388   5.068   1.568   0.004  0.4970  0.0205 -0.2588
 3633TIP3   OH232389   2.071   3.867   0.513  0.0256  0.3557 -0.5321
 3633TIP3    H132390   2.109   3.954   0.526  0.7173 -0.1908  1.4703
 3633TIP3    H232391   2.139   3.819   0.465  0.5614  0.3109  0.2529
 3634TIP3   OH232392   1.338   1.509   2.669 -0.0957 -0.1675  0.7234
 3634TIP3    H132393   1.400   1.582   2.676 -0.5337  0.5289 -1.7253
 3634TIP3    H232394   1.388   1.433   2.697  0.8881  0.8142  1.7727
 3635TIP3   OH232395   0.195   1.808  10.455  0.2090 -0.4191  0.1801
 3635TIP3    H132396   0.270   1.785  10.511  0.5696 -0.0745 -0.1526
 3635TIP3    H232397   0.119   1.771  10.500  0.6416 -1.2593  0.2400
 3636TIP3   OH232398   1.685   0.210  14.826 -0.4502 -0.1771  0.3177
 3636TIP3    H132399   1.669   0.273  14.896  0.8509 -0.3632  0.8115
 3636TIP3    H232400   1.775   0.228  14.798 -0.2437 -1.4565  0.1105
 3637TIP3   OH232401   5.351   6.732  11.435  0.2519  0.1220  0.3008
 3637TIP3    H132402   5.303   6.782  11.368 -0.8347  1.5931  2.0964
 3637TIP3    H232403   5.284   6.683  11.481  1.0724 -1.3760 -0.0250
 3638TIP3   OH232404   0.460   1.415   3.748 -0.3156  0.3136 -0.6557
 3638TIP3    H132405   0.427   1.445   3.832  0.2572  0.4108 -0.4626
 3638TIP3    H232406   0.542   1.370   3.768  0.2928  1.1063 -1.2387
 3639TIP3   OH232407   5.659   2.616   2.341 -0.4371  0.0944  0.0238
 3639TIP3    H132408   5.716   2.561   2.287  0.4353 -0.5357  1.5318
 3639TIP3    H232409   5.715   2.687   2.371 -1.1013  0.8384 -0.4472
 3640TIP3   OH232410   5.593   3.579  13.817 -0.0837  0.3115 -0.3721
 3640TIP3    H132411   5.619   3.666  13.847  0.2645  0.7659 -1.9060
 3640TIP3    H232412   5.500   3.572  13.838 -0.0702  0.9693 -0.0877
 3641TIP3   OH232413   1.575   5.558   3.788  0.4142 -0.0870 -0.7188
 3641TIP3    H132414   1.499   5.541   3.844  2.2552 -2.7677  1.2345
 3641TIP3    H232415   1.613   5.639   3.822 -0.4507  0.2007 -0.4220
 3642TIP3   OH232416   3.955   5.800  14.288 -0.1550 -0.0994 -0.3333
 3642TIP3    H132417   3.940   5.880  14.338  0.6614 -1.3453  2.0504
 3642TIP3    H232418   4.025   5.823  14.226 -1.4756  1.5868 -1.2905
 3643TIP3   OH232419   0.100   5.771  15.480 -0.2506  0.1734  0.1106
 3643TIP3    H132420   0.078   5.784  15.572  0.2107  1.8002  0.0354
 3643TIP3    H232421   0.166   5.702  15.480 -1.4857 -1.0489  0.8185
 3644TIP3   OH232422   1.566   1.351   1.762  0.0524 -0.4526  0.4707
 3644TIP3    H132423   1.521   1.291   1.703 -0.2102 -0.1813  0.3906
 3644TIP3    H232424   1.496   1.393   1.812  0.1979  0.1164  0.2103
 3645TIP3   OH232425   5.018   6.654  14.596  0.1885  0.4672 -0.5480
 3645TIP3    H132426   5.050   6.618  14.679  0.7931 -1.6182 -1.6349
 3645TIP3    H232427   4.982   6.740  14.620  0.2322 -0.1214  1.8826
 3646TIP3   OH232428   2.535   5.307  17.231 -0.5931 -0.0747  0.4135
 3646TIP3    H132429   2.462   5.317  17.169  1.0380  0.6804 -1.5049
 3646TIP3    H232430   2.586   5.387  17.221  1.5818 -1.4112  0.1910
 3647TIP3   OH232431   4.644   4.793  12.020  0.0460 -0.4537  0.4606
 3647TIP3    H132432   4.592   4.871  12.038  0.8488  0.9385 -2.6298
 3647TIP3    H232433   4.646   4.786  11.925  0.6064 -3.9042  0.5686
 3648TIP3   OH232434   4.502   2.326   2.254  0.2179  0.1961  0.0615
 3648TIP3    H132435   4.587   2.360   2.225  1.1705 -1.6091  0.6160
 3648TIP3    H232436   4.460   2.295   2.174 -1.0432  3.2327 -0.6035
 3649TIP3   OH232437   2.211   5.668   4.487 -0.9442 -0.3164 -0.4969
 3649TIP3    H132438   2.287   5.710   4.448  0.4209 -1.8967  0.3502
 3649TIP3    H232439   2.218   5.576   4.461 -1.1591 -0.9852  1.6537
 3650TIP3   OH232440   4.120   0.302  12.775  0.4896  0.3174 -0.5411
 3650TIP3    H132441   4.052   0.341  12.720  0.8395 -0.4367 -1.5274
 3650TIP3    H232442   4.111   0.347  12.859 -1.0542  0.4225 -0.7356
 3651TIP3   OH232443   5.512   2.783  16.246  0.0928 -0.4488 -0.0026
 3651TIP3    H132444   5.454   2.850  16.282 -1.1605 -0.9196 -1.0811
 3651TIP3    H232445   5.594   2.828  16.229  0.2728  0.1190  2.0528
 3652TIP3   OH232446   0.946   3.847   5.591  0.4419 -0.3212  0.6140
 3652TIP3    H132447   0.902   3.889   5.517  1.9595  0.3536  0.0495
 3652TIP3    H232448   0.948   3.755   5.568 -0.4672 -0.3372  0.5565
 3653TIP3   OH232449   1.094   3.837  14.230  0.4046  0.2496 -0.4061
 3653TIP3    H132450   1.016   3.891  14.219 -0.7841 -1.3193  0.0263
 3653TIP3    H232451   1.099   3.822  14.325  1.6688  0.9340 -0.3472
 3654TIP3   OH232452   5.624   1.375  15.459  0.1254 -0.1399  0.1150
 3654TIP3    H132453   5.680   1.452  15.462 -0.7629  0.5073  1.1502
 3654TIP3    H232454   5.635   1.335  15.545  0.6428 -1.2298 -0.4461
 3655TIP3   OH232455   5.313   6.046   4.834  0.2905  0.3039  0.2234
 3655TIP3    H132456   5.340   6.120   4.888 -1.1018  1.0104  0.0139
 3655TIP3    H232457   5.381   6.040   4.767  1.2108  0.4179  1.1233
 3656TIP3   OH232458   1.350   0.523  12.417 -0.0081  0.1797 -0.0585
 3656TIP3    H132459   1.319   0.435  12.394 -1.4550  0.9670 -1.2542
 3656TIP3    H232460   1.311   0.541  12.502 -0.8465  0.1850 -0.4352
 3657TIP3   OH232461   1.249   5.975  12.174 -0.2215 -0.3385  0.1393
 3657TIP3    H132462   1.199   5.894  12.179 -0.0544 -0.5384 -1.0610
 3657TIP3    H232463   1.231   6.020  12.257 -0.6001 -1.4244  0.6660
 3658TIP3   OH232464   1.515   1.429  17.130  0.1140  0.3366 -0.3983
 3658TIP3    H132465   1.492   1.427  17.223  1.7067  3.5516  0.2163
 3658TIP3    H232466   1.594   1.484  17.127  1.7713 -1.9307 -3.3799
 3659TIP3   OH232467   5.387   1.864   5.883  0.7573  0.3352 -0.4029
 3659TIP3    H132468   5.453   1.865   5.952 -1.2141  1.3519  1.5993
 3659TIP3    H232469   5.354   1.954   5.879 -0.1808 -0.0322 -1.6495
 3660TIP3   OH232470   1.240   3.254  14.064  0.1002 -0.2904  0.1387
 3660TIP3    H132471   1.178   3.231  14.133 -1.8153  0.1328 -1.3529
 3660TIP3    H232472   1.266   3.170  14.027 -2.1226 -0.4390 -1.2840
 3661TIP3   OH232473   5.786   5.832  11.982  0.2698  0.0081  0.0864
 3661TIP3    H132474   5.705   5.817  11.934  1.5999 -0.0398 -2.3061
 3661TIP3    H232475   5.841   5.757  11.960  1.3038  0.4744  0.9584
 3662TIP3   OH232476   2.410   3.208   3.465 -0.6526 -0.0633 -0.1084
 3662TIP3    H132477   2.490   3.186   3.513 -0.9797  0.4913  0.7211
 3662TIP3    H232478   2.350   3.137   3.486 -1.4464  1.1225  1.9354
 3663TIP3   OH232479   4.378   0.185   1.476  0.4332  0.4539 -0.1846
 3663TIP3    H132480   4.315   0.173   1.547 -0.3460  2.3627 -0.5010
 3663TIP3    H232481   4.351   0.266   1.432  0.8598 -0.6582 -2.7075
 3664TIP3   OH232482   5.956   5.171   1.131  0.3477 -0.2238  0.6276
 3664TIP3    H132483   5.918   5.252   1.098  1.0404 -0.0446  0.2661
 3664TIP3    H232484   5.912   5.157   1.215  1.0807  1.1814  1.2888
 3665TIP3   OH232485   6.310   6.521   6.809  0.0419  0.0207  0.3058
 3665TIP3    H132486   6.292   6.454   6.743  0.3176  0.6924 -0.4629
 3665TIP3    H232487   6.224   6.555   6.833  0.0223  1.0258 -1.0507
 3666TIP3   OH232488   4.245   6.166  15.791 -0.2216 -0.7246  0.6206
 3666TIP3    H132489   4.287   6.161  15.706 -2.2869  0.0491 -0.5185
 3666TIP3    H232490   4.168   6.221  15.777 -0.4061 -0.2273  3.0931
 3667TIP3   OH232491   1.108   2.962  16.036 -0.1778 -0.7544 -1.0258
 3667TIP3    H132492   1.021   2.927  16.019 -1.3868  1.1279  0.7625
 3667TIP3    H232493   1.096   3.057  16.035  1.9538 -0.4375 -1.0876
 3668TIP3   OH232494   5.951   1.965  14.489 -0.4224 -0.0935 -0.2833
 3668TIP3    H132495   5.982   1.967  14.398 -2.8945 -2.1582 -1.3071
 3668TIP3    H232496   5.916   2.053  14.504 -0.5731  0.0918 -1.5839
 3669TIP3   OH232497   4.268   5.407   2.622  0.0615 -0.4670  0.2257
 3669TIP3    H132498   4.247   5.346   2.552 -1.0209  0.3131 -0.1550
 3669TIP3    H232499   4.249   5.493   2.585  1.6851  0.1362  0.7027
 3670TIP3   OH232500   4.028   4.295   1.927 -0.1155 -0.4255 -0.0228
 3670TIP3    H132501   4.065   4.207   1.918 -1.1003 -0.7710 -0.9905
 3670TIP3    H232502   4.000   4.301   2.018  1.4028 -0.5123  0.4634
 3671TIP3   OH232503   5.556   5.307  13.305  0.1024  0.5514  0.4938
 3671TIP3    H132504   5.496   5.292  13.231 -0.0077 -1.6192  0.9515
 3671TIP3    H232505   5.587   5.397  13.293 -2.3073  1.3430 -0.4323
 3672TIP3   OH232506   3.231   3.746   1.820  0.0222 -0.0608 -0.1590
 3672TIP3    H132507   3.318   3.719   1.849  0.5929 -0.6652 -2.3022
 3672TIP3    H232508   3.243   3.777   1.731 -1.2815  3.8813  0.8512
 3673TIP3   OH232509   6.010   4.757   3.210  0.2226  0.1128 -0.3560
 3673TIP3    H132510   5.940   4.791   3.266  1.4533  2.6551 -0.2365
 3673TIP3    H232511   6.045   4.682   3.258  0.5440  1.5886  1.8102
 3674TIP3   OH232512   2.564   3.972   5.694 -0.1189 -0.3883  0.1594
 3674TIP3    H132513   2.599   3.969   5.605 -0.1502 -0.7494  0.1597
 3674TIP3    H232514   2.642   3.975   5.751 -0.0037 -3.0706  0.2521
 3675TIP3   OH232515   4.137   5.364   1.389  0.0826 -0.0283  0.4366
 3675TIP3    H132516   4.159   5.310   1.313 -0.2137 -0.9655  0.9905
 3675TIP3    H232517   4.051   5.400   1.368 -0.1010 -0.4683  0.4110
 3676TIP3   OH232518   4.633   4.582   2.342  0.0902 -0.3744  0.3461
 3676TIP3    H132519   4.727   4.597   2.341  0.2206 -1.0412 -2.0086
 3676TIP3    H232520   4.623   4.490   2.366 -0.1044  0.0737  2.1896
 3677TIP3   OH232521   2.184   0.948  12.331  0.0953 -0.0442 -0.5998
 3677TIP3    H132522   2.097   0.913  12.308 -0.8579  0.7142  1.5629
 3677TIP3    H232523   2.231   0.873  12.367  0.6160 -0.6131 -2.3982
 3678TIP3   OH232524   3.242   6.464  12.850  0.6191 -0.0198 -0.4679
 3678TIP3    H132525   3.232   6.553  12.884  0.9574 -0.8454  2.0174
 3678TIP3    H232526   3.172   6.455  12.787 -1.0835  1.1920  1.1345
 3679TIP3   OH232527   3.703   1.202  15.735 -0.4781  0.9250  0.2682
 3679TIP3    H132528   3.617   1.183  15.697  0.4735 -1.6967 -0.8277
 3679TIP3    H232529   3.744   1.116  15.748  2.1895  2.0659  0.2338
 3680TIP3   OH232530   3.643   6.369   5.258 -0.3362 -0.3215  0.2732
 3680TIP3    H132531   3.632   6.302   5.324  0.5454 -1.6943 -0.9043
 3680TIP3    H232532   3.555   6.404   5.243 -1.1548 -2.4998 -0.3482
 3681TIP3   OH232533   0.592   0.943   5.993  0.3700 -0.5489 -0.5415
 3681TIP3    H132534   0.622   0.865   5.945  1.8491 -1.1212  1.1907
 3681TIP3    H232535   0.633   1.016   5.947  2.4346 -1.1445  0.2411
 3682TIP3   OH232536   5.396   1.145   0.311  0.1033 -0.2283 -0.0005
 3682TIP3    H132537   5.315   1.168   0.265 -0.2561  2.2028  1.6658
 3682TIP3    H232538   5.466   1.175   0.252 -0.2641 -0.0696 -0.3638
 3683TIP3   OH232539   0.504   6.016  16.728  0.0741  0.7679 -0.0606
 3683TIP3    H132540   0.501   5.965  16.647  0.1636  2.2742 -1.0689
 3683TIP3    H232541   0.425   5.990  16.776 -0.5095  0.5609 -1.0994
 3684TIP3   OH232542   1.127   1.505   2.494  0.1895 -0.4703  0.5468
 3684TIP3    H132543   1.043   1.508   2.541  0.5670  0.1071  1.2152
 3684TIP3    H232544   1.193   1.503   2.563  0.7182 -1.7409  0.0284
 3685TIP3   OH232545   2.158   5.940  13.229  0.4086 -0.0936 -0.1566
 3685TIP3    H132546   2.093   5.889  13.180  1.0683 -0.1481 -1.0232
 3685TIP3    H232547   2.192   5.879  13.295  1.2727 -0.8558 -1.2589
 3686TIP3   OH232548   5.105   2.627  11.156 -0.1203  0.1100 -0.1081
 3686TIP3    H132549   5.196   2.657  11.149  0.1183 -0.5593  0.0421
 3686TIP3    H232550   5.111   2.541  11.198 -0.9027  0.5024  0.8382
 3687TIP3   OH232551   3.906   5.163   3.068  0.5047 -0.6210  0.4565
 3687TIP3    H132552   3.882   5.104   2.997  0.9501  0.2311 -0.4219
 3687TIP3    H232553   4.002   5.165   3.066  0.4983  0.1905  0.4036
 3688TIP3   OH232554   0.227   2.941  16.741  0.0129  0.1698  0.3500
 3688TIP3    H132555   0.257   3.009  16.681  1.8782  0.5056  1.5832
 3688TIP3    H232556   0.190   2.989  16.815  0.4314 -0.1660  0.7801
 3689TIP3   OH232557   4.669   2.968   0.058 -0.4529  0.1893 -0.3918
 3689TIP3    H132558   4.764   2.955   0.069 -0.4963  1.6135  2.3901
 3689TIP3    H232559   4.662   3.032  -0.013  0.7502  1.0215  0.2067
 3690TIP3   OH232560   4.982   0.037  12.598  0.2165  0.2066 -0.0342
 3690TIP3    H132561   4.965   0.082  12.515 -2.9555 -2.4416 -1.0187
 3690TIP3    H232562   4.996  -0.054  12.573  1.7050 -0.2428  2.2100
 3691TIP3   OH232563   5.025   1.843   4.881  0.6272  0.2661 -0.2805
 3691TIP3    H132564   5.050   1.843   4.973  3.3725  1.2123 -0.9112
 3691TIP3    H232565   4.996   1.754   4.863 -0.5912  0.2421  1.6180
 3692TIP3   OH232566   0.358   4.026   4.700 -0.0636 -0.2992  0.3837
 3692TIP3    H132567   0.357   4.111   4.744 -1.0672 -0.0536 -0.0974
 3692TIP3    H232568   0.422   3.975   4.749  0.8108  0.8359  0.4679
 3693TIP3   OH232569   1.559   2.924  13.315 -0.5640 -0.0266  0.4333
 3693TIP3    H132570   1.491   2.988  13.298 -0.9081 -0.0508  1.6432
 3693TIP3    H232571   1.546   2.856  13.249 -0.1359  1.1745 -0.9234
 3694TIP3   OH232572   4.788   0.291  15.307 -0.4907 -0.8339  0.1644
 3694TIP3    H132573   4.828   0.292  15.221  1.9358 -0.9549  1.2231
 3694TIP3    H232574   4.720   0.359  15.303  1.1084  0.7678 -1.1674
 3695TIP3   OH232575   1.962   0.732   5.618 -0.0860 -0.4039 -0.0044
 3695TIP3    H132576   2.051   0.727   5.653 -0.1677  0.0980  0.2803
 3695TIP3    H232577   1.967   0.688   5.533 -0.0967 -2.5734  1.0452
 3696TIP3   OH232578   3.581   5.123   5.559  0.2374 -0.3636  0.5226
 3696TIP3    H132579   3.569   5.211   5.594 -1.2241 -0.3509  0.0444
 3696TIP3    H232580   3.671   5.101   5.581  1.9102  2.6243 -2.4222
 3697TIP3   OH232581   3.676   2.511   5.792 -0.1881 -0.0230  0.5899
 3697TIP3    H132582   3.741   2.567   5.835 -0.6610  1.1713 -0.2237
 3697TIP3    H232583   3.593   2.557   5.802 -0.4449 -0.1168 -0.8512
 3698TIP3   OH232584   2.322   2.559  14.585  0.3369  0.2077  0.2587
 3698TIP3    H132585   2.337   2.477  14.538  0.0186  0.3689 -0.1341
 3698TIP3    H232586   2.308   2.533  14.676 -1.6661 -0.3691 -0.1624
 3699TIP3   OH232587   1.292   6.426   3.383  0.2079 -0.0981  0.4574
 3699TIP3    H132588   1.291   6.487   3.309  0.8417 -1.6913 -0.9391
 3699TIP3    H232589   1.333   6.475   3.454  1.6920  0.7893 -0.9390
 3700TIP3   OH232590   3.871   3.227   3.025 -0.1220 -0.7532  0.1688
 3700TIP3    H132591   3.953   3.194   2.989  0.2407  0.9180 -0.5984
 3700TIP3    H232592   3.805   3.205   2.959  0.1863  0.3786 -0.5364
 3701TIP3   OH232593   3.320   2.913   2.579 -0.1731  0.6535 -0.0736
 3701TIP3    H132594   3.284   2.836   2.624  0.3615  0.3033 -0.2343
 3701TIP3    H232595   3.328   2.885   2.487 -0.3828  1.0519 -0.2173
 3702TIP3   OH232596   1.325   0.445  17.086 -1.0962 -0.7063  0.4795
 3702TIP3    H132597   1.349   0.505  17.015 -2.4844 -0.5056  0.1403
 3702TIP3    H232598   1.229   0.442  17.082 -1.0702 -2.7083  0.6988
 3703TIP3   OH232599   2.010   4.554   4.157 -0.0317 -0.1032 -0.0554
 3703TIP3    H132600   2.048   4.635   4.123  3.2210 -1.7755 -0.7552
 3703TIP3    H232601   1.918   4.575   4.171  0.2849  3.1513 -1.9432
 3704TIP3   OH232602   3.515   0.656   4.656 -0.4709  0.0734 -0.4955
 3704TIP3    H132603   3.567   0.692   4.727 -1.8794 -0.6811  0.9937
 3704TIP3    H232604   3.572   0.592   4.614  0.0297 -0.2899  0.6972
 3705TIP3   OH232605   3.769   1.123   4.818  0.0236 -0.2007 -0.1334
 3705TIP3    H132606   3.683   1.086   4.796 -0.3003 -0.8231  1.9759
 3705TIP3    H232607   3.831   1.054   4.795 -0.0161  0.2029 -1.5470
 3706TIP3   OH232608   5.056   6.042   1.363 -0.3142 -0.5052  0.1662
 3706TIP3    H132609   5.052   5.987   1.285  1.2825  0.3491 -0.5692
 3706TIP3    H232610   4.987   6.009   1.420 -1.0723 -1.5825 -1.3299
 3707TIP3   OH232611   5.908   1.179  14.246 -0.5175  0.3581  0.7344
 3707TIP3    H132612   5.831   1.218  14.287 -0.4062  0.3525  0.9533
 3707TIP3    H232613   5.918   1.226  14.163 -1.2609 -0.2299  0.2969
 3708TIP3   OH232614   4.198   0.419  10.393 -0.5564  0.0457 -0.3316
 3708TIP3    H132615   4.256   0.346  10.414  1.6083  2.4464  2.8789
 3708TIP3    H232616   4.144   0.430  10.471 -0.6924  1.9632 -0.6528
 3709TIP3   OH232617   3.964   4.800  12.487 -0.4212  0.4970 -0.2967
 3709TIP3    H132618   4.011   4.777  12.567  1.0272  2.5108 -0.5109
 3709TIP3    H232619   3.877   4.824  12.517 -0.6882 -1.1043  0.3567
 3710TIP3   OH232620   6.324   0.823  15.021 -0.1718  0.7795  0.7421
 3710TIP3    H132621   6.398   0.775  15.056  0.3341  2.1262  1.5799
 3710TIP3    H232622   6.360   0.873  14.947 -0.8190 -0.5454 -0.5093
 3711TIP3   OH232623   5.738   4.294   5.652  0.3416 -0.2818 -0.0550
 3711TIP3    H132624   5.736   4.354   5.577 -0.5173 -2.6342 -2.0481
 3711TIP3    H232625   5.647   4.285   5.678  0.7508  2.0200  2.7269
 3712TIP3   OH232626   4.039   4.889   2.291 -0.2919  0.1431 -0.2448
 3712TIP3    H132627   4.072   4.910   2.379 -0.5688 -0.6147  0.0466
 3712TIP3    H232628   4.118   4.881   2.237 -0.0570 -0.4640  0.1800
 3713TIP3   OH232629   6.383   5.068   1.116 -0.8219  0.1819  0.2228
 3713TIP3    H132630   6.387   5.016   1.036  1.8627  0.4991  0.0832
 3713TIP3    H232631   6.306   5.123   1.104 -0.9911 -0.3958 -1.7433
 3714TIP3   OH232632   4.181   4.317   3.508  0.7441 -0.2255 -0.0887
 3714TIP3    H132633   4.256   4.373   3.528  0.1812  0.5667 -0.1794
 3714TIP3    H232634   4.108   4.377   3.498 -0.6172 -1.1486  3.0728
 3715TIP3   OH232635   1.287   1.916  16.824 -0.2255  0.2541  0.2290
 3715TIP3    H132636   1.241   1.998  16.810  0.5143  0.8852  1.3529
 3715TIP3    H232637   1.361   1.919  16.765 -1.2527 -0.5062 -1.1595
 3716TIP3   OH232638   3.655   2.907   3.443 -0.3535 -0.3706 -0.3150
 3716TIP3    H132639   3.647   2.812   3.452 -1.7343 -0.2694 -0.2717
 3716TIP3    H232640   3.707   2.920   3.363 -1.7409 -1.1704 -1.3943
 3717TIP3   OH232641   3.827   4.322  12.628  0.2805  0.2744 -0.7633
 3717TIP3    H132642   3.853   4.398  12.577 -0.7810  0.7522 -0.6192
 3717TIP3    H232643   3.905   4.298  12.678  0.8357  0.8154 -1.3650
 3718TIP3   OH232644   1.885   0.754   0.916 -0.1120 -0.4197  0.1541
 3718TIP3    H132645   1.971   0.796   0.904 -0.0325 -0.7161 -0.3775
 3718TIP3    H232646   1.904   0.660   0.916 -0.3350 -0.4679  0.9362
 3719TIP3   OH232647   5.333   6.124   2.471  0.7434  0.3394  0.5271
 3719TIP3    H132648   5.416   6.076   2.475  0.8676  0.4256 -0.6929
 3719TIP3    H232649   5.343   6.183   2.396 -0.1137  0.9400  0.8791
 3720TIP3   OH232650   5.754   2.312  13.587  0.4402 -0.0925 -0.3978
 3720TIP3    H132651   5.694   2.238  13.591 -0.5091  0.5938 -1.3492
 3720TIP3    H232652   5.782   2.326  13.677  4.1686 -4.3421 -0.5088
 3721TIP3   OH232653   6.453   3.705  12.265 -0.1217  0.7921  0.0170
 3721TIP3    H132654   6.472   3.785  12.215 -0.8108  0.4969 -0.7414
 3721TIP3    H232655   6.385   3.661  12.214 -0.3443  0.1327  0.8673
 3722TIP3   OH232656   2.876   5.401  15.017  0.1591  0.0328 -0.0145
 3722TIP3    H132657   2.787   5.434  15.009 -0.1666 -0.4111  1.4932
 3722TIP3    H232658   2.869   5.326  15.076  1.7080  0.8526  1.2954
 3723TIP3   OH232659   0.304   1.546  11.760  0.3874 -0.0063  0.6487
 3723TIP3    H132660   0.347   1.586  11.685  0.5294 -0.7548  0.3150
 3723TIP3    H232661   0.232   1.495  11.722  1.2089 -1.3959  0.8756
 3724TIP3   OH232662   2.838   1.383  14.530 -0.4387 -0.1846  0.0474
 3724TIP3    H132663   2.916   1.422  14.570 -0.2628 -2.1102  1.7439
 3724TIP3    H232664   2.765   1.420  14.579 -0.2614 -1.9769  1.8019
 3725TIP3   OH232665   3.415   0.540   0.015  0.2584 -0.3531  0.3419
 3725TIP3    H132666   3.483   0.497   0.067  0.3084 -0.9718 -0.2166
 3725TIP3    H232667   3.416   0.493  -0.069 -1.0410 -0.5473  0.4184
 3726TIP3   OH232668   0.456   3.369  11.478 -0.0156 -0.2664  0.0501
 3726TIP3    H132669   0.437   3.381  11.385 -1.2909 -1.6102  0.1053
 3726TIP3    H232670   0.481   3.457  11.509 -1.4047  0.5888 -1.1421
 3727TIP3   OH232671   0.837   4.105  13.489  0.0926  0.2966 -0.1299
 3727TIP3    H132672   0.917   4.149  13.460  1.6449 -2.4417 -0.2845
 3727TIP3    H232673   0.772   4.127  13.422  1.1457  1.2530 -0.8720
 3728TIP3   OH232674   2.815   6.404  14.919 -0.4134  0.6053 -0.2063
 3728TIP3    H132675   2.796   6.332  14.858  0.5441  0.3930 -0.2740
 3728TIP3    H232676   2.910   6.413  14.916 -0.3806  0.8201  0.9966
 3729TIP3   OH232677   4.556   2.970   4.292 -0.0529 -0.1249 -0.4871
 3729TIP3    H132678   4.649   2.966   4.269  0.3583  1.2681  0.7475
 3729TIP3    H232679   4.515   2.903   4.237  1.6078 -0.5028 -1.3524
 3730TIP3   OH232680   4.426   3.511  11.644  0.0095 -0.2261  0.2626
 3730TIP3    H132681   4.512   3.552  11.632 -0.2435  0.1796 -0.2502
 3730TIP3    H232682   4.412   3.461  11.564  0.0608 -0.8411  0.6380
 3731TIP3   OH232683   0.236   1.153   3.037 -0.3152 -0.4772  0.1242
 3731TIP3    H132684   0.268   1.151   3.127  0.0965  2.6438  0.1617
 3731TIP3    H232685   0.300   1.205   2.989 -2.5773  1.5271 -0.9690
 3732TIP3   OH232686   1.218   4.443   3.210 -0.6891  0.6086 -0.3665
 3732TIP3    H132687   1.218   4.464   3.304  1.5511  1.2581 -0.4563
 3732TIP3    H232688   1.248   4.524   3.168 -0.7055  0.0132 -1.5460
 3733TIP3   OH232689   1.659   1.041  12.166 -0.3256  0.5990 -0.6156
 3733TIP3    H132690   1.599   1.089  12.109  0.1204  0.1059 -1.5161
 3733TIP3    H232691   1.685   0.964  12.115  1.7221  1.2262 -0.5980
 3734TIP3   OH232692   1.305   3.551   4.921 -0.5012 -0.4936  0.5179
 3734TIP3    H132693   1.317   3.480   4.985 -2.5500  0.3435  1.9275
 3734TIP3    H232694   1.217   3.584   4.938  0.1582  2.0046 -0.5165
 3735TIP3   OH232695   2.131   4.640   2.770 -0.0505 -0.4359  0.3326
 3735TIP3    H132696   2.210   4.593   2.797  0.4187  0.4501  0.5431
 3735TIP3    H232697   2.157   4.687   2.691  0.1362  1.1459  1.2894
 3736TIP3   OH232698   1.312   3.534   4.071  0.8204 -0.4079  0.0523
 3736TIP3    H132699   1.229   3.551   4.118  0.5360 -0.5509 -0.3944
 3736TIP3    H232700   1.347   3.455   4.112 -0.5797 -1.9024 -1.4764
 3737TIP3   OH232701   3.259   1.791  12.555 -0.1356 -0.2605 -0.7878
 3737TIP3    H132702   3.251   1.705  12.514 -0.4768  0.3846 -2.1602
 3737TIP3    H232703   3.170   1.827  12.553 -0.5341 -0.8654  2.1694
 3738TIP3   OH232704   3.544   4.734  11.804 -0.2043  0.2638 -0.1217
 3738TIP3    H132705   3.588   4.651  11.822 -0.2941  0.3565  0.5313
 3738TIP3    H232706   3.532   4.774  11.889 -0.5190  0.7712 -0.4003
 3739TIP3   OH232707   3.880   5.384   5.836  0.2107  0.0736  0.9762
 3739TIP3    H132708   3.878   5.447   5.764  0.0891 -0.5993  0.3847
 3739TIP3    H232709   3.790   5.383   5.868 -0.2080 -1.0956 -0.1645
 3740TIP3   OH232710   2.454   0.762   4.735 -0.2709 -0.2300 -0.3137
 3740TIP3    H132711   2.391   0.799   4.673 -1.1902 -0.5924  0.3764
 3740TIP3    H232712   2.511   0.835   4.757 -0.7034  0.2171 -0.6426
 3741TIP3   OH232713   2.106   0.378   6.063 -0.1487  0.4345 -0.2979
 3741TIP3    H132714   2.043   0.368   6.135  0.2084  0.7612  0.0637
 3741TIP3    H232715   2.147   0.463   6.078 -0.6828  0.9054 -1.3821
 3742TIP3   OH232716   5.154   1.062   0.629 -0.3993  0.0967 -0.3746
 3742TIP3    H132717   5.215   1.028   0.563  0.3116 -0.2247  0.4272
 3742TIP3    H232718   5.139   0.988   0.688 -1.2143  0.3101 -0.2990
 3743TIP3   OH232719   1.948   3.142   6.066  0.2798 -0.1802 -0.4179
 3743TIP3    H132720   2.033   3.111   6.098  0.5278  0.1087 -0.7927
 3743TIP3    H232721   1.970   3.212   6.005 -0.2689  0.5395  0.1998
 3744TIP3   OH232722   0.535   2.871   0.428  0.0002 -0.0610  0.6654
 3744TIP3    H132723   0.583   2.808   0.482 -0.3850 -1.2796 -0.3711
 3744TIP3    H232724   0.495   2.818   0.359 -1.8859  1.0640  0.8204
 3745TIP3   OH232725   5.149   6.589   0.275 -0.2816  0.1372 -0.0912
 3745TIP3    H132726   5.229   6.597   0.326 -0.0869 -1.6225 -0.0626
 3745TIP3    H232727   5.179   6.572   0.185 -0.5915 -0.5107 -0.0843
 3746TIP3   OH232728   2.289   0.135   2.233 -0.0746 -0.1352 -0.1224
 3746TIP3    H132729   2.199   0.161   2.212 -0.0881  0.9500  1.1519
 3746TIP3    H232730   2.333   0.216   2.256  0.6236 -0.8975  1.3933
 3747TIP3   OH232731   2.188   4.193   5.343  0.4029  0.2802  0.1441
 3747TIP3    H132732   2.121   4.149   5.396  0.7216  0.7067  0.9177
 3747TIP3    H232733   2.139   4.254   5.289  0.0148 -0.5681 -0.4977
 3748TIP3   OH232734   0.284   5.322   0.373  0.0115 -0.5651  0.7038
 3748TIP3    H132735   0.289   5.248   0.433  2.2662 -0.6374  0.5017
 3748TIP3    H232736   0.356   5.380   0.399 -2.5087  2.4042  1.8307
 3749TIP3   OH232737   5.562   3.842  13.405 -0.6114  0.1905 -0.0961
 3749TIP3    H132738   5.583   3.856  13.313 -0.4176 -0.0103 -0.0837
 3749TIP3    H232739   5.572   3.748  13.418 -1.5496  0.0820 -0.0911
 3750TIP3   OH232740   5.226   0.861  13.467  0.0100  0.2284 -0.1244
 3750TIP3    H132741   5.264   0.946  13.488  1.1057 -0.3427  0.3036
 3750TIP3    H232742   5.132   0.877  13.464  0.1248  1.2512  0.9342
 3751TIP3   OH232743   1.151   4.849   2.199 -0.4066 -0.0079 -0.3251
 3751TIP3    H132744   1.183   4.767   2.237  0.3185  0.2705 -0.3253
 3751TIP3    H232745   1.173   4.843   2.106  0.7800  0.7061 -0.1146
 3752TIP3   OH232746   5.589   5.980   3.209 -0.0719 -0.1271 -0.3156
 3752TIP3    H132747   5.556   5.957   3.122 -0.4736 -2.0919  0.3134
 3752TIP3    H232748   5.519   5.957   3.268  0.8574 -0.4485  0.6927
 3753TIP3   OH232749   4.011   4.995  15.343 -0.2366 -0.2614 -0.1409
 3753TIP3    H132750   4.048   5.066  15.396  0.5936  0.2075 -1.3271
 3753TIP3    H232751   3.939   4.961  15.397  0.8711 -0.1267  1.5041
 3754TIP3   OH232752   5.693   4.351   4.167 -0.3058 -0.0924  0.5335
 3754TIP3    H132753   5.736   4.416   4.112  0.3505 -0.3040  0.7789
 3754TIP3    H232754   5.672   4.279   4.108  1.1393 -0.6708  0.6881
 3755TIP3   OH232755   1.764   1.329   3.657 -0.0022 -0.1095 -0.3722
 3755TIP3    H132756   1.697   1.354   3.594 -1.0672  1.2753  1.2217
 3755TIP3    H232757   1.716   1.317   3.739  1.4774 -0.8003  0.4294
 3756TIP3   OH232758   5.737   0.142   1.434 -0.1875 -0.3457 -0.0290
 3756TIP3    H132759   5.731   0.063   1.488  0.7773  0.4217  1.2756
 3756TIP3    H232760   5.688   0.208   1.482 -1.2705 -0.1998 -1.2788
 3757TIP3   OH232761   2.124   0.807  15.905  0.1228  0.2506  0.9872
 3757TIP3    H132762   2.092   0.816  15.995 -0.8266  0.3035  0.6552
 3757TIP3    H232763   2.144   0.714  15.895  0.4898  0.2916  1.3375
 3758TIP3   OH232764   2.411   2.682   4.507  0.3768  0.2709  0.1032
 3758TIP3    H132765   2.456   2.613   4.458 -2.7565 -0.9545 -1.3102
 3758TIP3    H232766   2.331   2.640   4.539 -2.8077  3.6058 -2.5906
 3759TIP3   OH232767   1.766   5.281   1.032 -0.3793 -0.0823  0.4739
 3759TIP3    H132768   1.837   5.270   1.096 -0.9611  0.7970  1.2966
 3759TIP3    H232769   1.706   5.342   1.074 -0.7050  0.6343 -0.9991
 3760TIP3   OH232770   1.140   6.153   1.760  0.2348  0.1606 -0.3059
 3760TIP3    H132771   1.222   6.132   1.716  0.5081  0.2825  0.1382
 3760TIP3    H232772   1.166   6.188   1.845 -0.3109 -1.3564  0.5183
 3761TIP3   OH232773   2.548   3.696   2.269  0.2649  0.1759 -0.1323
 3761TIP3    H132774   2.467   3.736   2.236 -0.3161 -0.0129  1.0116
 3761TIP3    H232775   2.568   3.744   2.349  1.2743  0.1898 -0.3787
 3762TIP3   OH232776   2.904   1.151   6.255  0.6083 -1.1579 -0.4099
 3762TIP3    H132777   2.975   1.156   6.318  1.5444 -0.4660 -1.4902
 3762TIP3    H232778   2.843   1.088   6.293  1.4691 -1.2728  0.8457
 3763TIP3   OH232779   6.312   1.129  16.748 -0.3317 -0.2636  0.7810
 3763TIP3    H132780   6.271   1.200  16.798 -0.4480 -0.7655  1.4064
 3763TIP3    H232781   6.271   1.049  16.781  0.2057 -0.6713  0.4791
 3764TIP3   OH232782   1.607   0.319   1.312 -0.4351 -0.6578  0.2154
 3764TIP3    H132783   1.529   0.278   1.349  0.0234 -1.7187  0.0504
 3764TIP3    H232784   1.631   0.263   1.238  0.6767 -0.5472  0.4742
 3765TIP3   OH232785   1.689   2.680  14.885 -0.5694  0.3977 -0.4162
 3765TIP3    H132786   1.749   2.684  14.960 -0.6593 -2.2989 -0.0756
 3765TIP3    H232787   1.734   2.625  14.821 -1.3780  0.9333 -1.4732
 3766TIP3   OH232788   6.089   6.382  16.857 -0.5194  0.1406 -0.2566
 3766TIP3    H132789   6.089   6.288  16.839  0.3903  0.0519  0.1516
 3766TIP3    H232790   6.033   6.392  16.934 -1.1876  0.0329 -0.7131
 3767TIP3   OH232791   0.620   4.773  16.834 -0.1421 -0.4213  0.3403
 3767TIP3    H132792   0.556   4.818  16.779  0.7900 -0.7594 -1.0879
 3767TIP3    H232793   0.703   4.816  16.813 -0.0001  0.8765  3.0970
 3768TIP3   OH232794   2.598   3.806  15.230 -0.2529 -0.5340 -0.1014
 3768TIP3    H132795   2.517   3.822  15.182 -0.0853 -1.6471 -0.8065
 3768TIP3    H232796   2.653   3.881  15.211 -0.1837 -0.9583 -1.6881
 3769TIP3   OH232797   2.920   0.162  12.650  0.0460  0.0761  0.3562
 3769TIP3    H132798   2.990   0.227  12.659 -0.8601  0.8965  2.0295
 3769TIP3    H232799   2.895   0.166  12.558  0.3312  1.7658  0.3269
 3770TIP3   OH232800   4.136   5.014   0.378 -0.4466 -0.0012  0.4174
 3770TIP3    H132801   4.068   5.059   0.328 -0.3276  1.0507  1.1784
 3770TIP3    H232802   4.144   4.928   0.336  0.6215  1.2902 -2.2550
 3771TIP3   OH232803   6.127   4.434  11.296  0.4484  0.1546  0.0333
 3771TIP3    H132804   6.117   4.434  11.392 -0.3119  2.1703  0.0064
 3771TIP3    H232805   6.213   4.472  11.281  1.7758 -2.6524 -0.0948
 3772TIP3   OH232806   2.000   2.319  14.321  0.0316 -0.1942  0.0254
 3772TIP3    H132807   1.911   2.327  14.289  0.4914  2.7015 -0.8179
 3772TIP3    H232808   2.053   2.311  14.242  0.7268  1.1868  0.3232
 3773TIP3   OH232809   2.206   6.057  12.866  0.2850  0.5032  0.0283
 3773TIP3    H132810   2.112   6.051  12.886  0.7517 -0.2720  2.2062
 3773TIP3    H232811   2.234   6.138  12.909  0.5710  0.9222 -0.9197
 3774TIP3   OH232812   1.738   2.581   3.999 -0.3712  0.4830 -0.8304
 3774TIP3    H132813   1.741   2.524   3.922 -1.0409 -0.0006 -0.5132
 3774TIP3    H232814   1.733   2.521   4.073  2.3090  0.8656 -0.2200
 3775TIP3   OH232815   5.202   1.155  17.166  0.1235  0.4669  0.5828
 3775TIP3    H132816   5.188   1.215  17.239  1.6563 -0.2230  1.4793
 3775TIP3    H232817   5.253   1.083  17.202 -0.4292 -0.6803 -0.8136
 3776TIP3   OH232818   1.096   5.876  15.231  0.1952 -0.1009  0.4562
 3776TIP3    H132819   1.154   5.804  15.258 -0.1720 -0.5047  0.1758
 3776TIP3    H232820   1.102   5.939  15.303  0.0547 -0.6882  0.9997
 3777TIP3   OH232821   3.599   6.269   1.174 -0.7035 -0.6314 -0.6765
 3777TIP3    H132822   3.663   6.247   1.241 -2.5119 -0.2704  1.2939
 3777TIP3    H232823   3.648   6.317   1.107  1.4389 -2.2666 -0.3699
 3778TIP3   OH232824   0.610   2.635  14.166 -0.2655 -0.4435  0.0436
 3778TIP3    H132825   0.702   2.626  14.191 -0.5085  0.6704  1.4660
 3778TIP3    H232826   0.590   2.727  14.180 -1.3407 -0.4621 -1.2265
 3779TIP3   OH232827   3.255   6.463  13.621  0.2841  0.2959 -0.1273
 3779TIP3    H132828   3.303   6.536  13.661  1.5699  0.1188 -1.2775
 3779TIP3    H232829   3.307   6.439  13.544 -1.0991 -0.6274 -0.8186
 3780TIP3   OH232830   2.405   3.778  11.332  0.1388 -0.2783 -0.5868
 3780TIP3    H132831   2.459   3.798  11.256  1.2086  1.0638  0.4611
 3780TIP3    H232832   2.466   3.775  11.405 -1.0714  0.2977  0.5016
 3781TIP3   OH232833   4.482   3.114  14.050 -0.4208  0.2673  0.6132
 3781TIP3    H132834   4.530   3.121  13.968 -0.7929  0.4421  0.4110
 3781TIP3    H232835   4.520   3.036  14.093 -1.3836 -0.8553 -0.4988
 3782TIP3   OH232836   2.167   2.805   1.868 -0.1242 -0.2317  0.4642
 3782TIP3    H132837   2.080   2.844   1.875 -0.7111 -1.6539  1.5603
 3782TIP3    H232838   2.200   2.804   1.957  1.3812  1.0100 -0.0369
 3783TIP3   OH232839   1.094   1.669  11.984 -0.1851 -0.4503 -0.6811
 3783TIP3    H132840   1.018   1.726  11.971 -0.9088 -0.8804  1.2612
 3783TIP3    H232841   1.123   1.687  12.073  1.1170 -1.3258 -0.8983
 3784TIP3   OH232842   0.177   5.849  15.210 -0.0731 -0.3272 -0.1169
 3784TIP3    H132843   0.151   5.810  15.294 -0.4363 -0.6338 -0.3657
 3784TIP3    H232844   0.228   5.781  15.167 -1.2271 -0.7887 -0.8157
 3785TIP3   OH232845   2.887   1.514  15.603 -0.1648  0.1010  0.3954
 3785TIP3    H132846   2.980   1.536  15.601  0.1720 -1.2937 -0.8982
 3785TIP3    H232847   2.877   1.455  15.677  0.1430 -0.3644  0.0714
 3786TIP3   OH232848   0.238   0.603  13.211 -0.4093 -0.3335 -0.3909
 3786TIP3    H132849   0.178   0.678  13.204  0.9801  0.8738 -0.0221
 3786TIP3    H232850   0.195   0.543  13.271 -1.9410 -0.2191 -1.3384
 3787TIP3   OH232851   4.733   1.931   3.433  0.3077 -0.2638 -0.5714
 3787TIP3    H132852   4.739   2.014   3.480  0.6833 -0.6541  0.0920
 3787TIP3    H232853   4.667   1.881   3.480  1.7110 -1.2188  0.4746
 3788TIP3   OH232854   0.911   2.313   5.474  0.4203  0.3302 -0.3158
 3788TIP3    H132855   0.959   2.387   5.511  0.4612  0.3766 -0.4621
 3788TIP3    H232856   0.965   2.236   5.494 -0.5569  0.0668  1.5969
 3789TIP3   OH232857   6.640   3.777  13.675 -0.1238 -0.0817  0.1442
 3789TIP3    H132858   6.686   3.846  13.628 -0.4155 -0.5707 -0.8871
 3789TIP3    H232859   6.653   3.798  13.768 -1.8470  2.4634 -0.0960
 3790TIP3   OH232860   1.815   4.699  11.408 -0.5283 -1.0361 -0.5943
 3790TIP3    H132861   1.721   4.707  11.392 -0.4369 -0.4354 -0.8680
 3790TIP3    H232862   1.851   4.668  11.324 -0.0350  2.1996 -1.7328
 3791TIP3   OH232863   5.030   4.000   4.842 -0.2844  0.8763 -0.0125
 3791TIP3    H132864   4.966   4.006   4.771 -1.0671  0.8082  0.6706
 3791TIP3    H232865   5.087   3.928   4.817 -1.3755 -0.0358  0.0564
 3792TIP3   OH232866   1.539   1.691   2.701 -0.2433 -0.3515 -0.8530
 3792TIP3    H132867   1.562   1.730   2.785  4.3521 -0.0617 -1.9474
 3792TIP3    H232868   1.499   1.763   2.651 -2.5758 -0.4074  0.8032
 3793TIP3   OH232869   2.341   5.169   5.402  0.2446  0.0591 -0.2157
 3793TIP3    H132870   2.433   5.147   5.416 -0.0698 -1.3772 -0.2562
 3793TIP3    H232871   2.297   5.084   5.395 -0.9109  0.7173 -1.3254
 3794TIP3   OH232872   6.580   6.760  11.769  0.4472  0.0988  0.2126
 3794TIP3    H132873   6.573   6.836  11.711  0.1204 -1.0140 -1.3002
 3794TIP3    H232874   6.585   6.796  11.857 -2.3606  1.8131 -0.2070
 3795TIP3   OH232875   2.601   1.315   1.656  0.0208 -0.3514  0.0642
 3795TIP3    H132876   2.536   1.317   1.726  0.1376  1.8567  0.1953
 3795TIP3    H232877   2.673   1.369   1.689  0.9584 -0.9271 -0.9702
 3796TIP3   OH232878   0.091   1.057   0.887  0.4671 -0.1419  0.3089
 3796TIP3    H132879   0.010   1.075   0.934  0.5688  1.7695 -0.1830
 3796TIP3    H232880   0.158   1.105   0.936  0.9316  0.0637 -0.5181
 3797TIP3   OH232881   2.161   5.603  14.253 -0.2182 -0.1729 -0.1308
 3797TIP3    H132882   2.251   5.590  14.283 -0.3951  1.0434  0.9992
 3797TIP3    H232883   2.115   5.637  14.329 -2.0661 -2.3027 -0.1834
 3798TIP3   OH232884   2.069   4.229  12.100  0.2438 -0.0639 -0.2813
 3798TIP3    H132885   2.150   4.248  12.147 -0.9900 -1.5578  2.7070
 3798TIP3    H232886   2.068   4.134  12.090 -0.8134 -0.0071 -0.8564
 3799TIP3   OH232887   5.029   4.187   4.367 -0.3475  0.2575  0.2556
 3799TIP3    H132888   5.025   4.132   4.288 -0.2979 -0.0227  0.4479
 3799TIP3    H232889   4.940   4.223   4.374  0.2958  2.3639 -1.3960
 3800TIP3   OH232890   6.733   3.083  13.725  1.0584 -0.4356 -0.1029
 3800TIP3    H132891   6.781   3.101  13.806  2.0557  0.5445 -0.8608
 3800TIP3    H232892   6.800   3.090  13.656 -0.0456  0.2952 -1.1440
 3801TIP3   OH232893   3.195   0.569   1.251 -0.6912  0.2792 -0.0634
 3801TIP3    H132894   3.192   0.476   1.232  0.3902 -0.3069  2.2384
 3801TIP3    H232895   3.229   0.574   1.341 -1.1957  2.8630  0.0690
 3802TIP3   OH232896   2.592   2.460   4.505  0.3585 -0.3800  0.0436
 3802TIP3    H132897   2.521   2.423   4.452  1.0228 -0.9897 -0.4403
 3802TIP3    H232898   2.666   2.468   4.445  1.9789 -3.5654  1.3909
 3803TIP3   OH232899   6.450   5.948  11.746 -0.6138 -0.0679  0.0926
 3803TIP3    H132900   6.377   6.008  11.760 -0.5309  0.0397  0.0713
 3803TIP3    H232901   6.410   5.870  11.709 -0.5892  0.4014 -0.9610
 3804TIP3   OH232902   1.633   2.573   0.593  0.4531 -0.2510 -0.0057
 3804TIP3    H132903   1.694   2.615   0.654  1.3223 -0.5120 -0.6602
 3804TIP3    H232904   1.665   2.599   0.506 -0.9742  0.4095 -0.3590
 3805TIP3   OH232905   6.385   3.698  14.009  0.1644 -0.5688  0.2277
 3805TIP3    H132906   6.326   3.728  13.939 -1.6935 -1.4009  1.3531
 3805TIP3    H232907   6.417   3.778  14.049  2.9663  0.0435 -2.7560
 3806TIP3   OH232908   4.281   0.154   0.467 -0.3597  0.1882 -0.4098
 3806TIP3    H132909   4.278   0.081   0.405 -1.1096 -0.1636  0.0278
 3806TIP3    H232910   4.368   0.191   0.456 -0.1469 -0.4621 -0.9962
 3807TIP3   OH232911   3.403   5.172   4.152  0.4121  0.3220 -0.6411
 3807TIP3    H132912   3.416   5.231   4.226  0.7252 -1.3566  0.7180
 3807TIP3    H232913   3.374   5.228   4.081 -0.6194  1.9219  0.9518
 3808TIP3   OH232914   1.289   5.735   1.758  0.8778  0.0554 -0.9440
 3808TIP3    H132915   1.243   5.728   1.674  2.9112 -0.2124 -2.0835
 3808TIP3    H232916   1.366   5.678   1.749  1.9639  1.2090  0.5393
 3809TIP3   OH232917   1.654   5.331  13.592 -1.1242 -0.3432 -0.1485
 3809TIP3    H132918   1.631   5.394  13.660 -1.9212 -0.5577 -0.2119
 3809TIP3    H232919   1.677   5.251  13.639 -0.0104  0.0049 -0.0624
 3810TIP3   OH232920   5.782   5.445  16.216 -0.7511 -0.0957  0.1485
 3810TIP3    H132921   5.804   5.456  16.309 -1.3352  0.4155  0.2322
 3810TIP3    H232922   5.713   5.510  16.200 -0.4953 -0.0231 -0.6962
 3811TIP3   OH232923   6.190   3.601   2.758  0.5985 -0.7588  0.5719
 3811TIP3    H132924   6.222   3.518   2.793  2.2060 -0.6024 -0.4501
 3811TIP3    H232925   6.241   3.615   2.679 -2.2264 -0.6389 -1.3737
 3812TIP3   OH232926   3.909   1.854   5.939  0.1949  0.2542 -0.4573
 3812TIP3    H132927   3.919   1.950   5.938 -0.8519  0.3848 -1.6127
 3812TIP3    H232928   3.949   1.826   6.021  1.1899  1.6087 -0.4472
 3813TIP3   OH232929   0.969   5.194   2.466 -0.2556  0.6329  0.3469
 3813TIP3    H132930   0.938   5.106   2.443 -0.1761  0.0921  2.1395
 3813TIP3    H232931   1.046   5.208   2.410 -0.1956 -0.4899  0.1234
 3814TIP3   OH232932   0.425   0.463  16.444  0.3317 -0.2695  0.1192
 3814TIP3    H132933   0.385   0.534  16.495  0.2806  0.6456 -1.1505
 3814TIP3    H232934   0.405   0.384  16.494 -1.0091  0.4342  0.7537
 3815TIP3   OH232935   1.442   6.507  13.667 -0.5240 -0.2113  0.0298
 3815TIP3    H132936   1.353   6.542  13.666 -0.4303  0.0364  0.4039
 3815TIP3    H232937   1.462   6.489  13.575 -0.8366  0.0454 -0.0877
 3816TIP3   OH232938   0.840   4.809   2.961 -0.4610 -0.4643 -0.2006
 3816TIP3    H132939   0.772   4.748   2.933  1.1660 -2.0589 -0.9168
 3816TIP3    H232940   0.860   4.782   3.051  2.6450 -3.4981 -1.5744
 3817TIP3   OH232941   4.416   3.868  16.946  0.7639 -0.2455 -0.6955
 3817TIP3    H132942   4.495   3.826  16.980  0.6636 -0.1381 -0.3273
 3817TIP3    H232943   4.430   3.873  16.851  0.7759 -1.1175 -0.7451
 3818TIP3   OH232944   2.859   6.809  13.738 -0.3310  0.1993 -0.8160
 3818TIP3    H132945   2.882   6.844  13.824 -0.3846 -1.0145 -0.2853
 3818TIP3    H232946   2.774   6.847  13.719  0.0510  1.1377 -0.7255
 3819TIP3   OH232947   6.099   1.915   3.148 -0.0174  0.3940 -0.3490
 3819TIP3    H132948   6.140   1.840   3.193 -0.9744 -0.8009 -1.3815
 3819TIP3    H232949   6.005   1.893   3.147 -0.2191  1.2253 -1.3891
 3820TIP3   OH232950   1.701   3.983  11.769  0.3855 -0.1065 -0.0855
 3820TIP3    H132951   1.617   3.941  11.787  0.4882 -0.2117  0.1567
 3820TIP3    H232952   1.739   3.931  11.699 -0.4179  0.8395 -1.2741
 3821TIP3   OH232953   6.560   0.408   4.057 -0.0822 -0.7030  0.0783
 3821TIP3    H132954   6.604   0.493   4.055  1.0974 -1.2170  1.8490
 3821TIP3    H232955   6.539   0.390   3.965 -1.6176  2.0687 -0.2430
 3822TIP3   OH232956   5.586   0.649  12.456 -0.9859  0.5938  0.1063
 3822TIP3    H132957   5.589   0.683  12.546 -0.8390  0.1144  0.2891
 3822TIP3    H232958   5.619   0.720  12.402 -0.0144  0.4976  0.5580
 3823TIP3   OH232959   4.815   0.467  10.479 -0.4735 -0.1603  0.0583
 3823TIP3    H132960   4.800   0.414  10.557  1.5014 -1.1916 -0.1871
 3823TIP3    H232961   4.887   0.525  10.503 -2.3000  2.1789  0.1597
 3824TIP3   OH232962   2.202   1.440   4.518 -0.7300 -0.1679  0.2371
 3824TIP3    H132963   2.272   1.380   4.492  1.3928  2.1041  0.3391
 3824TIP3    H232964   2.123   1.404   4.478  0.2277 -3.4690  1.0526
 3825TIP3   OH232965   3.642   4.683  15.721 -0.2926  0.4447 -0.3852
 3825TIP3    H132966   3.721   4.638  15.750 -1.7110 -1.0418  1.4667
 3825TIP3    H232967   3.673   4.753  15.663  2.3941  0.3045  0.7661
 3826TIP3   OH232968   5.807   3.636   4.169  0.4229  0.0584  0.6447
 3826TIP3    H132969   5.852   3.564   4.212 -0.7030 -0.9324  0.2360
 3826TIP3    H232970   5.790   3.605   4.080 -1.2711  0.2731  0.8583
 3827TIP3   OH232971   1.135   3.384   5.327 -0.0379 -0.1252  0.8106
 3827TIP3    H132972   1.128   3.295   5.361  1.7096  0.0799  1.8192
 3827TIP3    H232973   1.225   3.392   5.295 -0.5485  0.8795 -0.5058
 3828TIP3   OH232974   0.652   0.982   0.370 -0.0203  0.1471 -0.4392
 3828TIP3    H132975   0.655   0.913   0.436  1.9954 -0.4456 -1.0985
 3828TIP3    H232976   0.589   0.951   0.305 -1.4737  0.4041  0.7888
 3829TIP3   OH232977   6.413   6.569   4.694  0.0289  0.4022 -0.0870
 3829TIP3    H132978   6.484   6.538   4.749 -0.8592 -0.6661  0.4952
 3829TIP3    H232979   6.379   6.646   4.739 -0.0902  0.0812  0.3719
 3830TIP3   OH232980   5.646   2.017  13.876  0.3144 -0.1279  0.4526
 3830TIP3    H132981   5.704   2.064  13.937  1.2490 -2.1656  1.2090
 3830TIP3    H232982   5.558   2.047  13.898  0.7467  0.0858  1.9896
 3831TIP3   OH232983   1.347   4.643   1.791  0.3659 -0.3749  0.3023
 3831TIP3    H132984   1.422   4.645   1.732  0.2296 -1.5518  0.0677
 3831TIP3    H232985   1.328   4.550   1.802 -1.7047 -0.0841 -0.4752
 3832TIP3   OH232986   2.716   2.834   1.169 -0.6580 -0.5220  0.2048
 3832TIP3    H132987   2.689   2.873   1.253  0.0023 -0.5426  0.4345
 3832TIP3    H232988   2.634   2.812   1.126 -1.0112 -0.5467  0.8683
 3833TIP3   OH232989   2.867   4.699   3.269 -0.3193  0.5488  0.0912
 3833TIP3    H132990   2.919   4.765   3.224 -0.1635  0.7032  0.4947
 3833TIP3    H232991   2.776   4.729   3.260 -0.3952  0.0553 -0.9904
 3834TIP3   OH232992   5.916   5.705   2.651  0.1960 -0.8616  0.0848
 3834TIP3    H132993   5.975   5.760   2.703 -1.4756  0.7914  0.3329
 3834TIP3    H232994   5.957   5.619   2.652  2.4598  0.1447  0.4516
 3835TIP3   OH232995   1.086   6.667  11.665  0.0208  0.4434  0.1865
 3835TIP3    H132996   1.113   6.595  11.722  0.6344  0.8478  0.4110
 3835TIP3    H232997   1.044   6.730  11.725 -0.3601  0.3493  0.0183
 3836TIP3   OH232998   0.039   3.834  17.099  0.1276 -0.3621  0.3187
 3836TIP3    H132999   0.120   3.784  17.083 -0.6841 -1.2727 -1.1917
 3836TIP3    H233000  -0.025   3.768  17.125 -0.6813  0.0353 -0.6257
 3837TIP3   OH233001   5.433   6.652  11.750 -0.0941 -0.5207  0.2785
 3837TIP3    H133002   5.456   6.610  11.667 -0.9038 -0.5331  0.0516
 3837TIP3    H233003   5.484   6.605  11.816  0.2672 -0.7594 -0.1629
 3838TIP3   OH233004   1.766   1.300  12.593  0.3121  0.4501 -0.3481
 3838TIP3    H133005   1.748   1.360  12.521 -2.6045  1.0770  0.7577
 3838TIP3    H233006   1.742   1.214  12.559  0.9844  0.4111 -0.7551
 3839TIP3   OH233007   1.714   5.798  11.139  0.3425 -0.0088 -0.0439
 3839TIP3    H133008   1.640   5.848  11.103  0.7807  1.2872  0.8069
 3839TIP3    H233009   1.703   5.711  11.102 -0.4647  0.6878 -1.5733
 3840TIP3   OH233010   1.251   1.394   4.882 -0.1207 -0.2297 -0.2324
 3840TIP3    H133011   1.302   1.431   4.810  0.7331 -2.6864 -0.9852
 3840TIP3    H233012   1.170   1.363   4.841  0.7161 -2.3867 -0.3935
 3841TIP3   OH233013   1.761   1.027  10.280 -0.4692  0.5628 -0.8818
 3841TIP3    H133014   1.708   0.988  10.210 -0.7329 -0.2248 -0.2683
 3841TIP3    H233015   1.741   0.974  10.357  1.7210 -0.2118 -0.7695
 3842TIP3   OH233016   4.435   2.188   0.382  0.1146 -0.1158  0.2851
 3842TIP3    H133017   4.379   2.264   0.368 -0.9475 -0.8283  0.5943
 3842TIP3    H233018   4.379   2.123   0.423  1.3116 -0.6584  1.1353
 3843TIP3   OH233019   2.599   1.195   5.995 -0.2235  0.2244  0.0124
 3843TIP3    H133020   2.624   1.127   6.057  1.1269  1.2837  0.6860
 3843TIP3    H233021   2.680   1.217   5.949 -0.4551  1.8505  0.3146
 3844TIP3   OH233022   5.217   3.753  12.501 -0.5292 -0.1684 -0.4605
 3844TIP3    H133023   5.137   3.796  12.532 -1.4485 -2.2386  0.1533
 3844TIP3    H233024   5.187   3.672  12.461  0.9170  0.8316 -3.9736
 3845TIP3   OH233025   4.443   4.539  11.706  0.4327 -0.3054 -0.0400
 3845TIP3    H133026   4.492   4.466  11.668 -0.2742 -0.9243  0.2346
 3845TIP3    H233027   4.393   4.501  11.777  1.0356  0.6879  0.9484
 3846TIP3   OH233028   1.762   3.546   5.136  0.6468  0.3784  0.0084
 3846TIP3    H133029   1.786   3.457   5.109 -0.8071 -0.0515  0.0324
 3846TIP3    H233030   1.706   3.578   5.065  2.1704  1.7964 -0.6268
 3847TIP3   OH233031   2.416   1.845   5.573  0.1827  0.1438  0.5775
 3847TIP3    H133032   2.323   1.867   5.572  0.2327  0.3469 -0.0375
 3847TIP3    H233033   2.427   1.789   5.650 -0.5522 -0.3450  0.3351
 3848TIP3   OH233034   0.278   4.704  11.398 -0.3149 -0.2977 -0.1391
 3848TIP3    H133035   0.249   4.678  11.311 -1.4729 -1.1263  0.4631
 3848TIP3    H233036   0.233   4.787  11.415 -1.3989 -0.9385  0.2764
 3849TIP3   OH233037   4.345   6.176  12.253 -0.2896  0.4668  0.0338
 3849TIP3    H133038   4.303   6.114  12.193  1.0951 -0.6157  0.1436
 3849TIP3    H233039   4.439   6.163  12.240  0.0413  2.0817  0.5625
 3850TIP3   OH233040   3.828   1.005  15.543  0.0727  0.2058 -0.3094
 3850TIP3    H133041   3.872   1.003  15.628  0.1148  2.6910 -0.2025
 3850TIP3    H233042   3.738   1.031  15.563  0.6162  3.0585 -1.1002
 3851TIP3   OH233043   3.483   6.422  15.721  0.3938 -0.2548 -0.0358
 3851TIP3    H133044   3.503   6.379  15.805 -0.4037 -0.2134  0.1843
 3851TIP3    H233045   3.394   6.453  15.732  0.0193 -0.8922 -1.1798
 3852TIP3   OH233046   1.108   1.494   5.229  0.2271  0.5723  0.1010
 3852TIP3    H133047   1.050   1.559   5.268 -0.0545  0.7098 -0.5376
 3852TIP3    H233048   1.054   1.449   5.164  0.8447  0.7548 -0.5595
 3853TIP3   OH233049   3.072   1.912  13.040 -0.2782 -0.8889  0.2564
 3853TIP3    H133050   3.125   1.856  12.982 -1.6459 -1.6882 -0.2529
 3853TIP3    H233051   3.127   1.923  13.117  2.1459  1.2164 -1.5785
 3854TIP3   OH233052   6.283   1.865  16.739 -0.2378 -0.5985 -0.1737
 3854TIP3    H133053   6.208   1.806  16.750 -1.1655  0.6406  0.3649
 3854TIP3    H233054   6.288   1.912  16.822 -0.9098  1.6362 -1.3333
 3855TIP3   OH233055   6.486   0.087   4.390 -0.1498 -0.8279 -0.1017
 3855TIP3    H133056   6.498   0.158   4.453 -0.1189  0.3595 -1.3863
 3855TIP3    H233057   6.557   0.026   4.409 -0.9864 -1.2545  1.9277
 3856TIP3   OH233058   6.328   4.671   4.855  0.5605 -0.3458 -0.2430
 3856TIP3    H133059   6.310   4.723   4.777  0.9362  0.3174  0.1107
 3856TIP3    H233060   6.308   4.581   4.828  0.1917 -0.0629 -0.9450
 3857TIP3   OH233061   2.024   3.502  15.180  0.5651  0.2394 -0.3012
 3857TIP3    H133062   2.090   3.435  15.200  0.8166 -0.3130 -2.7390
 3857TIP3    H233063   2.058   3.582  15.221  0.4275 -0.9753  2.3708
 3858TIP3   OH233064   5.618   0.556   2.075 -0.3667  0.6709 -0.6075
 3858TIP3    H133065   5.538   0.559   2.128  0.1468  0.5880  0.1891
 3858TIP3    H233066   5.673   0.624   2.113  0.4620 -0.1578 -0.3044
 3859TIP3   OH233067   0.792   6.392  12.290 -0.0931 -0.6210 -0.4463
 3859TIP3    H133068   0.830   6.351  12.367 -1.4419  0.2923  0.7545
 3859TIP3    H233069   0.773   6.320  12.230 -0.6650 -1.5272  0.8122
 3860TIP3   OH233070   3.853   5.565  15.608  0.0918  0.3962 -0.5214
 3860TIP3    H133071   3.843   5.479  15.566 -0.2119  0.1076  0.1239
 3860TIP3    H233072   3.781   5.568  15.672 -0.1412  1.2957 -0.8126
 3861TIP3   OH233073   4.243   2.981  14.739 -0.4610  0.0171  0.2440
 3861TIP3    H133074   4.241   2.895  14.698 -1.1846  0.8179 -1.4848
 3861TIP3    H233075   4.167   2.982  14.797 -1.5591  0.1242 -1.1496
 3862TIP3   OH233076   0.764   1.137   4.977  0.2815  0.0688  0.0558
 3862TIP3    H133077   0.773   1.165   5.068  0.3898 -0.8347  0.3260
 3862TIP3    H233078   0.854   1.126   4.946  0.2558  0.7222 -0.2823
 3863TIP3   OH233079   5.547   6.160   4.509 -0.0659  0.1914  0.2438
 3863TIP3    H133080   5.473   6.221   4.517 -0.5035 -0.4485  1.1006
 3863TIP3    H233081   5.530   6.092   4.573  0.2547 -1.0288 -0.9151
 3864TIP3   OH233082   0.135   0.677   6.169 -0.2236 -0.5439  0.2327
 3864TIP3    H133083   0.226   0.682   6.196  0.3164 -1.6025 -1.2542
 3864TIP3    H233084   0.087   0.655   6.249  0.7437  0.4492  1.1156
 3865TIP3   OH233085   5.162   5.823   4.407  0.2245 -0.4493 -0.4396
 3865TIP3    H133086   5.155   5.896   4.469  1.7783  0.1115 -0.8736
 3865TIP3    H233087   5.151   5.864   4.321  0.5550 -0.8053 -0.6553
 3866TIP3   OH233088   2.869   1.436  10.886 -0.1761  0.3373 -0.0129
 3866TIP3    H133089   2.866   1.415  10.793 -0.6335  1.9697 -0.3936
 3866TIP3    H233090   2.868   1.532  10.890  1.4237  0.3495  1.6261
 3867TIP3   OH233091   3.725   5.439   2.667  0.0575  0.3657  0.1670
 3867TIP3    H133092   3.766   5.355   2.685  0.4849  0.5269 -0.0468
 3867TIP3    H233093   3.635   5.429   2.699 -0.4316 -0.7714 -1.3889
 3868TIP3   OH233094   1.623   4.397   0.916 -0.0588  0.4026  0.4498
 3868TIP3    H133095   1.595   4.487   0.902  1.1035  0.3820 -2.7098
 3868TIP3    H233096   1.622   4.357   0.829 -0.2341 -2.5716  1.7028
 3869TIP3   OH233097   5.535   1.589   0.103  0.1209  0.2780  0.4086
 3869TIP3    H133098   5.445   1.619   0.119 -0.8924 -2.4821  0.4445
 3869TIP3    H233099   5.580   1.602   0.186 -0.3129  1.3295  0.5042
 3870TIP3   OH233100   1.437   6.098   0.086 -0.1302 -0.3709  0.1640
 3870TIP3    H133101   1.352   6.057   0.075 -0.8579  1.5095 -2.1604
 3870TIP3    H233102   1.481   6.085   0.002  0.7820  0.9705  0.3972
 3871TIP3   OH233103   1.291   6.509  15.484 -0.2810 -0.1518 -0.5489
 3871TIP3    H133104   1.263   6.545  15.400 -0.0457  1.3519 -0.0223
 3871TIP3    H233105   1.331   6.584  15.529  0.5890 -1.1930  0.4567
 3872TIP3   OH233106   1.068   2.762  17.220 -0.1381 -0.1195  0.3888
 3872TIP3    H133107   1.132   2.704  17.179 -1.1477 -1.3179  0.4324
 3872TIP3    H233108   1.117   2.841  17.241  1.7998 -1.6525  2.1086
 3873TIP3   OH233109   6.447   4.143   2.111  0.1249 -0.0095 -0.6249
 3873TIP3    H133110   6.455   4.229   2.153  1.2500  0.3172 -1.4769
 3873TIP3    H233111   6.522   4.094   2.144 -1.4889 -1.3530  1.3137
 3874TIP3   OH233112   2.701   2.647   3.819 -0.1661 -0.3053 -0.3742
 3874TIP3    H133113   2.650   2.727   3.827 -0.4045 -0.6079  1.8902
 3874TIP3    H233114   2.646   2.579   3.858  0.3016 -1.4710 -1.6417
 3875TIP3   OH233115   5.375   0.721  14.896  0.3206  0.4390  0.3729
 3875TIP3    H133116   5.317   0.657  14.855  1.1274  0.5859 -1.0899
 3875TIP3    H233117   5.452   0.671  14.921  0.8618  0.7581 -0.5780
 3876TIP3   OH233118   6.310   5.845   3.724  0.1012 -0.4052  0.4918
 3876TIP3    H133119   6.328   5.816   3.634 -2.1498  0.1127 -0.1944
 3876TIP3    H233120   6.218   5.870   3.723  0.0367 -0.3042  2.9569
 3877TIP3   OH233121   4.239   2.711   1.087 -0.5166 -0.1465  0.2296
 3877TIP3    H133122   4.293   2.763   1.145  1.6963 -0.1653 -1.6574
 3877TIP3    H233123   4.172   2.772   1.055 -1.5481 -0.0573  2.4165
 3878TIP3   OH233124   2.761   3.573   2.123 -0.3081  0.7284  0.5986
 3878TIP3    H133125   2.699   3.630   2.169 -0.2673  0.1130  1.4520
 3878TIP3    H233126   2.737   3.485   2.151 -0.4546  0.3105 -0.8210
 3879TIP3   OH233127   4.087   6.817   0.657  0.1312 -0.0181 -0.6388
 3879TIP3    H133128   4.001   6.830   0.617  0.7704 -0.3496 -2.1577
 3879TIP3    H233129   4.142   6.884   0.618  0.6755 -0.0545  0.0487
 3880TIP3   OH233130   3.153   6.066   2.166  0.0900 -0.4928  0.2901
 3880TIP3    H133131   3.077   6.052   2.223 -0.8637  1.8392 -0.3051
 3880TIP3    H233132   3.129   6.025   2.083  0.0545 -0.9205  0.5080
 3881TIP3   OH233133   1.235   1.961  14.607  0.0113 -0.3256  0.4085
 3881TIP3    H133134   1.191   1.877  14.597 -0.6534  0.0460  0.1742
 3881TIP3    H233135   1.176   2.024  14.566  2.0519 -0.1788 -2.5847
 3882TIP3   OH233136   3.906   3.860   0.086 -0.2008  0.2753 -0.2125
 3882TIP3    H133137   3.991   3.901   0.102 -0.8215  2.0590 -1.2001
 3882TIP3    H233138   3.913   3.824  -0.003 -0.3012 -0.0837 -0.0774
 3883TIP3   OH233139   3.594   3.358  12.960  0.4369  0.7324  0.5811
 3883TIP3    H133140   3.578   3.265  12.945 -1.0073  1.3457 -2.3824
 3883TIP3    H233141   3.686   3.362  12.986  0.7061 -1.4553  0.1938
 3884TIP3   OH233142   3.552   4.292  14.159 -0.4936 -0.2640 -0.0766
 3884TIP3    H133143   3.610   4.238  14.212  1.2961  0.3204 -1.3617
 3884TIP3    H233144   3.576   4.382  14.180 -1.1832 -0.0008 -0.3726
 3885TIP3   OH233145   5.002   0.811   3.244 -0.6075 -0.0346  0.1039
 3885TIP3    H133146   5.016   0.731   3.294  1.8595  0.2692  0.0347
 3885TIP3    H233147   4.988   0.782   3.154  0.1212 -0.4231  0.1090
 3886TIP3   OH233148   4.642   5.480   2.515  0.3377 -0.0175  0.1295
 3886TIP3    H133149   4.589   5.560   2.506 -2.3421 -1.6000  0.5933
 3886TIP3    H233150   4.622   5.429   2.437  1.9583 -0.3037 -0.1274
 3887TIP3   OH233151   1.454   5.315   0.896  0.4844  0.0362 -0.4538
 3887TIP3    H133152   1.377   5.341   0.845  1.3465  0.0060 -1.8182
 3887TIP3    H233153   1.422   5.246   0.954 -0.6269  0.3739 -0.6387
 3888TIP3   OH233154   0.172   4.627  10.821 -0.3505  0.1717  0.2890
 3888TIP3    H133155   0.267   4.627  10.833 -0.1524 -0.4473 -1.1011
 3888TIP3    H233156   0.137   4.654  10.906  1.1915  4.1337 -0.0942
 3889TIP3   OH233157   1.265   2.589   2.451 -0.2548  0.8786  0.2193
 3889TIP3    H133158   1.208   2.643   2.506  1.7774  3.1513  0.2802
 3889TIP3    H233159   1.327   2.651   2.412  2.9494 -1.4666  1.1016
 3890TIP3   OH233160   6.427   6.131  16.389 -0.3984 -0.3017 -0.7018
 3890TIP3    H133161   6.450   6.039  16.401  0.1954  0.0842  1.5709
 3890TIP3    H233162   6.342   6.130  16.346 -0.4934 -1.9034 -0.5187
 3891TIP3   OH233163   2.007   0.344  12.417  0.5619  0.0565 -0.8594
 3891TIP3    H133164   2.016   0.337  12.322 -1.2259  0.0075 -1.0759
 3891TIP3    H233165   1.940   0.278  12.439 -0.4637  1.3740  0.1372
 3892TIP3   OH233166   4.322   4.456   3.054 -0.1689  0.0462  0.2798
 3892TIP3    H133167   4.291   4.485   2.968  1.4630  2.1466  0.3201
 3892TIP3    H233168   4.246   4.467   3.112 -0.6635  0.7109 -0.4748
 3893TIP3   OH233169   3.474   1.702  10.985 -0.0322  0.2374 -0.1066
 3893TIP3    H133170   3.404   1.645  11.017 -0.3145  0.4648 -0.3204
 3893TIP3    H233171   3.499   1.664  10.900 -0.8386  0.9402 -0.6804
 3894TIP3   OH233172   0.636   4.635  12.804 -0.3805  0.2244  0.0914
 3894TIP3    H133173   0.709   4.671  12.754 -0.5829 -0.4772 -0.7255
 3894TIP3    H233174   0.624   4.697  12.876  0.4954  0.7731 -0.2178
 3895TIP3   OH233175   4.941   5.801  13.161  0.0214 -0.0657 -0.6704
 3895TIP3    H133176   4.862   5.797  13.108 -0.3436 -0.3451 -0.1148
 3895TIP3    H233177   5.012   5.775  13.102 -0.3632 -0.2565 -1.0450
 3896TIP3   OH233178   2.482   0.996   1.742 -0.0834 -0.5258 -0.0622
 3896TIP3    H133179   2.493   1.089   1.762  1.2939 -0.3174 -1.5917
 3896TIP3    H233180   2.470   0.993   1.647  0.5096 -1.9566 -0.1162
 3897TIP3   OH233181   4.567   3.827  11.410 -0.0487 -0.0667  1.0353
 3897TIP3    H133182   4.503   3.792  11.348  1.3852  0.1690 -0.6497
 3897TIP3    H233183   4.518   3.892  11.460 -1.3177 -0.4578  0.3542
 3898TIP3   OH233184   3.204   2.827   2.014  0.2209  0.1860  0.3943
 3898TIP3    H133185   3.153   2.908   2.010 -0.6019 -0.3558 -0.5915
 3898TIP3    H233186   3.153   2.764   1.964  0.9879 -0.8780  0.9065
 3899TIP3   OH233187   5.235   0.098   3.041 -1.0594 -0.4089 -0.3008
 3899TIP3    H133188   5.148   0.074   3.074 -1.2560  0.9674  0.2498
 3899TIP3    H233189   5.233   0.193   3.035  0.5812 -0.3181  0.1765
 3900TIP3   OH233190   5.261   5.527  12.573  0.3373 -0.6312 -0.4979
 3900TIP3    H133191   5.267   5.448  12.520  2.0744 -0.6040 -0.4135
 3900TIP3    H233192   5.336   5.522  12.632  0.5750  1.1415 -0.6008
 3901TIP3   OH233193   3.827   1.182  10.796  0.0565  0.0028 -0.0948
 3901TIP3    H133194   3.828   1.231  10.714 -1.2063  1.4829  0.7335
 3901TIP3    H233195   3.809   1.092  10.770 -0.3019  0.4525 -1.4517
 3902TIP3   OH233196   5.368   5.794   3.339  0.0952 -0.1630  0.2734
 3902TIP3    H133197   5.318   5.819   3.261  1.1922 -0.2316 -0.4681
 3902TIP3    H233198   5.336   5.853   3.407 -1.9944 -1.1254  0.2057
 3903TIP3   OH233199   6.114   1.811   6.250 -0.0653 -0.0157 -0.4053
 3903TIP3    H133200   6.208   1.830   6.246  0.0208  0.1796  1.4686
 3903TIP3    H233201   6.097   1.797   6.343 -1.8594 -0.2877 -0.7428
 3904TIP3   OH233202   0.019   5.605  12.196 -0.2361 -0.5825 -0.5678
 3904TIP3    H133203   0.032   5.530  12.138  0.6281 -0.4968 -0.4918
 3904TIP3    H233204   0.082   5.670  12.165  0.2962 -0.5685  0.5205
 3905TIP3   OH233205   0.906   1.705  11.632  0.3058 -0.4729  0.1400
 3905TIP3    H133206   0.904   1.733  11.723  0.8398  1.9267 -0.4995
 3905TIP3    H233207   0.984   1.748  11.596  1.3665 -3.1429 -0.9635
 3906TIP3   OH233208   6.049   1.446  14.404 -0.4193 -0.6848 -0.0211
 3906TIP3    H133209   6.118   1.388  14.371 -1.0556 -1.6324  0.2797
 3906TIP3    H233210   6.085   1.534  14.393  1.1953 -1.1727  0.9035
 3907TIP3   OH233211   4.384   4.077   6.087  0.4600 -0.1188  0.0531
 3907TIP3    H133212   4.334   4.039   6.160  0.2597  0.6014  0.3075
 3907TIP3    H233213   4.375   4.172   6.100  1.0248  0.0131 -0.5032
 3908TIP3   OH233214   2.451   0.089  10.874  0.6278 -0.4221 -0.6094
 3908TIP3    H133215   2.475   0.170  10.830  1.8257 -0.3409  0.1469
 3908TIP3    H233216   2.496   0.093  10.958 -0.8521 -0.9946  0.2499
 3909TIP3   OH233217   0.399   0.333   2.694 -0.2477 -0.3530  0.0464
 3909TIP3    H133218   0.329   0.292   2.644  0.0278 -1.0540  0.2187
 3909TIP3    H233219   0.411   0.419   2.653  0.4562 -1.1717 -1.5829
 3910TIP3   OH233220   0.532   4.166   3.519  0.2972  0.2321 -0.1988
 3910TIP3    H133221   0.486   4.083   3.533 -0.8689  0.8810 -0.0729
 3910TIP3    H233222   0.593   4.147   3.448  1.8871 -1.4230  1.4861
 3911TIP3   OH233223   2.506   3.655   2.915 -0.1060  0.6057  0.2854
 3911TIP3    H133224   2.535   3.652   3.006  0.1953 -3.2338  0.2127
 3911TIP3    H233225   2.410   3.654   2.921 -0.0897 -0.5807  0.6093
 3912TIP3   OH233226   0.969   0.729   1.576  0.1532  0.2404  1.2257
 3912TIP3    H133227   0.931   0.642   1.563 -0.8015  0.7206  0.7550
 3912TIP3    H233228   1.064   0.714   1.574  0.0223 -0.5748 -0.3828
 3913TIP3   OH233229   2.567   0.587   0.206  0.1546  0.0859  0.4097
 3913TIP3    H133230   2.486   0.638   0.199  1.1282  1.5947 -0.1921
 3913TIP3    H233231   2.611   0.623   0.283  0.3500 -0.6205  0.6380
 3914TIP3   OH233232   0.552   0.089  12.887 -0.2220  0.3792  0.0750
 3914TIP3    H133233   0.553  -0.006  12.900  0.0081  0.3932  0.1647
 3914TIP3    H233234   0.498   0.123  12.958  1.5277  0.5138  1.3937
 3915TIP3   OH233235   3.278   0.609  13.400 -0.1965 -0.1765  0.3856
 3915TIP3    H133236   3.332   0.645  13.470  0.4185  0.4589 -0.4090
 3915TIP3    H233237   3.190   0.645  13.417  0.2719  1.2216 -0.0381
 3916TIP3   OH233238   4.851   1.128  14.320 -0.1592  0.7623 -0.2317
 3916TIP3    H133239   4.770   1.174  14.342 -1.1756 -0.7907 -0.5813
 3916TIP3    H233240   4.908   1.196  14.282 -1.5008  1.7799 -0.4750
 3917TIP3   OH233241   5.373   2.415   4.208  0.1054 -0.0244 -0.4763
 3917TIP3    H133242   5.335   2.375   4.130  2.8440  0.3248 -2.0969
 3917TIP3    H233243   5.465   2.430   4.186  0.8846  0.5620  2.6597
 3918TIP3   OH233244   1.267   2.317   2.171 -0.7245 -0.4208  0.3074
 3918TIP3    H133245   1.347   2.363   2.195  0.3311 -0.9404 -1.9780
 3918TIP3    H233246   1.234   2.365   2.095 -1.5883 -1.3163  0.1028
 3919TIP3   OH233247   2.676   1.523   0.541  0.3647 -0.3058 -0.3255
 3919TIP3    H133248   2.754   1.578   0.533  0.6076 -0.8531 -2.2197
 3919TIP3    H233249   2.670   1.477   0.457 -1.3661 -1.1363  0.1992
 3920TIP3   OH233250   6.063   5.628   4.914  0.2830 -0.2773 -0.5885
 3920TIP3    H133251   6.149   5.630   4.956 -0.3204  0.3419  0.6722
 3920TIP3    H233252   6.040   5.535   4.911 -0.1501 -0.3124  1.6008
 3921TIP3   OH233253   0.243   2.074  16.601  0.2506  0.0814  0.0185
 3921TIP3    H133254   0.186   2.059  16.676 -1.7280 -2.5988 -1.8163
 3921TIP3    H233255   0.332   2.067  16.636 -0.5985 -1.2826  2.1114
 3922TIP3   OH233256   5.740   0.108  16.532 -0.1199  0.0260 -0.4048
 3922TIP3    H133257   5.706   0.174  16.472 -0.2051  0.2114 -0.1539
 3922TIP3    H233258   5.834   0.103  16.511  0.0523  0.8353  0.1428
 3923TIP3   OH233259   3.397   2.574  12.452  0.0337  0.0988  0.1287
 3923TIP3    H133260   3.307   2.546  12.437 -0.1347  0.2813  0.7595
 3923TIP3    H233261   3.403   2.583  12.547  0.7018  0.1427  0.0856
 3924TIP3   OH233262   2.211   2.718   4.227  0.9298 -0.4628 -0.0419
 3924TIP3    H133263   2.156   2.787   4.265  0.2843 -1.4065  0.7690
 3924TIP3    H233264   2.278   2.701   4.292  0.4122 -1.3846  0.2706
 3925TIP3   OH233265   2.362   1.616   6.107 -0.1086  0.4735 -0.2452
 3925TIP3    H133266   2.279   1.618   6.153 -0.7489 -3.3970 -0.8636
 3925TIP3    H233267   2.380   1.523   6.095  2.5490  1.2049 -3.2956
 3926TIP3   OH233268   5.170   0.821  16.245  0.2879  0.5156  0.4001
 3926TIP3    H133269   5.252   0.847  16.205  1.7698 -2.4115  1.2728
 3926TIP3    H233270   5.189   0.818  16.339 -1.1950  0.9642  0.7425
 3927TIP3   OH233271   6.239   3.802   1.531  0.6995 -0.2949 -0.0018
 3927TIP3    H133272   6.149   3.787   1.559  0.6495 -1.1548 -0.5690
 3927TIP3    H233273   6.231   3.861   1.456  0.8205  1.8356  1.5681
 3928TIP3   OH233274   4.855   4.753  12.228 -0.0500 -0.0606 -0.5932
 3928TIP3    H133275   4.837   4.768  12.136  1.0138  0.2559 -0.7713
 3928TIP3    H233276   4.938   4.706  12.229 -0.0512 -0.0658  0.1994
 3929TIP3   OH233277   6.305   6.235   3.269 -0.4758  0.0244  0.1745
 3929TIP3    H133278   6.246   6.310   3.281  1.7932  2.0688 -0.7601
 3929TIP3    H233279   6.386   6.260   3.314  0.3475 -1.9060 -0.1368
 3930TIP3   OH233280   0.671   6.334   1.495 -0.5106  0.0201 -0.3318
 3930TIP3    H133281   0.752   6.356   1.543 -1.9459  0.2356  2.1698
 3930TIP3    H233282   0.673   6.239   1.489 -0.1458  0.0108 -0.1385
 3931TIP3   OH233283   1.471   5.767   0.293 -0.3220 -0.4001  0.0398
 3931TIP3    H133284   1.379   5.792   0.301 -0.7759 -1.6005 -1.0386
 3931TIP3    H233285   1.468   5.672   0.279  1.0846 -0.4446 -0.0266
 3932TIP3   OH233286   4.926   5.328   3.932 -0.2945 -0.0313 -0.2293
 3932TIP3    H133287   5.019   5.307   3.948  0.5488  1.1877 -2.9576
 3932TIP3    H233288   4.905   5.281   3.851 -2.4449 -1.1232  0.8822
 3933TIP3   OH233289   6.448   5.823  11.443 -0.0583  0.2390  0.0122
 3933TIP3    H133290   6.410   5.776  11.517  3.3872 -0.0771  1.7994
 3933TIP3    H233291   6.515   5.764  11.410 -1.0910  0.6304 -3.1000
 3934TIP3   OH233292   1.468   0.208   6.695 -0.0897  0.1339  0.2743
 3934TIP3    H133293   1.432   0.131   6.652 -1.8488  1.1363 -0.1702
 3934TIP3    H233294   1.511   0.257   6.625  0.2784 -0.0102  0.3948
 3935TIP3   OH233295   4.776   2.130   4.003  0.2165 -0.0287 -0.0448
 3935TIP3    H133296   4.741   2.179   3.929 -0.7718 -0.5632  0.0535
 3935TIP3    H233297   4.865   2.106   3.976  0.6844  1.7134 -0.1215
 3936TIP3   OH233298   0.224   0.061  12.513  0.5656  0.1785  0.4511
 3936TIP3    H133299   0.154   0.068  12.449 -0.5173 -0.2172  1.5498
 3936TIP3    H233300   0.298   0.108  12.474  0.1915 -0.7004 -1.3917
 3937TIP3   OH233301   4.498   2.856  16.412 -0.1765  0.3574 -0.4038
 3937TIP3    H133302   4.446   2.806  16.475  1.0093 -0.7813 -0.2878
 3937TIP3    H233303   4.538   2.926  16.464  1.5776 -1.1478  0.3896
 3938TIP3   OH233304   5.950   1.575   3.026  0.2225 -0.0995  0.4330
 3938TIP3    H133305   6.009   1.500   3.027 -0.4572 -0.6389  0.6100
 3938TIP3    H233306   5.869   1.543   3.065 -0.4987  0.3714 -0.6396
 3939TIP3   OH233307   0.177   0.092   3.763 -0.0237 -0.4816  0.3273
 3939TIP3    H133308   0.242   0.071   3.830  0.3951  0.8420  0.3639
 3939TIP3    H233309   0.215   0.059   3.681 -0.1829 -1.4101  0.6238
 3940TIP3   OH233310   1.417   5.543  11.991 -0.3579 -0.7230  0.5530
 3940TIP3    H133311   1.381   5.630  11.976  0.6421 -0.4789 -0.5303
 3940TIP3    H233312   1.511   5.557  12.003 -0.4969 -1.3852  3.0445
 3941TIP3   OH233313   0.322   4.824  13.322  0.1796  0.4546  0.5142
 3941TIP3    H133314   0.262   4.882  13.369  1.6604  0.7167  2.1703
 3941TIP3    H233315   0.342   4.755  13.384  0.8856 -0.1365 -0.3511
 3942TIP3   OH233316   6.591   6.280   1.055  0.4325 -0.3141  0.0781
 3942TIP3    H133317   6.519   6.342   1.047 -0.7584 -1.7629 -1.2443
 3942TIP3    H233318   6.660   6.316   1.000  0.2273  0.4424  0.3056
 3943TIP3   OH233319   0.193   0.038   1.750 -0.2109 -0.5629 -0.1421
 3943TIP3    H133320   0.271   0.010   1.703 -0.8897 -0.7429 -1.1820
 3943TIP3    H233321   0.211   0.129   1.774  0.6998 -0.8918  0.4812
 3944TIP3   OH233322   1.911   2.828   1.901 -0.0899 -0.2335  0.3368
 3944TIP3    H133323   1.907   2.735   1.878  0.4589 -0.1062 -0.3152
 3944TIP3    H233324   1.831   2.844   1.950 -1.2156 -0.5881 -1.2997
 3945TIP3   OH233325   2.973   4.799  14.729 -0.4176 -0.3936 -0.0108
 3945TIP3    H133326   3.065   4.787  14.706 -0.6593  0.5181 -1.5894
 3945TIP3    H233327   2.925   4.774  14.650 -1.3936  1.1157  0.0582
 3946TIP3   OH233328   4.816   4.879  12.745 -0.9712  0.1613 -0.2891
 3946TIP3    H133329   4.853   4.842  12.826 -3.8095  0.0272  1.0864
 3946TIP3    H233330   4.846   4.821  12.676 -0.0176 -0.8613  0.9325
 3947TIP3   OH233331   3.612   1.265   3.437 -0.0006  0.2828  0.2460
 3947TIP3    H133332   3.681   1.312   3.390  0.5983 -1.4814 -0.7295
 3947TIP3    H233333   3.545   1.248   3.371 -0.2885 -0.0782  0.6277
 3948TIP3   OH233334   1.934   5.359  14.933  0.2500  0.0996  0.0836
 3948TIP3    H133335   1.936   5.397  14.846  0.8351 -1.2636 -0.5399
 3948TIP3    H233336   2.026   5.357  14.961  0.0563  0.6392  0.7862
 3949TIP3   OH233337   3.565   5.506   0.890  0.4992 -0.0320 -0.2915
 3949TIP3    H133338   3.591   5.582   0.942 -0.1846  1.5896 -2.1789
 3949TIP3    H233339   3.473   5.493   0.911  0.4144  0.1735 -0.5200
 3950TIP3   OH233340   2.919   0.393  11.972  0.0615  0.3803 -0.0884
 3950TIP3    H133341   2.931   0.366  11.881 -2.0332 -1.4048  0.0673
 3950TIP3    H233342   2.856   0.465  11.968  1.7317  1.8992 -0.1487
 3951TIP3   OH233343   3.015   2.863   1.670 -0.1758 -0.7617 -0.3377
 3951TIP3    H133344   3.103   2.837   1.695  0.4380  1.3592 -0.0500
 3951TIP3    H233345   3.023   2.957   1.650 -2.0339 -0.8845 -1.9141
 3952TIP3   OH233346   0.159   0.429   4.349  0.1811  0.1194  0.9184
 3952TIP3    H133347   0.095   0.452   4.416 -1.5167 -0.3019 -0.5030
 3952TIP3    H233348   0.110   0.427   4.267  2.3642  1.5558 -0.5507
 3953TIP3   OH233349   3.703   1.268  15.312 -0.4394  0.0534  0.3314
 3953TIP3    H133350   3.622   1.216  15.311  0.2333 -1.1293 -2.1725
 3953TIP3    H233351   3.728   1.274  15.220  2.3451  0.3539  1.0251
 3954TIP3   OH233352   6.281   0.225   6.269 -0.1912  0.2082 -0.0619
 3954TIP3    H133353   6.307   0.222   6.361 -0.9166 -2.1980  0.1442
 3954TIP3    H233354   6.186   0.212   6.270  0.0246 -2.0282 -1.1587
 3955TIP3   OH233355   4.674   1.572   1.810  0.5456 -0.0586  0.3955
 3955TIP3    H133356   4.658   1.491   1.761  0.7352 -1.5409  2.6453
 3955TIP3    H233357   4.625   1.562   1.891  1.5842  1.5243  1.2829
 3956TIP3   OH233358   5.856   4.745  11.349 -0.2093 -0.2328 -0.2582
 3956TIP3    H133359   5.834   4.838  11.357  1.0052  0.1381 -0.9653
 3956TIP3    H233360   5.864   4.715  11.439 -1.3035  0.1680 -0.0128
 3957TIP3   OH233361   3.926   1.560  11.607  0.2948 -0.2259  0.0840
 3957TIP3    H133362   3.882   1.626  11.553 -2.5157 -2.2020 -0.2537
 3957TIP3    H233363   3.958   1.495  11.544  1.3039 -0.1720  0.5277
 3958TIP3   OH233364   1.267   1.637  16.228  0.3740 -0.0329 -0.1718
 3958TIP3    H133365   1.182   1.629  16.272  0.2761  0.9052 -0.1737
 3958TIP3    H233366   1.306   1.716  16.266  1.1752 -0.3562 -0.3017
 3959TIP3   OH233367   1.109   6.256   3.455  0.2134  0.6905  0.1357
 3959TIP3    H133368   1.119   6.246   3.550  1.6962 -0.2521 -0.0902
 3959TIP3    H233369   1.174   6.323   3.432 -0.9624  1.7999 -0.0884
 3960TIP3   OH233370   4.307   1.572   3.587 -0.1057 -0.3110  0.1664
 3960TIP3    H133371   4.293   1.658   3.548  1.3580 -1.3155 -2.8447
 3960TIP3    H233372   4.281   1.510   3.519  1.7205 -2.2315  1.1021
 3961TIP3   OH233373   2.524   2.297  11.877 -0.0135 -0.0487 -0.4134
 3961TIP3    H133374   2.471   2.370  11.909  0.1957  0.0832 -0.3625
 3961TIP3    H233375   2.463   2.225  11.868 -0.2932  0.2377 -0.8156
 3962TIP3   OH233376   1.879   2.300   2.753  0.2060  0.5255 -0.0923
 3962TIP3    H133377   1.945   2.354   2.708  1.0406  1.0856  1.7110
 3962TIP3    H233378   1.808   2.291   2.689 -0.1591  4.1088 -0.4142
 3963TIP3   OH233379   2.151   5.352  16.360  0.3269 -0.1421  0.5061
 3963TIP3    H133380   2.082   5.289  16.381  1.4601 -1.2203  1.1170
 3963TIP3    H233381   2.190   5.319  16.279 -0.4422  0.9679 -0.3424
 3964TIP3   OH233382   2.254   3.560  10.647 -0.0424 -0.1197  0.4342
 3964TIP3    H133383   2.280   3.651  10.637 -2.3573  0.5324 -0.3059
 3964TIP3    H233384   2.165   3.564  10.682 -0.8609 -2.0304 -1.2042
 3965TIP3   OH233385   5.390   3.712  14.630  0.2817  0.4149 -0.0166
 3965TIP3    H133386   5.336   3.772  14.578  0.8500  1.4719  0.5775
 3965TIP3    H233387   5.327   3.651  14.669 -0.2887  0.4909 -0.7739
 3966TIP3   OH233388   5.802   0.864   2.895  0.5597  0.2706 -0.3162
 3966TIP3    H133389   5.812   0.907   2.810  1.7994  1.9200  0.6060
 3966TIP3    H233390   5.854   0.784   2.888  0.1382  0.0701 -1.2948
 3967TIP3   OH233391   1.934   4.582   5.869 -0.3226 -0.1874 -0.0606
 3967TIP3    H133392   1.877   4.525   5.817 -0.0370 -0.5184 -0.0158
 3967TIP3    H233393   1.877   4.653   5.898 -0.8476 -0.8231  0.4806
 3968TIP3   OH233394   4.055   6.106   4.424 -0.6441  0.1071 -0.0821
 3968TIP3    H133395   4.019   6.018   4.431  0.1762 -0.2757 -0.5659
 3968TIP3    H233396   4.048   6.128   4.331  2.4086 -0.9059 -0.6604
 3969TIP3   OH233397   3.108   4.057  13.025 -0.2531  0.1586 -0.4219
 3969TIP3    H133398   3.187   4.006  13.044  1.2729  2.2407 -0.7151
 3969TIP3    H233399   3.052   4.045  13.102  1.4992  0.6226  1.0115
 3970TIP3   OH233400   5.560   2.822  13.901  0.0835 -0.2433 -0.0567
 3970TIP3    H133401   5.535   2.731  13.889  1.8826 -0.8016  0.1807
 3970TIP3    H233402   5.655   2.820  13.914  0.1366  1.6411  0.1740
 3971TIP3   OH233403   0.838   6.636   3.811  0.1619 -0.2935 -0.2444
 3971TIP3    H133404   0.880   6.605   3.731 -0.7160  0.2143 -0.9236
 3971TIP3    H233405   0.799   6.557   3.849 -0.3854 -0.3614 -0.9250
 3972TIP3   OH233406   4.214   3.393   2.777 -0.1018  0.3625 -0.2014
 3972TIP3    H133407   4.269   3.318   2.797  0.0755  0.7053  0.6695
 3972TIP3    H233408   4.142   3.358   2.725  0.2145 -0.3284 -0.1757
 3973TIP3   OH233409   4.460   3.997   1.684 -0.0828 -0.4389 -0.8103
 3973TIP3    H133410   4.519   4.071   1.667  1.9412 -2.2730 -2.1719
 3973TIP3    H233411   4.384   4.014   1.628  0.1390  0.8077 -0.7682
 3974TIP3   OH233412   1.515   1.394  12.723 -0.9696  0.0034 -0.2941
 3974TIP3    H133413   1.515   1.453  12.648 -0.8617 -2.1125 -2.0442
 3974TIP3    H233414   1.599   1.349  12.717  0.7041  2.1936  3.2151
 3975TIP3   OH233415   4.329   6.262   3.283  0.0376  0.4037 -0.3518
 3975TIP3    H133416   4.261   6.285   3.346  0.2447 -0.3036  0.1500
 3975TIP3    H233417   4.341   6.341   3.230 -1.5967  0.3369 -0.8550
 3976TIP3   OH233418   1.488   4.322  14.598 -0.0861 -0.0762 -0.0922
 3976TIP3    H133419   1.521   4.412  14.598 -0.3259  0.1043  2.7246
 3976TIP3    H233420   1.400   4.329  14.634 -0.7363 -1.3137 -1.3430
 3977TIP3   OH233421   1.943   2.844   5.102  0.4068 -0.4292  0.3714
 3977TIP3    H133422   1.997   2.766   5.114  2.0531  0.4345 -0.9612
 3977TIP3    H233423   1.983   2.890   5.028 -1.4026  0.9410  0.1594
 3978TIP3   OH233424   6.455   3.606  12.903 -0.1407 -0.4337  0.6824
 3978TIP3    H133425   6.413   3.548  12.966  0.8161  0.3485  2.0813
 3978TIP3    H233426   6.417   3.693  12.920  2.2672  0.4048  2.3305
 3979TIP3   OH233427   4.252   2.957   3.792  0.0584 -0.0030  0.6035
 3979TIP3    H133428   4.339   2.987   3.817 -0.8327  1.5588  2.0970
 3979TIP3    H233429   4.194   3.030   3.816 -1.5172 -0.4213 -1.6360
 3980TIP3   OH233430   6.012   0.731   4.826 -0.2953 -0.2471  0.0933
 3980TIP3    H133431   5.938   0.672   4.812 -0.8048  0.7543 -1.6889
 3980TIP3    H233432   6.048   0.747   4.739  1.3655  0.1667  0.7973
 3981TIP3   OH233433   1.449   5.366  15.940 -0.0739  0.3990 -0.1566
 3981TIP3    H133434   1.376   5.378  15.879 -0.8625  1.4268  0.9464
 3981TIP3    H233435   1.519   5.422  15.906 -0.1275  0.1717 -0.6639
 3982TIP3   OH233436   0.249   2.204  13.896 -0.0793 -0.2952 -0.4476
 3982TIP3    H133437   0.191   2.280  13.893  0.2723  0.2174  2.4561
 3982TIP3    H233438   0.190   2.129  13.904 -0.4343  0.1172  1.2497
 3983TIP3   OH233439   1.025   2.678  11.639  0.7271  0.2865  0.2488
 3983TIP3    H133440   1.020   2.589  11.605  0.2266  0.1989  0.5393
 3983TIP3    H233441   0.956   2.725  11.592  0.4713  0.3253  0.6565
 3984TIP3   OH233442   2.325   6.216   0.540 -0.2598 -0.3226  0.4570
 3984TIP3    H133443   2.268   6.147   0.573 -0.5530  0.0398  0.7174
 3984TIP3    H233444   2.273   6.260   0.472 -0.3927  0.1683  0.8692
 3985TIP3   OH233445   5.779   0.270  10.964 -0.4121 -0.3095 -0.2368
 3985TIP3    H133446   5.871   0.248  10.955 -0.0085  1.0351  0.4262
 3985TIP3    H233447   5.742   0.252  10.877  0.4808 -0.7391 -0.5453
 3986TIP3   OH233448   1.990   0.433   4.738 -0.3652  0.1658 -0.5161
 3986TIP3    H133449   1.955   0.354   4.697 -0.9275  0.1481 -0.0118
 3986TIP3    H233450   2.052   0.468   4.673 -0.3577 -0.5002 -0.8806
 3987TIP3   OH233451   4.314   3.392  11.877 -0.5062 -0.4358  0.1495
 3987TIP3    H133452   4.368   3.413  11.953 -0.2346 -0.7056  0.0332
 3987TIP3    H233453   4.364   3.423  11.802 -1.0332  0.3467  0.1133
 3988TIP3   OH233454   2.929   4.475  14.980  0.5223 -0.0113 -1.0034
 3988TIP3    H133455   2.897   4.565  14.976  1.5371  0.3428 -3.6196
 3988TIP3    H233456   2.979   4.470  15.061  2.7435  2.7082 -2.0411
 3989TIP3   OH233457   1.793   4.638  11.100  1.0294 -0.5745 -0.0233
 3989TIP3    H133458   1.774   4.624  11.007 -0.7067 -1.1183  0.3814
 3989TIP3    H233459   1.750   4.565  11.144  0.3014  0.6465  1.3573
 3990TIP3   OH233460   3.231   3.808   0.256 -0.1726 -0.0534  0.2968
 3990TIP3    H133461   3.227   3.845   0.344 -1.2706  0.5211  0.0305
 3990TIP3    H233462   3.322   3.781   0.245  0.1137  0.4094  1.3831
 3991TIP3   OH233463   4.495   6.295   2.641 -0.1402  0.3588 -1.0807
 3991TIP3    H133464   4.558   6.258   2.703 -1.0913 -2.4912 -1.6383
 3991TIP3    H233465   4.472   6.381   2.677  0.6099 -0.4812  1.5893
 3992TIP3   OH233466   6.334   5.307   3.483 -0.6004  0.1445 -0.7037
 3992TIP3    H133467   6.415   5.287   3.435 -0.6935  1.9906 -1.7271
 3992TIP3    H233468   6.264   5.282   3.422 -0.8981 -2.2810  0.5139
 3993TIP3   OH233469   1.524   6.582  16.615 -0.1077  0.0011 -0.1352
 3993TIP3    H133470   1.591   6.613  16.676 -0.1511 -1.0498  0.4655
 3993TIP3    H233471   1.507   6.657  16.558 -0.8902  1.4276  1.8668
 3994TIP3   OH233472   4.709   0.517   2.062  0.1620 -0.0606  0.0640
 3994TIP3    H133473   4.662   0.449   2.014  0.1225  0.3844 -0.5468
 3994TIP3    H233474   4.643   0.553   2.122  0.2631 -0.7509  0.6051
 3995TIP3   OH233475   4.599   3.253   4.610  0.6188  0.0779  0.0703
 3995TIP3    H133476   4.509   3.273   4.583 -0.3527  0.1608  3.0792
 3995TIP3    H233477   4.607   3.158   4.600  1.0610  0.2823 -2.3397
 3996TIP3   OH233478   1.524   3.996   3.916 -0.4094 -0.4706 -0.5584
 3996TIP3    H133479   1.607   3.971   3.958  0.7593  2.9212 -0.4954
 3996TIP3    H233480   1.542   3.991   3.822  0.3773  1.4825 -0.5506
 3997TIP3   OH233481   3.546   0.805  11.304  0.0873 -0.5724  0.3669
 3997TIP3    H133482   3.545   0.780  11.397 -1.6079 -1.3944  0.1793
 3997TIP3    H233483   3.612   0.874  11.298  1.4415 -1.6647  1.8602
 3998TIP3   OH233484   3.450   5.310   1.547 -0.0403  0.0539  0.0444
 3998TIP3    H133485   3.404   5.310   1.631 -2.0450  2.0296 -0.9308
 3998TIP3    H233486   3.518   5.377   1.558 -0.1749  0.1712  0.1818
 3999TIP3   OH233487   5.286   0.235  14.119 -0.3542 -0.1941  0.4025
 3999TIP3    H133488   5.270   0.158  14.064  0.0281  0.6451 -0.9392
 3999TIP3    H233489   5.313   0.199  14.204 -0.0907 -1.5369 -0.2215
 4000TIP3   OH233490   5.798   6.555  12.100 -0.0425 -0.2603  0.1660
 4000TIP3    H133491   5.738   6.501  12.047 -0.1412 -0.0096  0.0219
 4000TIP3    H233492   5.748   6.634  12.120  0.7311  0.6303 -1.2250
 4001TIP3   OH233493   2.566   2.645   4.982  0.1721 -0.6824 -0.6546
 4001TIP3    H133494   2.582   2.569   5.038 -2.2563 -0.8430 -0.1038
 4001TIP3    H233495   2.537   2.608   4.899  1.2303 -0.3697 -1.1898
 4002TIP3   OH233496   2.735   0.507  15.317  0.1066  0.1974 -0.1427
 4002TIP3    H133497   2.831   0.508  15.312  0.0808  0.7965 -0.5294
 4002TIP3    H233498   2.713   0.580  15.374 -0.0880 -0.4611  0.6402
 4003TIP3   OH233499   1.419   0.218   3.794  0.2511  0.1919 -0.0261
 4003TIP3    H133500   1.412   0.195   3.702 -0.8310  1.0618 -0.1892
 4003TIP3    H233501   1.410   0.313   3.796 -0.0779  0.1566  1.0082
 4004TIP3   OH233502   6.353   2.982   5.451  0.5925 -0.2890  0.1064
 4004TIP3    H133503   6.408   2.905   5.435  0.5999 -0.5388  1.3005
 4004TIP3    H233504   6.355   2.994   5.545 -0.6983  0.2300  0.0868
 4005TIP3   OH233505   1.547   4.380   0.063  0.1862 -0.4899  0.1613
 4005TIP3    H133506   1.457   4.412   0.059  0.7060  1.1606  0.6912
 4005TIP3    H233507   1.543   4.292   0.028 -1.3074  0.2538 -1.6761
 4006TIP3   OH233508   3.478   0.477   4.220 -0.5793  0.1993  0.3158
 4006TIP3    H133509   3.506   0.557   4.265 -3.1450  1.6982 -0.5457
 4006TIP3    H233510   3.458   0.416   4.291 -2.3488  1.7255  1.2284
 4007TIP3   OH233511   6.326   0.616   5.611  0.5020  0.2368 -0.6186
 4007TIP3    H133512   6.295   0.684   5.671  2.8749 -2.2295  3.9877
 4007TIP3    H233513   6.257   0.551   5.611  0.7138  0.0073 -0.0815
 4008TIP3   OH233514   5.145   2.148   4.596 -0.3308 -0.8541 -0.0848
 4008TIP3    H133515   5.186   2.217   4.544 -0.1513 -1.0179 -0.1660
 4008TIP3    H233516   5.201   2.071   4.580 -0.5065 -1.0056  0.0329
 4009TIP3   OH233517   4.919   1.113   4.140  0.3025 -0.3105 -0.4322
 4009TIP3    H133518   4.932   1.061   4.220  1.0767  0.0707 -0.2999
 4009TIP3    H233519   4.998   1.098   4.089  0.5953  0.8354 -0.3341
 4010TIP3   OH233520   5.578   2.272   3.535 -0.2967 -0.0641 -0.0880
 4010TIP3    H133521   5.612   2.248   3.621 -1.2204 -2.5422 -0.3231
 4010TIP3    H233522   5.487   2.299   3.551  0.5839  3.1662  0.1041
 4011TIP3   OH233523   5.420   6.303   6.105  0.2495 -0.1105  0.3692
 4011TIP3    H133524   5.475   6.376   6.134 -2.1654  2.5530 -1.1846
 4011TIP3    H233525   5.340   6.312   6.155 -0.6599 -0.7861 -0.9048
 4012TIP3   OH233526   6.093   0.125  15.146  0.1616  0.2928  0.0630
 4012TIP3    H133527   6.107   0.048  15.202  1.1093 -1.7426 -2.7367
 4012TIP3    H233528   6.178   0.169  15.145  0.4217 -0.2086 -0.4801
 4013TIP3   OH233529   2.220   1.686   0.316  0.6641 -0.1941  0.0908
 4013TIP3    H133530   2.244   1.594   0.307  2.0028  0.1175  0.1949
 4013TIP3    H233531   2.304   1.731   0.327  0.0507  1.0672 -0.2190
 4014TIP3   OH233532   0.249   5.376   1.936 -0.2533 -0.3916  0.8970
 4014TIP3    H133533   0.322   5.427   1.900 -2.4016  1.8153 -0.6869
 4014TIP3    H233534   0.192   5.441   1.977 -1.1730 -2.0753  2.4243
 4015TIP3   OH233535   6.559   0.494  14.353 -0.1352  0.1024  0.3932
 4015TIP3    H133536   6.558   0.573  14.408 -1.7090 -0.8940  1.8947
 4015TIP3    H233537   6.644   0.454  14.369  0.2833  0.9693  0.3861
 4016TIP3   OH233538   2.153   5.361   1.023  0.1318  0.0316  0.4138
 4016TIP3    H133539   2.167   5.340   1.116 -0.0807 -0.5368  0.3219
 4016TIP3    H233540   2.214   5.432   1.005  0.0857  0.2366  1.0237
 4017TIP3   OH233541   2.316   2.319   3.459  0.0952 -0.4498 -0.8108
 4017TIP3    H133542   2.324   2.410   3.486 -1.1318 -0.9385  1.4389
 4017TIP3    H233543   2.403   2.281   3.477  0.0512 -0.1511  0.0947
 4018TIP3   OH233544   6.044   4.150  13.343  0.4879  1.1171 -0.0578
 4018TIP3    H133545   6.068   4.241  13.356  1.2458  1.0620 -1.0065
 4018TIP3    H233546   6.015   4.145  13.252  3.0983 -0.1178 -0.8974
 4019TIP3   OH233547   5.230   3.065   1.351  0.1253 -0.7104  0.4599
 4019TIP3    H133548   5.290   3.138   1.368 -0.3402 -0.8141  2.7711
 4019TIP3    H233549   5.272   2.989   1.391 -0.3585 -1.3290 -0.1700
 4020TIP3   OH233550   3.520   6.120  13.875 -0.1771 -0.3922  0.4145
 4020TIP3    H133551   3.517   6.213  13.857  1.1917 -0.2259  0.8999
 4020TIP3    H233552   3.551   6.114  13.966  0.1002 -1.3089  0.2777
 4021TIP3   OH233553   2.425   4.068  11.895  0.2730 -0.3200  0.5597
 4021TIP3    H133554   2.424   4.043  11.987 -1.7396 -0.3811  0.5563
 4021TIP3    H233555   2.381   3.996  11.850  0.9411 -0.1367 -0.4286
 4022TIP3   OH233556   6.399   6.036  15.186 -0.1623 -0.0464  0.3220
 4022TIP3    H133557   6.454   6.030  15.264 -0.3933  0.4999  0.5259
 4022TIP3    H233558   6.416   6.123  15.151 -0.2151 -0.2152 -0.1237
 4023TIP3   OH233559   3.084   3.104  15.050 -0.0908 -0.3515 -0.2399
 4023TIP3    H133560   3.127   3.164  14.989  1.2687 -0.7383  0.2919
 4023TIP3    H233561   3.029   3.161  15.104 -2.1752 -0.1269 -2.4487
 4024TIP3   OH233562   5.771   4.621   2.897 -0.3260 -0.5622  0.3340
 4024TIP3    H133563   5.714   4.647   2.825  0.3151  0.8878  0.3172
 4024TIP3    H233564   5.743   4.676   2.970  1.2747  0.4398  0.2215
 4025TIP3   OH233565   0.561   6.082  16.265  0.0496  0.3892  0.7438
 4025TIP3    H133566   0.637   6.137  16.249 -0.6302  0.7090 -1.8045
 4025TIP3    H233567   0.487   6.144  16.266 -0.4780 -0.2199  0.1682
 4026TIP3   OH233568   5.067   5.255   2.155  0.5631 -0.1545 -0.1825
 4026TIP3    H133569   5.121   5.302   2.092 -0.9262 -1.0709 -2.2659
 4026TIP3    H233570   5.036   5.322   2.215  1.2464  0.9355 -0.9975
 4027TIP3   OH233571   6.465   0.183   0.237 -0.2935 -0.3276 -0.8569
 4027TIP3    H133572   6.407   0.135   0.296 -0.7357  0.0166 -1.0070
 4027TIP3    H233573   6.407   0.242   0.189  0.1996  0.1227 -0.9077
 4028TIP3   OH233574   1.021   3.493   1.879  0.0477 -0.2242  0.1606
 4028TIP3    H133575   0.941   3.546   1.874 -0.2921 -0.6041  1.2789
 4028TIP3    H233576   1.029   3.470   1.972  1.7601  0.2567  0.1598
 4029TIP3   OH233577   3.325   5.787  14.855 -0.3843 -0.0351 -0.2510
 4029TIP3    H133578   3.290   5.849  14.918 -0.9111  0.4423 -0.9922
 4029TIP3    H233579   3.420   5.798  14.861 -0.2676 -1.5813  2.0170
 4030TIP3   OH233580   2.194   2.994  16.378 -0.2903 -0.6906 -0.0369
 4030TIP3    H133581   2.196   3.071  16.321  0.0561 -0.5758  0.1316
 4030TIP3    H233582   2.277   2.950  16.361 -0.6983 -1.2967 -0.5040
 4031TIP3   OH233583   1.111   0.072   3.984  0.3903  0.1213 -0.6791
 4031TIP3    H133584   1.016   0.085   3.973  0.5349  0.5067 -1.5307
 4031TIP3    H233585   1.126   0.091   4.077 -0.2888  0.5707 -0.6491
 4032TIP3   OH233586   5.302   0.652  11.155  0.3942  0.0351 -0.3792
 4032TIP3    H133587   5.279   0.589  11.224  2.1672  1.1121  1.3130
 4032TIP3    H233588   5.339   0.598  11.085 -2.8524 -1.2562 -1.2873
 4033TIP3   OH233589   6.062   3.131  16.118  0.7148  0.3341 -0.1454
 4033TIP3    H133590   5.985   3.184  16.140  1.7480  1.5885  0.6210
 4033TIP3    H233591   6.061   3.126  16.022 -1.0551 -0.8715 -0.1257
 4034TIP3   OH233592   5.583   4.964   0.401 -0.2354  0.5551 -0.0270
 4034TIP3    H133593   5.546   4.929   0.482 -0.6096 -1.4109 -0.9875
 4034TIP3    H233594   5.521   4.939   0.333  1.1758  0.1769 -1.2316
 4035TIP3   OH233595   2.118   2.853  16.054  0.1601  0.4012  0.7787
 4035TIP3    H133596   2.080   2.776  16.096  2.1482 -0.6428  0.8127
 4035TIP3    H233597   2.175   2.892  16.121 -0.6136  1.7670  0.6723
 4036TIP3   OH233598   3.082   6.353   0.103  0.0842  0.1479  0.3943
 4036TIP3    H133599   3.143   6.280   0.103  0.4244  0.3876  2.0641
 4036TIP3    H233600   3.055   6.361   0.194 -1.0046  1.2391  0.0009
 4037TIP3   OH233601   6.002   0.563  15.188 -0.5543 -0.2341 -0.2506
 4037TIP3    H133602   6.004   0.481  15.137  1.2180  0.6021 -1.6204
 4037TIP3    H233603   6.090   0.572  15.223 -0.3927  1.6426 -1.0639
 4038TIP3   OH233604   1.827   5.737  14.874  0.3061  0.6067  0.0400
 4038TIP3    H133605   1.746   5.692  14.853  0.8181 -0.0666 -0.5414
 4038TIP3    H233606   1.896   5.685  14.833  1.0983  0.8236  1.0284
 4039TIP3   OH233607   1.324   1.572  11.191 -0.4385  0.4031 -0.4406
 4039TIP3    H133608   1.373   1.522  11.256  0.7365  0.2267 -1.4394
 4039TIP3    H233609   1.245   1.602  11.238  0.7099  0.8930  1.2610
 4040TIP3   OH233610   3.412   6.244  12.421  0.0329 -0.1957 -0.1585
 4040TIP3    H133611   3.333   6.234  12.368 -0.6963 -0.5566  0.9647
 4040TIP3    H233612   3.382   6.234  12.512  1.3602 -0.3076  0.2931
 4041TIP3   OH233613   1.247   2.310   5.396  0.6150  0.0163 -0.0432
 4041TIP3    H133614   1.323   2.342   5.445  0.7707  2.2150 -1.5883
 4041TIP3    H233615   1.282   2.240   5.341  1.3256  0.3153  0.0142
 4042TIP3   OH233616   0.492   1.095  15.788 -0.0868 -0.2614  0.4234
 4042TIP3    H133617   0.411   1.080  15.836  0.6688  0.4308  1.9748
 4042TIP3    H233618   0.469   1.161  15.723 -0.8102 -0.2187  0.7147
 4043TIP3   OH233619   0.581   4.446   5.783 -0.2993  0.9248 -0.0254
 4043TIP3    H133620   0.607   4.357   5.758  1.8216  1.0038  1.6248
 4043TIP3    H233621   0.600   4.499   5.706 -0.0894  0.1732 -0.4998
 4044TIP3   OH233622   6.227   5.576   6.299  0.6963  0.1930 -0.1045
 4044TIP3    H133623   6.213   5.632   6.223 -1.8390 -0.9791 -0.5966
 4044TIP3    H233624   6.148   5.588   6.353 -0.2350 -3.1963 -0.4863
 4045TIP3   OH233625   3.788   3.946  12.167  0.5460 -0.1356 -0.1308
 4045TIP3    H133626   3.752   3.994  12.241 -0.8300 -2.1069  0.5505
 4045TIP3    H233627   3.880   3.931  12.190  0.2978 -0.1381  0.8606
 4046TIP3   OH233628   3.619   1.696   4.344  0.4575 -0.3274  0.2812
 4046TIP3    H133629   3.561   1.622   4.325  0.8048 -1.1919  2.3436
 4046TIP3    H233630   3.581   1.736   4.422  2.4224 -0.6966  1.4780
 4047TIP3   OH233631   1.257   4.739  12.606  0.4293 -0.3496 -0.0533
 4047TIP3    H133632   1.217   4.739  12.519 -0.9707 -0.2363  0.5643
 4047TIP3    H233633   1.299   4.825  12.614  1.1324 -0.6036 -0.8385
 4048TIP3   OH233634   0.960   6.362  17.016 -0.1702 -0.3238  0.4944
 4048TIP3    H133635   0.999   6.414  17.086  0.4894  2.6631 -1.8671
 4048TIP3    H233636   1.034   6.337  16.961 -1.0136  1.6663 -1.6976
 4049TIP3   OH233637   0.512   1.011  14.333 -0.5970  0.5674 -0.2482
 4049TIP3    H133638   0.563   0.932  14.313  0.7196  1.3262  0.0338
 4049TIP3    H233639   0.450   0.982  14.401 -2.3290 -0.9881 -2.3264
 4050TIP3   OH233640   4.474   4.710   0.452 -0.0048  0.1096 -0.1519
 4050TIP3    H133641   4.500   4.791   0.495 -1.3777 -0.5726  2.1653
 4050TIP3    H233642   4.438   4.738   0.368  2.2543  1.5709 -0.7141
 4051TIP3   OH233643   1.988   4.063  12.977 -0.1833 -0.3105  0.2829
 4051TIP3    H133644   1.962   4.077  13.068 -1.0638  2.4543 -0.2784
 4051TIP3    H233645   1.905   4.059  12.929  0.2778  0.2223 -0.5907
 4052TIP3   OH233646   2.249   2.076   5.509 -0.3949  0.6349 -0.2673
 4052TIP3    H133647   2.169   2.083   5.456 -1.0084  2.4226  0.8129
 4052TIP3    H233648   2.222   2.104   5.596  0.4175 -2.9505  1.2810
 4053TIP3   OH233649   5.877   4.605   1.563  0.8234 -0.4855 -0.4562
 4053TIP3    H133650   5.786   4.588   1.538  0.7738  0.4479 -0.9509
 4053TIP3    H233651   5.888   4.699   1.549  2.4394 -0.9004 -2.2537
 4054TIP3   OH233652   3.860   0.064  11.842 -0.4085 -0.1793 -1.1077
 4054TIP3    H133653   3.845   0.130  11.775 -0.0852  1.8130  0.6600
 4054TIP3    H233654   3.773   0.042  11.874 -0.4324  0.7197 -0.5263
 4055TIP3   OH233655   5.781   0.214   4.672 -0.1305 -0.3585 -0.0052
 4055TIP3    H133656   5.786   0.265   4.753  1.9334  0.2895 -0.4671
 4055TIP3    H233657   5.718   0.261   4.617  1.2493  1.3901 -0.1684
 4056TIP3   OH233658   4.216   5.255   4.524 -0.3616  0.3072 -0.2616
 4056TIP3    H133659   4.295   5.277   4.475  0.5526 -2.2894 -0.0867
 4056TIP3    H233660   4.164   5.202   4.463  0.8795 -3.1472  1.4523
 4057TIP3   OH233661   6.599   5.109   4.047 -0.4740  0.1611 -0.3328
 4057TIP3    H133662   6.642   5.150   4.122 -1.3274  1.3618 -0.4604
 4057TIP3    H233663   6.555   5.182   4.002 -3.0324 -1.0199  0.0527
 4058TIP3   OH233664   0.584   4.931   5.027  0.2254 -0.3987 -0.4892
 4058TIP3    H133665   0.522   4.932   4.955 -1.9448 -1.7469  1.2252
 4058TIP3    H233666   0.631   5.014   5.020 -1.7733  0.6866 -1.8594
 4059TIP3   OH233667   5.792   0.168   0.401  0.2228 -0.1967  0.3966
 4059TIP3    H133668   5.791   0.151   0.495  0.3188  3.3395  1.1668
 4059TIP3    H233669   5.885   0.167   0.377  0.2039 -1.0020  0.3396
 4060TIP3   OH233670   1.006   6.049  14.724 -0.8278  0.5479 -0.4177
 4060TIP3    H133671   1.069   6.120  14.712  0.1284 -0.2607 -0.3526
 4060TIP3    H233672   1.056   5.969  14.707 -1.8132 -0.1314 -0.2539
 4061TIP3   OH233673   6.286   4.416   1.387  0.0539  0.0071  0.2791
 4061TIP3    H133674   6.246   4.499   1.411  0.5028  0.3214 -0.0361
 4061TIP3    H233675   6.376   4.422   1.419  0.3640  0.0312 -0.5730
 4062TIP3   OH233676   3.191   5.296   5.449  0.7076  0.0839 -0.1718
 4062TIP3    H133677   3.220   5.205   5.459  0.6804  0.2172  1.4011
 4062TIP3    H233678   3.272   5.347   5.448  0.7987  0.4635  4.3031
 4063TIP3   OH233679   0.824   5.844   3.164  0.2178  0.4495 -0.0311
 4063TIP3    H133680   0.840   5.751   3.150  1.0485  0.4465  0.8518
 4063TIP3    H233681   0.897   5.888   3.121 -2.0214  0.9692 -3.7551
 4064TIP3   OH233682   6.681   2.239   3.383 -0.3096  0.1647 -0.0498
 4064TIP3    H133683   6.606   2.296   3.401  0.3109  1.6871 -1.9248
 4064TIP3    H233684   6.655   2.191   3.304  0.4621  0.3240 -0.4114
 4065TIP3   OH233685   2.379   5.354   3.112 -0.4435  0.2037  0.3976
 4065TIP3    H133686   2.454   5.404   3.146 -0.4155 -0.4225  1.3099
 4065TIP3    H233687   2.392   5.354   3.018  1.4116 -0.9309  0.5962
 4066TIP3   OH233688   2.038   0.219   2.162 -0.3439 -0.2227 -0.3316
 4066TIP3    H133689   2.012   0.224   2.070  1.1152  0.4994 -0.7351
 4066TIP3    H233690   2.001   0.136   2.193 -0.8855 -0.4600 -1.5561
 4067TIP3   OH233691   0.972   3.851  15.244  0.1084 -0.5093 -0.1526
 4067TIP3    H133692   1.006   3.798  15.316  0.9116  0.6347  0.3276
 4067TIP3    H233693   0.989   3.941  15.269 -2.1593  0.0827 -0.4849
 4068TIP3   OH233694   6.354   2.835  15.585 -0.4493 -0.2094  0.1224
 4068TIP3    H133695   6.395   2.920  15.573  1.6028 -1.0267  0.8969
 4068TIP3    H233696   6.260   2.854  15.588 -0.1547  1.7838 -1.3933
 4069TIP3   OH233697   0.173   6.501   0.749 -0.0376  0.2761  0.2813
 4069TIP3    H133698   0.139   6.587   0.725  2.9197  1.9856  1.6302
 4069TIP3    H233699   0.205   6.464   0.667  1.8603  2.0962  0.1247
 4070TIP3   OH233700   3.541   6.478   5.669 -0.2093 -0.4024 -0.5090
 4070TIP3    H133701   3.479   6.454   5.600 -0.7758  0.0440 -0.1616
 4070TIP3    H233702   3.494   6.461   5.751  1.0871 -2.6998 -0.1564
 4071TIP3   OH233703   4.134   0.272  11.461  0.4033 -0.3568  0.1881
 4071TIP3    H133704   4.087   0.311  11.535  1.4959  1.9989 -0.2814
 4071TIP3    H233705   4.068   0.263  11.392  0.0105  0.1405  0.4993
 4072TIP3   OH233706   4.113   3.625  13.936 -0.1772 -0.4244  0.3603
 4072TIP3    H133707   4.098   3.720  13.927  1.7772 -0.0665  0.3774
 4072TIP3    H233708   4.079   3.604  14.023 -0.3135  0.3324  0.5028
 4073TIP3   OH233709   1.299   4.983   2.751  0.4898  0.2166 -0.1899
 4073TIP3    H133710   1.286   4.954   2.661  1.5300  1.6850 -0.8620
 4073TIP3    H233711   1.342   5.068   2.742  2.0802 -0.3253  1.7116
 4074TIP3   OH233712   3.391   5.147  12.791  0.1533  0.7510 -0.2515
 4074TIP3    H133713   3.374   5.239  12.772  0.0513  0.4695 -1.6861
 4074TIP3    H233714   3.312   5.117  12.836 -0.2361  1.1412 -0.6579
 4075TIP3   OH233715   0.480   4.742  16.583 -0.4262 -0.7406  0.1494
 4075TIP3    H133716   0.499   4.812  16.521 -0.8416 -0.4581  0.3343
 4075TIP3    H233717   0.424   4.783  16.649 -1.5396 -1.5020 -0.2924
 4076TIP3   OH233718   6.195   1.935  11.666  0.0063 -0.4545  0.1712
 4076TIP3    H133719   6.288   1.914  11.671  0.4917  1.6499  3.4340
 4076TIP3    H233720   6.192   2.023  11.628 -0.7988 -1.0134 -1.1108
 4077TIP3   OH233721   3.055   0.038   0.323  0.1312  0.0709 -0.0826
 4077TIP3    H133722   3.089   0.094   0.253 -0.9303  1.1272  0.2034
 4077TIP3    H233723   2.979   0.086   0.357 -2.3195 -2.5844 -1.3497
 4078TIP3   OH233724   3.214   6.200  14.221  0.0757  0.6615 -0.8818
 4078TIP3    H133725   3.182   6.193  14.311 -1.0642  1.5614 -1.1961
 4078TIP3    H233726   3.290   6.141  14.218 -0.2354  0.1512  0.4908
 4079TIP3   OH233727   4.129   5.541   3.932 -0.3424 -0.0583  0.5311
 4079TIP3    H133728   4.119   5.577   4.021  0.8611  1.2833  0.1498
 4079TIP3    H233729   4.211   5.493   3.935  0.0289  0.5346 -0.0235
 4080TIP3   OH233730   3.643   4.524   2.038  0.4837 -0.3825 -0.1715
 4080TIP3    H133731   3.586   4.447   2.035  1.1284 -0.8449 -1.4177
 4080TIP3    H233732   3.643   4.557   1.948  1.5887  0.0407 -0.0326
 4081TIP3   OH233733   0.727   3.157   0.408 -0.3691 -0.2580 -0.1904
 4081TIP3    H133734   0.784   3.148   0.331  0.0842  0.2323  0.0814
 4081TIP3    H233735   0.639   3.146   0.374 -0.1715 -0.0697 -0.7782
 4082TIP3   OH233736   2.806   5.158   0.362  0.5375 -0.3347  0.7522
 4082TIP3    H133737   2.884   5.212   0.349  0.8377 -0.8441  0.4204
 4082TIP3    H233738   2.755   5.169   0.282  0.2976 -0.0540  0.9414
 4083TIP3   OH233739   6.309   5.533   5.361 -0.1378  0.6897 -0.2506
 4083TIP3    H133740   6.394   5.539   5.403 -0.7234  2.2360  0.7896
 4083TIP3    H233741   6.284   5.441   5.370  0.4094  0.6870  1.4635
 4084TIP3   OH233742   3.628   5.452   5.642  0.1909 -0.4194  0.4013
 4084TIP3    H133743   3.704   5.495   5.602  0.7906 -1.4313  0.3942
 4084TIP3    H233744   3.619   5.493   5.728 -2.2215  3.0834 -1.2760
 4085TIP3   OH233745   1.559   1.800   5.215 -0.6957 -0.7853  0.0040
 4085TIP3    H133746   1.474   1.835   5.243 -0.3204  0.1110  0.0299
 4085TIP3    H233747   1.566   1.717   5.263 -1.5717 -0.8944 -0.0309
 4086TIP3   OH233748   3.014   5.778  15.914 -0.7826 -0.1040  0.6328
 4086TIP3    H133749   3.046   5.866  15.892 -1.5312 -0.2093 -1.0186
 4086TIP3    H233750   3.034   5.768  16.007  0.1430  1.4549  0.6366
 4087TIP3   OH233751   5.955   5.634   5.919  0.0210  0.6920 -0.4117
 4087TIP3    H133752   6.032   5.686   5.944 -0.1650  0.4186  0.7903
 4087TIP3    H233753   5.882   5.695   5.927 -0.2725  0.1315  1.5665
 4088TIP3   OH233754   4.947   3.706   1.560 -0.2074  0.4641 -0.5729
 4088TIP3    H133755   4.949   3.693   1.465 -0.0139  1.5622 -0.7347
 4088TIP3    H233756   4.974   3.622   1.596  2.0672  0.6865 -1.5546
 4089TIP3   OH233757   1.281   5.688  15.294 -0.4443 -0.6981  0.4213
 4089TIP3    H133758   1.234   5.616  15.253  1.0168 -1.2174 -0.4360
 4089TIP3    H233759   1.279   5.669  15.387 -0.9293 -1.3158  0.2862
 4090TIP3   OH233760   2.789   1.600  12.309 -0.2554  0.4768 -0.4758
 4090TIP3    H133761   2.747   1.628  12.390 -0.5061 -2.0003  0.3457
 4090TIP3    H233762   2.793   1.504  12.316  3.2991  0.3842 -1.6227
 4091TIP3   OH233763   4.385   4.234  12.288 -0.2737  0.0177  0.1954
 4091TIP3    H133764   4.302   4.214  12.244  1.2628 -2.3974 -1.8890
 4091TIP3    H233765   4.387   4.173  12.362 -1.6602  2.2629  2.2274
 4092TIP3   OH233766   3.539   5.296  15.551 -0.1917 -0.2138  0.5438
 4092TIP3    H133767   3.458   5.343  15.572 -0.2727 -0.4544  0.7797
 4092TIP3    H233768   3.527   5.209  15.590 -0.6956 -0.9689 -1.2058
 4093TIP3   OH233769   0.922   1.128  14.588 -0.5756 -0.0248  0.4968
 4093TIP3    H133770   0.969   1.212  14.586 -2.9902  1.4589  1.8943
 4093TIP3    H233771   0.884   1.120  14.501  1.2580 -0.7381 -0.3068
 4094TIP3   OH233772   0.445   6.564   0.037  0.6887  0.0048  0.4506
 4094TIP3    H133773   0.466   6.658   0.040 -2.5532  0.9673 -1.8630
 4094TIP3    H233774   0.501   6.530  -0.033 -0.9052  1.1917 -1.5055
 4095TIP3   OH233775   2.400   3.038  11.778  0.8042 -0.4555  0.4526
 4095TIP3    H133776   2.468   2.983  11.816  0.9911  0.0869  0.9277
 4095TIP3    H233777   2.442   3.081  11.704  1.6242  1.3986  1.9065
 4096TIP3   OH233778   1.164   6.654  16.470 -0.1526 -0.2204 -0.1821
 4096TIP3    H133779   1.244   6.609  16.442 -0.0231  0.4154 -0.8392
 4096TIP3    H233780   1.153   6.627  16.562  0.5494 -0.6850 -0.2257
 4097TIP3   OH233781   5.587   4.676  13.980 -0.2295  0.6434 -0.1665
 4097TIP3    H133782   5.657   4.611  13.984  0.6771  1.5969  0.0251
 4097TIP3    H233783   5.507   4.625  13.969  0.4912 -0.4741 -0.3692
 4098TIP3   OH233784   5.991   5.006  14.884  0.2378  0.0498 -0.0551
 4098TIP3    H133785   5.934   4.977  14.955  0.1257  0.2910 -0.0478
 4098TIP3    H233786   5.949   5.084  14.849  0.5695  0.2407 -0.0382
 4099TIP3   OH233787   2.880   6.535   6.270 -0.0975  0.0000  0.3840
 4099TIP3    H133788   2.897   6.450   6.230  1.5015 -0.1099  1.2298
 4099TIP3    H233789   2.798   6.564   6.229 -0.7489 -1.9682  0.1576
 4100TIP3   OH233790   2.118   0.969   2.565 -0.8073  0.2304 -0.8830
 4100TIP3    H133791   2.089   0.927   2.647  1.9345  0.2633  0.2048
 4100TIP3    H233792   2.039   0.972   2.511 -3.0736  1.2905  2.1774
 4101TIP3   OH233793   3.616   0.727   4.924 -0.5226 -0.2644 -0.0074
 4101TIP3    H133794   3.685   0.662   4.923  0.4896  0.7107 -2.2360
 4101TIP3    H233795   3.638   0.785   4.996  1.8016  0.7426 -1.4146
 4102TIP3   OH233796   4.679   2.078   5.985 -0.7144  0.0411  0.2003
 4102TIP3    H133797   4.721   2.021   6.049  0.2451  1.0579  0.5155
 4102TIP3    H233798   4.597   2.106   6.027 -0.1841  0.5450  0.9074
 4103TIP3   OH233799   0.025   2.135   4.312 -0.1115 -0.0593 -0.4580
 4103TIP3    H133800   0.111   2.129   4.355  0.2852  1.9440 -0.8933
 4103TIP3    H233801  -0.016   2.212   4.351  0.2197  1.8116 -3.5068
 4104TIP3   OH233802   5.385   1.481   2.837  0.3156  0.6563  0.1061
 4104TIP3    H133803   5.387   1.570   2.871  1.3408  0.6531  0.0568
 4104TIP3    H233804   5.345   1.429   2.908 -1.4524  1.3317 -0.3358
 4105TIP3   OH233805   3.457   2.224  15.843 -0.0922  0.1374 -0.3745
 4105TIP3    H133806   3.539   2.195  15.882  0.5418  0.4715 -1.4306
 4105TIP3    H233807   3.442   2.311  15.880 -0.4806 -0.3135  0.5532
 4106TIP3   OH233808   6.463   1.355  16.625  0.5678 -0.3044 -1.2426
 4106TIP3    H133809   6.522   1.295  16.671  0.7392  1.3242  0.8137
 4106TIP3    H233810   6.377   1.315  16.634  0.6029 -0.0825  0.5273
 4107TIP3   OH233811   4.189   6.789   3.647 -0.2736 -0.3591 -0.1650
 4107TIP3    H133812   4.275   6.785   3.688 -0.7015 -1.3988  0.7018
 4107TIP3    H233813   4.157   6.877   3.666  0.7112  0.1381 -0.7525
 4108TIP3   OH233814   5.842   0.398   0.052  0.5592  0.7526  0.0579
 4108TIP3    H133815   5.796   0.452   0.115 -0.7399 -0.7122  0.4332
 4108TIP3    H233816   5.793   0.316   0.050  0.3799  0.7930 -3.0147
 4109TIP3   OH233817   2.853   0.046   5.661 -0.6222 -0.2718  0.0215
 4109TIP3    H133818   2.808  -0.029   5.623  0.7135 -0.2196 -1.8019
 4109TIP3    H233819   2.921   0.008   5.716  0.0585 -0.4376 -0.9062
 4110TIP3   OH233820   5.557   4.655  15.120  0.1769  0.6883 -0.0710
 4110TIP3    H133821   5.512   4.715  15.180  1.2075  0.1342  1.3035
 4110TIP3    H233822   5.524   4.568  15.143  0.4909  0.4774 -0.4010
 4111TIP3   OH233823   1.857   6.293   5.414  0.8841  0.2906  0.4251
 4111TIP3    H133824   1.811   6.369   5.379  1.2231  0.2271 -0.1712
 4111TIP3    H233825   1.850   6.227   5.345 -1.7178 -1.1921  1.9226
 4112TIP3   OH233826   5.250   0.216  11.329  0.3967  0.5574  0.4621
 4112TIP3    H133827   5.340   0.248  11.316 -0.1694  2.2793  0.5422
 4112TIP3    H233828   5.246   0.194  11.422  0.5816  1.0140  0.5807
 4113TIP3   OH233829   3.105   6.442   2.980 -0.4815  0.3125  0.0704
 4113TIP3    H133830   3.060   6.519   3.014  1.5621  0.8867  1.7258
 4113TIP3    H233831   3.073   6.369   3.033  0.6971  0.7737  1.4893
 4114TIP3   OH233832   3.555   2.332  14.656  0.0083  0.1617  0.2935
 4114TIP3    H133833   3.570   2.241  14.632  2.3236  0.0806  1.8127
 4114TIP3    H233834   3.499   2.328  14.734  0.5641  0.0142  0.6844
 4115TIP3   OH233835   2.431   0.765  13.793  0.1716  0.0622  0.5179
 4115TIP3    H133836   2.518   0.803  13.787  0.3519 -0.3434  0.5596
 4115TIP3    H233837   2.427   0.729  13.882 -0.7246  1.7503  1.2299
 4116TIP3   OH233838   0.706   1.246  16.596 -0.4094 -0.2649 -0.5898
 4116TIP3    H133839   0.648   1.320  16.616  3.1792  4.0148 -3.9064
 4116TIP3    H233840   0.788   1.267  16.639  0.9175 -2.0265 -2.1148
 4117TIP3   OH233841   3.986   0.563   5.075  0.2220  0.1776  0.8123
 4117TIP3    H133842   3.897   0.528   5.066  0.6268 -1.1065  1.6954
 4117TIP3    H233843   4.019   0.526   5.156  2.3046 -0.9857 -0.4955
 4118TIP3   OH233844   2.605   3.327   1.796  0.1514  1.1476 -0.0911
 4118TIP3    H133845   2.619   3.421   1.805 -0.6339  1.1841  0.9997
 4118TIP3    H233846   2.509   3.318   1.799  0.2020  0.3617 -0.7093
 4119TIP3   OH233847   2.537   0.514   1.932  0.2339  0.4815 -0.5609
 4119TIP3    H133848   2.465   0.452   1.944  0.8619 -0.1324  0.1552
 4119TIP3    H233849   2.495   0.600   1.932 -0.7659  0.0640 -2.4186
 4120TIP3   OH233850   4.195   5.517  15.538  0.1545  0.0287  0.2703
 4120TIP3    H133851   4.157   5.525  15.626  0.8571 -0.7055  0.6500
 4120TIP3    H233852   4.290   5.525  15.552  0.1978  1.6837 -0.6428
 4121TIP3   OH233853   3.662   2.795   0.971  0.0142  0.3997 -0.0415
 4121TIP3    H133854   3.613   2.768   1.049 -0.3122 -0.3284 -0.4800
 4121TIP3    H233855   3.721   2.722   0.954 -0.4393  0.2146 -0.8969
 4122TIP3   OH233856   6.166   6.484  14.781 -0.4452  0.0009 -0.2876
 4122TIP3    H133857   6.170   6.406  14.836 -0.2974  0.0554 -0.2193
 4122TIP3    H233858   6.251   6.526  14.793  0.0270 -0.5909 -1.4484
 4123TIP3   OH233859   6.592   4.166   0.996 -0.1321 -0.0761  0.0532
 4123TIP3    H133860   6.618   4.103   1.063  0.7630  0.4978  0.2659
 4123TIP3    H233861   6.516   4.127   0.954  1.9825 -2.6834 -1.7094
 4124TIP3   OH233862   0.021   0.157   5.387  0.1560 -0.2765  0.1078
 4124TIP3    H133863   0.041   0.116   5.303 -1.8697  0.2932 -0.7243
 4124TIP3    H233864   0.017   0.250   5.368  2.5248  0.1837  1.5072
 4125TIP3   OH233865   1.486   5.860  15.225 -0.5779 -0.0265  0.2199
 4125TIP3    H133866   1.408   5.807  15.239 -0.4623 -0.2109  0.1698
 4125TIP3    H233867   1.526   5.868  15.312 -0.8501  0.3789  0.3099
 4126TIP3   OH233868   2.934   0.205   5.454  0.2510  0.3508  0.0644
 4126TIP3    H133869   3.025   0.228   5.471  0.8089 -2.0508  0.6560
 4126TIP3    H233870   2.908   0.151   5.528 -0.6035 -1.6853 -1.5966
 4127TIP3   OH233871   3.253   4.827  13.898 -0.1903  0.0938  0.1070
 4127TIP3    H133872   3.267   4.736  13.924 -0.8683 -0.8255 -2.3942
 4127TIP3    H233873   3.322   4.845  13.834 -0.8941  0.8499 -0.4662
 4128TIP3   OH233874   2.179   6.650  15.614 -0.5656 -0.6652  0.4610
 4128TIP3    H133875   2.102   6.697  15.581  0.6768  1.4218  0.3670
 4128TIP3    H233876   2.153   6.558  15.614 -2.7450 -0.1037 -0.3991
 4129TIP3   OH233877   1.069   0.384   4.694 -0.1343 -0.0012 -0.6040
 4129TIP3    H133878   0.975   0.382   4.710 -0.2022 -0.7005 -1.0561
 4129TIP3    H233879   1.078   0.362   4.601  0.5263 -0.9124 -0.3364
 4130TIP3   OH233880   2.829   1.700  13.738  0.2784 -0.3514 -0.5568
 4130TIP3    H133881   2.771   1.764  13.779  0.8831  0.3475 -0.7698
 4130TIP3    H233882   2.916   1.739  13.744  0.9156 -1.8703  0.7502
 4131TIP3   OH233883   3.318   4.498  14.320  0.2680 -0.5165 -0.0840
 4131TIP3    H133884   3.313   4.403  14.308 -0.5131 -0.5001  0.0308
 4131TIP3    H233885   3.314   4.510  14.415 -4.8927 -0.2117 -0.0374
 4132TIP3   OH233886   1.491   0.614  14.956  0.1126 -0.1145  0.1627
 4132TIP3    H133887   1.428   0.652  15.018  0.0142 -0.2046  0.1186
 4132TIP3    H233888   1.439   0.595  14.878  0.9871  4.2509 -1.8166
 4133TIP3   OH233889   3.682   1.640  12.556 -0.5360 -0.0565 -0.3302
 4133TIP3    H133890   3.718   1.552  12.548 -0.5984  0.0451 -2.2395
 4133TIP3    H233891   3.607   1.641  12.496  0.1069  1.6103 -1.1759
 4134TIP3   OH233892   6.072   1.712  15.759  0.6266  0.1953 -0.0754
 4134TIP3    H133893   5.978   1.708  15.740 -0.2255  2.1042  3.0674
 4134TIP3    H233894   6.077   1.732  15.852  4.1900  0.7228 -0.2514
 4135TIP3   OH233895   5.084   2.754   1.610 -0.3526 -0.0631 -0.5012
 4135TIP3    H133896   5.027   2.747   1.534 -0.5318  0.7669 -0.4528
 4135TIP3    H233897   5.158   2.696   1.590 -0.7979 -0.4943 -0.9322
 4136TIP3   OH233898   4.793   4.897   6.212 -0.5941  0.5352 -0.4718
 4136TIP3    H133899   4.748   4.944   6.282  0.4487 -0.2129  0.7309
 4136TIP3    H233900   4.797   4.806   6.242  0.2231  0.2751 -1.3122
 4137TIP3   OH233901   5.230   2.459   6.077  0.1514 -0.2019  0.2173
 4137TIP3    H133902   5.258   2.413   6.156 -1.8685  0.3743  1.3111
 4137TIP3    H233903   5.307   2.511   6.052  1.0474 -0.9072  1.3881
 4138TIP3   OH233904   1.828   0.738   1.830  0.1502 -0.1192  0.1781
 4138TIP3    H133905   1.808   0.826   1.861  0.4945  0.9965 -2.4643
 4138TIP3    H233906   1.908   0.749   1.778 -0.0100 -1.9252 -0.5199
 4139TIP3   OH233907   2.857   4.028   4.152 -0.1312 -0.1071 -0.1327
 4139TIP3    H133908   2.816   3.985   4.077 -3.3343  0.8265  0.9298
 4139TIP3    H233909   2.840   3.971   4.226  0.1818  0.4954  0.4226
 4140TIP3   OH233910   4.108   2.496   4.692 -0.6261  0.5726 -0.3212
 4140TIP3    H133911   4.044   2.428   4.669 -1.9272  1.5780  0.1795
 4140TIP3    H233912   4.055   2.573   4.712  0.7375  1.3624  0.4377
 4141TIP3   OH233913   4.263   0.765   3.455  1.0260 -0.2076 -0.0195
 4141TIP3    H133914   4.270   0.833   3.522  1.4338 -0.3354  0.0704
 4141TIP3    H233915   4.323   0.696   3.484 -0.0159 -0.9956  0.3434
 4142TIP3   OH233916   5.560   0.998   4.979 -0.1291 -0.5121  0.4977
 4142TIP3    H133917   5.502   1.070   5.004  0.3353 -0.4950  1.5707
 4142TIP3    H233918   5.582   0.955   5.062  0.0595 -1.5418 -0.0661
 4143TIP3   OH233919   5.607   5.587   4.570 -0.1472  0.2115  0.6851
 4143TIP3    H133920   5.529   5.535   4.590 -0.2482 -0.7404 -1.9138
 4143TIP3    H233921   5.575   5.660   4.518  0.5356  0.6422  0.8465
 4144TIP3   OH233922   3.844   1.298   3.298 -0.6587  0.0397  0.0622
 4144TIP3    H133923   3.936   1.290   3.324 -0.3890 -0.0466 -0.8928
 4144TIP3    H233924   3.816   1.207   3.282 -0.4136  0.1843 -1.2834
 4145TIP3   OH233925   2.206   5.882   2.744 -0.6138 -0.0616 -0.4681
 4145TIP3    H133926   2.166   5.969   2.735  2.3289  1.3331 -1.1232
 4145TIP3    H233927   2.205   5.864   2.838 -2.8268 -0.1828 -0.4666
 4146TIP3   OH233928   0.580   0.166   5.242 -0.2204 -0.2402  0.7144
 4146TIP3    H133929   0.608   0.102   5.176 -2.4635  2.1314 -2.9349
 4146TIP3    H233930   0.494   0.136   5.269 -1.0740  0.8333 -0.6546
 4147TIP3   OH233931   6.171   2.727  12.845  0.2629  0.4003 -0.0078
 4147TIP3    H133932   6.200   2.762  12.760 -0.1472 -1.1234 -0.8086
 4147TIP3    H233933   6.086   2.769  12.860 -0.1000 -0.0265 -0.8160
 4148TIP3   OH233934   4.717   5.370   4.299 -0.6090 -0.5063 -0.1362
 4148TIP3    H133935   4.731   5.443   4.239 -0.7503  0.2466  0.7288
 4148TIP3    H233936   4.741   5.292   4.248 -0.0858  0.1676 -0.9450
 4149TIP3   OH233937   1.487   4.972   3.800  0.0370 -0.2723  0.3736
 4149TIP3    H133938   1.468   4.976   3.707  0.4174  0.9988  0.3268
 4149TIP3    H233939   1.510   5.062   3.824 -0.0238 -0.5766  1.6849
 4150TIP3   OH233940   1.392   1.130  14.547 -0.2197 -0.4348  0.1797
 4150TIP3    H133941   1.305   1.111  14.582 -1.3970 -0.2715 -2.4317
 4150TIP3    H233942   1.400   1.225  14.553  0.7086 -0.5828  2.2842
 4151TIP3   OH233943   1.313   4.571   0.009 -0.2523  0.5447  0.5938
 4151TIP3    H133944   1.378   4.639  -0.009 -0.5359  0.2896 -1.7184
 4151TIP3    H233945   1.244   4.615   0.059  0.8731  1.2240  1.5999
 4152TIP3   OH233946   6.319   6.243   3.984 -0.1240  0.6609  0.7350
 4152TIP3    H133947   6.325   6.182   3.910  0.5037  2.4663 -0.8080
 4152TIP3    H233948   6.397   6.225   4.036  1.7109  2.0218 -1.3317
 4153TIP3   OH233949   6.710   1.707  12.193 -0.1402  0.0609 -0.1735
 4153TIP3    H133950   6.694   1.693  12.100 -1.6437  1.8790 -0.2612
 4153TIP3    H233951   6.734   1.800  12.200  1.9193 -0.4994  1.0601
 4154TIP3   OH233952   4.953   1.997  15.201  0.2374 -0.0593 -0.2790
 4154TIP3    H133953   5.017   2.059  15.237  1.9913 -1.7707 -0.2826
 4154TIP3    H233954   4.886   1.989  15.269  1.2712 -0.0238  0.7676
 4155TIP3   OH233955   6.180   3.271  13.931  0.3035  0.6395  1.0711
 4155TIP3    H133956   6.176   3.365  13.914 -0.4005  0.2844 -1.0526
 4155TIP3    H233957   6.171   3.231  13.845  1.7140 -1.3780  1.7844
 4156TIP3   OH233958   4.165   4.394  16.307  0.1355  0.4718  0.3050
 4156TIP3    H133959   4.166   4.340  16.385 -1.2358  1.3067  0.9311
 4156TIP3    H233960   4.193   4.335  16.237 -0.3987 -0.7846  1.1160
 4157TIP3   OH233961   2.387   6.330  17.180 -0.6859  0.3114  0.3198
 4157TIP3    H133962   2.329   6.367  17.114 -0.1859  0.5789  0.0182
 4157TIP3    H233963   2.344   6.347  17.264 -1.0249  0.5272  0.1036
 4158TIP3   OH233964   0.629   6.790  13.602  0.0638 -0.3859 -0.4169
 4158TIP3    H133965   0.587   6.749  13.527  0.5135 -0.5198 -0.5961
 4158TIP3    H233966   0.700   6.842  13.565 -0.5788  0.6900 -0.2104
 4159TIP3   OH233967   6.693   1.595   0.695  0.3195 -0.1962  0.3246
 4159TIP3    H133968   6.606   1.600   0.735  1.0265  0.7686  1.8326
 4159TIP3    H233969   6.713   1.685   0.669  1.3839 -0.1509  1.2095
 4160TIP3   OH233970   0.972   0.400   0.476  0.6100  0.3759 -0.0501
 4160TIP3    H133971   0.983   0.322   0.422 -0.5820  0.7500 -0.8873
 4160TIP3    H233972   1.041   0.459   0.447  1.2684 -0.2157  0.3041
 4161TIP3   OH233973   3.020   5.735   6.241 -0.1257 -0.6735  0.9098
 4161TIP3    H133974   2.928   5.713   6.255 -0.1033 -1.5408 -0.1886
 4161TIP3    H233975   3.054   5.665   6.186  1.6837 -1.3885  2.7683
 4162TIP3   OH233976   2.999   4.836  12.361 -0.2243 -0.2281  0.5049
 4162TIP3    H133977   2.960   4.755  12.327  0.5818  0.0061 -1.0275
 4162TIP3    H233978   2.929   4.900  12.357  0.0287 -0.0388 -1.3732
 4163TIP3   OH233979   0.274   6.230   1.703  0.2834 -0.0630 -0.1994
 4163TIP3    H133980   0.367   6.223   1.684  0.5530 -3.3799  1.5995
 4163TIP3    H233981   0.256   6.324   1.700  3.8263  0.7687  0.0373
 4164TIP3   OH233982   3.094   6.790   0.047  0.5768 -0.0899  0.1453
 4164TIP3    H133983   3.034   6.834  -0.013  0.1323  0.2227  0.8158
 4164TIP3    H233984   3.131   6.718  -0.005 -0.0131  0.0063 -0.4172
 4165TIP3   OH233985   0.890   4.959  12.459 -0.6254  0.3787  0.0534
 4165TIP3    H133986   0.845   4.986  12.379 -2.3297  0.9323  1.1491
 4165TIP3    H233987   0.924   5.041  12.496 -2.2618  0.5638  1.2757
 4166TIP3   OH233988   5.176   3.764  11.811 -0.3780 -0.2130 -0.4251
 4166TIP3    H133989   5.207   3.727  11.893  1.6586 -0.8122 -1.4141
 4166TIP3    H233990   5.081   3.755  11.815 -0.4329  0.6365  2.2394
 4167TIP3   OH233991   1.413   5.323  14.220  0.5798  0.4903 -0.3983
 4167TIP3    H133992   1.509   5.322  14.217  0.5741 -0.7634 -1.1743
 4167TIP3    H233993   1.387   5.343  14.130  0.2098 -4.4273 -1.6993
 4168TIP3   OH233994   2.235   3.157   2.452  0.4752  0.2031 -0.2271
 4168TIP3    H133995   2.254   3.174   2.360  0.9033 -1.2224 -0.4333
 4168TIP3    H233996   2.140   3.153   2.457  0.3057  2.7806 -0.0872
 4169TIP3   OH233997   3.673   1.053   1.093 -0.0266  0.3585 -0.3547
 4169TIP3    H133998   3.582   1.023   1.102  0.3422 -0.7213 -0.0946
 4169TIP3    H233999   3.703   1.014   1.011  1.0505 -1.6466  0.9085
 4170TIP3   OH234000   2.779   1.334  15.988  0.0058 -0.5317  0.0448
 4170TIP3    H134001   2.798   1.283  15.909  0.6743 -0.4336  0.1397
 4170TIP3    H234002   2.704   1.289  16.027  0.0726 -0.9571 -0.3038
 4171TIP3   OH234003   4.677   2.582   3.163  0.1755 -0.2936  0.8889
 4171TIP3    H134004   4.770   2.603   3.152  0.7825 -2.2364  1.9107
 4171TIP3    H234005   4.649   2.554   3.076  0.3420  0.9683  0.4125
 4172TIP3   OH234006   3.330   1.202  13.485  0.2647 -0.1711 -0.0025
 4172TIP3    H134007   3.271   1.277  13.488 -1.2251 -1.2219 -1.2798
 4172TIP3    H234008   3.411   1.233  13.525 -0.3724  2.0373 -0.3102
 4173TIP3   OH234009   4.384   2.483   5.706  0.0221  0.2073 -0.0593
 4173TIP3    H134010   4.368   2.389   5.700  3.3646 -0.4060 -1.3611
 4173TIP3    H234011   4.463   2.491   5.759 -0.8561  2.4408  1.0790
 4174TIP3   OH234012   4.781   6.615  12.540  0.5303 -0.2788  0.0799
 4174TIP3    H134013   4.780   6.634  12.634  0.3539  1.6008 -0.2682
 4174TIP3    H234014   4.874   6.602  12.519  0.4533 -2.3952  0.7681
 4175TIP3   OH234015   2.508   1.809   1.032  0.6207  0.1380 -0.1291
 4175TIP3    H134016   2.587   1.835   1.079 -0.1488 -1.2581  2.1259
 4175TIP3    H234017   2.519   1.714   1.018  0.0699  0.2299 -1.3225
 4176TIP3   OH234018   3.446   3.596  12.992 -0.2909  0.1676 -0.3052
 4176TIP3    H134019   3.522   3.653  12.998 -0.7091  0.7230 -0.2158
 4176TIP3    H234020   3.482   3.507  12.993  0.2158  0.2974  2.9171
 4177TIP3   OH234021   4.998   4.680   2.474  0.4301  0.1530 -0.5654
 4177TIP3    H134022   5.001   4.645   2.385  2.1403  0.0497 -0.4930
 4177TIP3    H234023   4.943   4.618   2.522 -0.0001 -0.1322 -1.4087
 4178TIP3   OH234024   3.139   2.285  12.934 -0.0738 -0.6990  0.1376
 4178TIP3    H134025   3.209   2.222  12.951  0.7532  0.2566  0.3416
 4178TIP3    H234026   3.118   2.322  13.020  0.6311  0.5255 -0.1999
 4179TIP3   OH234027   4.955   6.543   0.998 -0.6515  0.2218 -0.0303
 4179TIP3    H134028   5.017   6.598   0.951 -1.1165  0.9690  0.2168
 4179TIP3    H234029   5.004   6.510   1.073 -0.3623  0.2735 -0.1964
 4180TIP3   OH234030   3.851   6.203  11.313  0.3842 -0.4814  0.0964
 4180TIP3    H134031   3.797   6.262  11.365  0.5660 -0.5685  0.3863
 4180TIP3    H234032   3.914   6.167  11.375 -0.2938 -1.6842  0.1074
 4181TIP3   OH234033   1.492   3.328   0.608 -0.4031 -0.4105 -0.1297
 4181TIP3    H134034   1.503   3.315   0.514  0.4239  1.8652 -0.4134
 4181TIP3    H234035   1.559   3.273   0.649  1.1781  0.7567 -1.0587
 4182TIP3   OH234036   1.024   0.368   3.854 -0.2420  0.5206  0.0798
 4182TIP3    H134037   1.109   0.364   3.899 -1.1012  1.0450  1.8612
 4182TIP3    H234038   1.046   0.390   3.763  1.5462  0.1746  0.3865
 4183TIP3   OH234039   6.634   2.882  14.435 -0.6602 -0.0548 -0.3343
 4183TIP3    H134040   6.684   2.924  14.366 -0.5466  0.3255 -0.0270
 4183TIP3    H234041   6.689   2.809  14.465 -0.8632 -0.4358 -0.8779
 4184TIP3   OH234042   3.718   6.557   4.395 -0.1433 -0.4073 -0.1285
 4184TIP3    H134043   3.749   6.469   4.373  0.2168 -0.1614 -0.6252
 4184TIP3    H234044   3.741   6.611   4.318  0.0803  0.2222  0.3698
 4185TIP3   OH234045   0.211   6.413   0.161  0.0381 -0.0374  0.6224
 4185TIP3    H134046   0.257   6.331   0.142 -0.6390 -1.2043  3.4486
 4185TIP3    H234047   0.278   6.481   0.151  0.9060 -1.0277 -0.6537
 4186TIP3   OH234048   1.926   6.615  12.633  0.4251  0.3469 -0.1729
 4186TIP3    H134049   1.971   6.699  12.640  1.2059 -0.1292  0.7186
 4186TIP3    H234050   1.880   6.619  12.549  0.3551  1.7061 -0.0859
 4187TIP3   OH234051   5.570   6.262  16.363 -0.4859 -0.5792 -0.6146
 4187TIP3    H134052   5.522   6.302  16.435  1.2142 -2.0051  1.4424
 4187TIP3    H234053   5.548   6.316  16.287 -0.5023  2.4925  1.3816
 4188TIP3   OH234054   6.519   0.514   6.506  0.3687 -0.1745  0.0295
 4188TIP3    H134055   6.526   0.453   6.580  0.4918 -1.0077 -0.6556
 4188TIP3    H234056   6.464   0.585   6.539  0.4956 -0.4921  0.9496
 4189TIP3   OH234057   1.918   4.669  16.536  0.5510  0.0005 -0.1376
 4189TIP3    H134058   1.917   4.741  16.599 -0.2777 -0.1266  0.0052
 4189TIP3    H234059   1.930   4.591  16.589  2.2886  0.0802 -0.3640
 4190TIP3   OH234060   4.897   2.290  16.601 -1.2626 -0.6173 -0.0080
 4190TIP3    H134061   4.847   2.323  16.676  0.3428  1.0912  0.3823
 4190TIP3    H234062   4.831   2.277  16.533 -2.2519  2.0878  0.2953
 4191TIP3   OH234063   2.383   4.916  17.043  0.1055  0.2534 -0.3967
 4191TIP3    H134064   2.376   4.914  16.948  1.1569  0.6271 -0.5021
 4191TIP3    H234065   2.293   4.919  17.075 -0.2462  0.3875 -1.3840
 4192TIP3   OH234066   2.307   6.260   6.328  0.2302  0.3587 -1.0099
 4192TIP3    H134067   2.242   6.225   6.267  0.2408 -0.8765 -0.3530
 4192TIP3    H234068   2.278   6.349   6.346 -0.0549  0.5708 -2.4077
 4193TIP3   OH234069   4.161   4.878   3.842  0.3046 -0.2048 -0.0713
 4193TIP3    H134070   4.140   4.935   3.917  0.1936 -1.8909  1.2487
 4193TIP3    H234071   4.158   4.789   3.878 -0.1622 -1.1180 -2.1967
 4194TIP3   OH234072   5.507   3.698   4.038  0.0388 -0.0666  0.1660
 4194TIP3    H134073   5.543   3.784   4.018  0.0309 -0.2160 -0.5149
 4194TIP3    H234074   5.449   3.713   4.113  0.7324  0.3495  0.6283
 4195TIP3   OH234075   2.877   0.953  11.801 -0.2718 -0.4167 -0.1819
 4195TIP3    H134076   2.783   0.945  11.785 -0.2820 -0.7965  0.0478
 4195TIP3    H234077   2.916   0.962  11.714 -0.5037 -0.4676 -0.2921
 4196TIP3   OH234078   1.408   1.027  16.239 -0.4600 -0.4629 -0.4068
 4196TIP3    H134079   1.415   1.110  16.192  2.8120 -0.1773  0.3367
 4196TIP3    H234080   1.392   1.052  16.330  2.2587 -0.4390  0.1395
 4197TIP3   OH234081   1.205   5.342  11.733 -0.7150  0.5958 -0.6043
 4197TIP3    H134082   1.261   5.408  11.693 -0.5293  0.8591  0.0651
 4197TIP3    H234083   1.183   5.282  11.662 -0.8649  1.3643 -1.2102
 4198TIP3   OH234084   4.355   2.550   4.881 -0.2832  0.0675  0.5821
 4198TIP3    H134085   4.378   2.457   4.881  1.2008  0.3973 -0.4024
 4198TIP3    H234086   4.336   2.571   4.972  1.0014 -0.8347  1.0825
 4199TIP3   OH234087   6.569   2.132   5.703 -0.0684 -0.0869  0.3319
 4199TIP3    H134088   6.505   2.061   5.711 -1.8244  1.2436 -1.2249
 4199TIP3    H234089   6.532   2.204   5.753 -0.2723  0.9879 -1.2881
 4200TIP3   OH234090   5.887   5.512  12.559  0.3887 -0.1292  0.3317
 4200TIP3    H134091   5.858   5.601  12.538 -0.1575  0.4620  3.1100
 4200TIP3    H234092   5.983   5.517  12.557  0.3620  0.3250 -0.1946
 4201TIP3   OH234093   1.703   1.695  13.298  0.1188  0.3503  0.2524
 4201TIP3    H134094   1.764   1.672  13.228 -1.8761 -0.8346 -1.1965
 4201TIP3    H234095   1.749   1.672  13.379  1.0295 -2.0671 -0.8528
 4202TIP3   OH234096   5.984   3.186   1.220 -0.0300 -0.1311 -0.6259
 4202TIP3    H134097   6.063   3.205   1.170  0.7462  0.7031  0.8605
 4202TIP3    H234098   6.003   3.218   1.308 -1.2930 -1.6984  0.2618
 4203TIP3   OH234099   2.399   1.804   4.497  0.3536  0.2196 -0.3905
 4203TIP3    H134100   2.315   1.793   4.453  0.2651  0.4519 -0.2805
 4203TIP3    H234101   2.462   1.757   4.442  0.0828 -0.3063 -0.2551
 4204TIP3   OH234102   4.897   0.548  13.944 -0.4970  0.2917  0.0502
 4204TIP3    H134103   4.829   0.498  13.988  0.2089 -0.8230 -0.0761
 4204TIP3    H234104   4.927   0.611  14.010 -0.2862 -0.5467  0.7754
 4205TIP3   OH234105   5.723   5.134   2.652 -0.5066  0.5488  0.4181
 4205TIP3    H134106   5.702   5.123   2.745 -0.9071 -0.1017  0.2623
 4205TIP3    H234107   5.767   5.053   2.628 -0.7162  0.5630 -0.0397
 4206TIP3   OH234108   4.468   1.765  11.179 -0.3410  0.5344 -0.4193
 4206TIP3    H134109   4.417   1.684  11.188  0.0554 -0.0781 -2.9473
 4206TIP3    H234110   4.547   1.738  11.133  1.5106  1.7990  1.8174
 4207TIP3   OH234111   6.016   0.598  14.489 -0.0159 -0.1540 -0.4182
 4207TIP3    H134112   5.955   0.671  14.501 -0.2187 -0.1965 -1.1111
 4207TIP3    H234113   5.976   0.545  14.420 -0.4197 -1.5225  0.8267
 4208TIP3   OH234114   5.217   5.893  11.879 -0.4003 -0.7923  0.3675
 4208TIP3    H134115   5.312   5.896  11.888 -0.0740 -0.8716 -2.1965
 4208TIP3    H234116   5.185   5.950  11.949  1.7774  2.2843 -0.8868
 4209TIP3   OH234117   6.703   3.690  15.759  0.3601  0.5757 -0.3054
 4209TIP3    H134118   6.769   3.644  15.709  0.8862  0.9302  0.0497
 4209TIP3    H234119   6.748   3.769  15.791  0.4284 -0.2433  1.7678
 4210TIP3   OH234120   2.185   5.609  15.760  0.3134 -0.2445  0.2319
 4210TIP3    H134121   2.152   5.661  15.833  1.5787 -0.9241  1.3170
 4210TIP3    H234122   2.197   5.673  15.689  0.1877  0.6301  0.9828
 4211TIP3   OH234123   6.543   0.143   1.372  0.0854 -0.1787  0.0237
 4211TIP3    H134124   6.582   0.104   1.293 -0.7079  2.0178 -1.5636
 4211TIP3    H234125   6.617   0.153   1.432  0.7355 -1.7973 -0.4380
 4212TIP3   OH234126   3.363   1.171  16.519  0.5273  0.2354 -0.0236
 4212TIP3    H134127   3.313   1.137  16.594 -0.1093  0.3936 -0.3687
 4212TIP3    H234128   3.308   1.151  16.443  0.4160  1.4770 -0.2964
 4213TIP3   OH234129   4.551   4.213  15.179 -0.0017 -0.1602  0.0374
 4213TIP3    H134130   4.516   4.156  15.111 -0.8955  0.6622 -0.2074
 4213TIP3    H234131   4.616   4.267  15.134  0.3804 -0.5436  0.1295
 4214TIP3   OH234132   2.487   5.912  12.424 -0.4110  0.3075 -0.1893
 4214TIP3    H134133   2.446   5.906  12.338 -1.3676  1.8748  0.1008
 4214TIP3    H234134   2.449   5.841  12.475  0.3674 -0.7993 -1.1219
 4215TIP3   OH234135   5.558   4.574   0.118  0.1942 -0.3384 -0.3693
 4215TIP3    H134136   5.514   4.606   0.040 -0.1517  1.8023  0.6497
 4215TIP3    H234137   5.649   4.562   0.090  0.1086  0.5507 -1.0718
 4216TIP3   OH234138   2.934   1.132   4.389  0.1971  0.1792 -0.2684
 4216TIP3    H134139   2.976   1.127   4.474  0.5988 -3.4099 -0.5300
 4216TIP3    H234140   3.006   1.137   4.326  0.1096 -1.2885 -0.5165
 4217TIP3   OH234141   0.514   5.155   1.176 -0.4202  0.0109 -0.1340
 4217TIP3    H134142   0.522   5.250   1.182  0.0079 -0.0857  1.0537
 4217TIP3    H234143   0.605   5.124   1.177 -0.5877 -0.4598  0.5463
 4218TIP3   OH234144   4.154   5.826  14.098  0.1573 -0.1054  0.4784
 4218TIP3    H134145   4.171   5.734  14.076 -1.0491 -0.2998  0.3001
 4218TIP3    H234146   4.152   5.871  14.013  0.6802  0.0765  0.5618
 4219TIP3   OH234147   6.682   3.256  11.758 -0.4712  0.2213  0.1681
 4219TIP3    H134148   6.763   3.226  11.799  0.2525 -1.4402 -2.2525
 4219TIP3    H234149   6.669   3.196  11.684 -3.1453  1.3470 -0.3875
 4220TIP3   OH234150   1.554   0.412  16.235 -0.4337 -0.2092 -0.2975
 4220TIP3    H134151   1.497   0.454  16.171  0.1850  0.1165 -0.6409
 4220TIP3    H234152   1.616   0.361  16.182 -0.6417 -0.8672  0.0832
 4221TIP3   OH234153   4.285   6.468   5.550  0.0309  0.7223 -0.0722
 4221TIP3    H134154   4.278   6.562   5.565 -3.1525  0.4950  0.6394
 4221TIP3    H234155   4.253   6.428   5.631 -0.0289 -0.9451 -0.8672
 4222TIP3   OH234156   1.637   4.591   1.740  0.2182  0.1864  0.2117
 4222TIP3    H134157   1.620   4.501   1.765 -1.0872  0.5919  0.8749
 4222TIP3    H234158   1.666   4.634   1.820  3.3373 -0.1591 -0.5994
 4223TIP3   OH234159   1.479   3.385   3.814  0.0423 -0.1227  0.4001
 4223TIP3    H134160   1.467   3.358   3.905 -2.4696  0.9939  0.4839
 4223TIP3    H234161   1.508   3.475   3.819  1.0790 -0.4277  0.0785
 4224TIP3   OH234162   4.509   0.217  15.181 -0.6171  0.2191 -0.5210
 4224TIP3    H134163   4.433   0.233  15.237 -0.8066  0.1277 -0.7478
 4224TIP3    H234164   4.475   0.225  15.092 -0.0915  1.4840 -0.6427
 4225TIP3   OH234165   3.754   2.422   4.846 -0.6346 -0.3829  0.6191
 4225TIP3    H134166   3.740   2.516   4.859 -2.0994 -0.6902  1.4232
 4225TIP3    H234167   3.753   2.385   4.934  2.9926 -0.8453  0.6325
 4226TIP3   OH234168   0.734   6.345  12.811 -0.4143  0.5004  0.1763
 4226TIP3    H134169   0.750   6.359  12.718 -0.7336 -0.2374 -0.0020
 4226TIP3    H234170   0.680   6.266  12.814  1.5678 -0.9172  1.0971
 4227TIP3   OH234171   4.032   2.888   1.071  0.0680 -0.1111  0.0014
 4227TIP3    H134172   3.965   2.935   1.021 -0.9205 -0.3739  1.0477
 4227TIP3    H234173   4.041   2.938   1.152  1.7097  0.3565 -0.4169
 4228TIP3   OH234174   1.477   0.787  12.637  0.0517  0.3516 -0.1639
 4228TIP3    H134175   1.550   0.776  12.577  0.0782  0.8770 -0.2278
 4228TIP3    H234176   1.509   0.750  12.720  0.3606  0.5050 -0.2136
 4229TIP3   OH234177   0.163   6.816   0.208 -0.2887  0.2475  0.1845
 4229TIP3    H134178   0.097   6.803   0.277 -0.8728  0.4275 -0.3246
 4229TIP3    H234179   0.140   6.752   0.141 -1.3269  1.7739 -0.9858
 4230TIP3   OH234180   0.837   0.790   4.175 -0.2228  0.1230  0.1048
 4230TIP3    H134181   0.825   0.697   4.157 -1.8787  0.3364 -0.0906
 4230TIP3    H234182   0.748   0.825   4.179  0.3078  1.4195  1.6799
 4231TIP3   OH234183   6.137   6.517  14.209  0.1390 -0.0631 -0.1756
 4231TIP3    H134184   6.188   6.436  14.201  0.3291  0.1469 -1.2686
 4231TIP3    H234185   6.054   6.497  14.164 -0.3015 -0.0367  0.6115
 4232TIP3   OH234186   3.249   0.893   4.401  0.8352 -0.2184  0.2359
 4232TIP3    H134187   3.272   0.850   4.319 -0.3081 -0.6049  0.1007
 4232TIP3    H234188   3.190   0.964   4.377  0.3693 -0.4267  0.7290
 4233TIP3   OH234189   0.148   5.605   2.774  0.3300  0.1228 -0.3640
 4233TIP3    H134190   0.167   5.693   2.804  0.9586 -0.1778  0.1448
 4233TIP3    H234191   0.214   5.550   2.816 -1.5421 -0.9673  1.3311
 4234TIP3   OH234192   1.120   0.091   5.047  0.4485  0.1380  0.0903
 4234TIP3    H134193   1.100   0.152   5.118  1.4689  0.2969  0.2636
 4234TIP3    H234194   1.112   0.143   4.967 -0.9688 -0.1096  0.0445
 4235TIP3   OH234195   3.306   1.741  11.659 -0.0597 -0.5493  0.5406
 4235TIP3    H134196   3.291   1.646  11.664 -1.6698 -0.5860 -2.5299
 4235TIP3    H234197   3.218   1.778  11.652  0.6465  0.9196 -1.0090
 4236TIP3   OH234198   3.086   0.830  16.868 -0.2580  0.0392  0.1660
 4236TIP3    H134199   3.143   0.797  16.799  0.1119  0.1198  0.4255
 4236TIP3    H234200   3.049   0.752  16.909 -0.2568 -0.0175  0.0571
 4237TIP3   OH234201   1.400   1.048  13.058 -0.2972 -0.1924  0.1092
 4237TIP3    H134202   1.410   1.091  13.143 -0.1059 -3.2108  1.7516
 4237TIP3    H234203   1.305   1.038  13.047 -0.3939  1.3190 -0.7158
 4238TIP3   OH234204   6.705   0.090  17.058 -0.1022  0.3563  0.1717
 4238TIP3    H134205   6.704   0.110  17.152 -1.5332  0.9492  0.0511
 4238TIP3    H234206   6.670   0.169  17.017 -1.0382 -0.5104 -0.7306
 4239TIP3   OH234207   0.130   2.921  14.799 -0.2490  0.6094  0.5849
 4239TIP3    H134208   0.076   2.846  14.824  2.0409 -0.8077  1.7025
 4239TIP3    H234209   0.134   2.975  14.878 -0.4901  1.0135  0.3232
 4240TIP3   OH234210   4.775   0.671   3.719 -0.6212 -0.1201  0.5108
 4240TIP3    H134211   4.864   0.704   3.721 -0.4824 -0.0830 -2.1547
 4240TIP3    H234212   4.741   0.686   3.807  2.3080 -1.1524  1.9240
 4241TIP3   OH234213   4.573   6.568  13.987  0.4077  0.3320  0.8995
 4241TIP3    H134214   4.499   6.599  13.935 -0.5213 -0.2522  1.8080
 4241TIP3    H234215   4.631   6.526  13.924 -0.4375  0.0877  0.2637
 4242TIP3   OH234216   1.124   0.155  12.968 -0.1737  0.3277  0.2548
 4242TIP3    H134217   1.031   0.129  12.972  0.1565 -0.7144  2.4126
 4242TIP3    H234218   1.122   0.246  12.939 -1.9334  0.5472  0.9148
 4243TIP3   OH234219   0.595   2.967  15.187  0.3459 -0.0114 -0.1448
 4243TIP3    H134220   0.645   3.047  15.200 -0.0430  0.1914  0.1278
 4243TIP3    H234221   0.511   2.984  15.230  1.5556 -1.9393  3.3289
 4244TIP3   OH234222   3.573   2.864   3.748  0.3408  0.5944  0.4106
 4244TIP3    H134223   3.582   2.890   3.656  0.5439  0.9119  0.5147
 4244TIP3    H234224   3.525   2.936   3.788  1.5335  1.1728  0.8560
 4245TIP3   OH234225   0.343   2.193  14.211 -0.2526 -0.0952  0.0419
 4245TIP3    H134226   0.424   2.240  14.189  0.2205  0.3597  2.4282
 4245TIP3    H234227   0.288   2.203  14.134  1.5946  0.4104 -1.2942
 4246TIP3   OH234228   1.176   1.244   1.333 -0.0585 -0.3822  0.4178
 4246TIP3    H134229   1.114   1.187   1.379 -0.8240  0.1417  0.0626
 4246TIP3    H234230   1.211   1.189   1.263  0.4331 -0.9060  1.0635
 4247TIP3   OH234231   3.859   2.231  16.705 -0.9346 -0.0827  0.3418
 4247TIP3    H134232   3.893   2.287  16.775 -0.5896 -1.0061  0.9295
 4247TIP3    H234233   3.764   2.236  16.715 -0.9119  0.4092  0.3665
 4248TIP3   OH234234   0.892   5.887   6.568  0.0438 -0.4771 -0.0053
 4248TIP3    H134235   0.959   5.829   6.604  0.1972  0.6533  1.6537
 4248TIP3    H234236   0.842   5.832   6.508  1.0626 -1.9238  0.4173
 4249TIP3   OH234237   3.223   3.322   3.998 -0.2153  0.6735 -0.2111
 4249TIP3    H134238   3.290   3.390   4.004 -0.1437  0.7969 -1.8968
 4249TIP3    H234239   3.271   3.243   3.971 -0.0962 -0.4457  2.9394
 4250TIP3   OH234240   3.469   4.921  16.518 -0.1499  0.2583 -0.8793
 4250TIP3    H134241   3.463   4.916  16.613  0.5848 -0.2747 -0.8576
 4250TIP3    H234242   3.377   4.923  16.489 -0.3923 -0.6235 -0.2179
 4251TIP3   OH234243   3.701   3.453   5.522 -0.3742  0.3715  0.0977
 4251TIP3    H134244   3.778   3.450   5.578 -0.0513  1.5840 -0.2433
 4251TIP3    H234245   3.628   3.435   5.580  0.1145 -0.1979  0.5423
 4252TIP3   OH234246   6.667   2.468  14.014  0.2012  0.0637 -0.2446
 4252TIP3    H134247   6.741   2.520  14.046 -1.3652  0.8863  2.2576
 4252TIP3    H234248   6.620   2.528  13.956  0.6823  0.0238 -0.6836
 4253TIP3   OH234249   3.185   1.602  16.921  0.0116  0.5577  0.5670
 4253TIP3    H134250   3.147   1.687  16.901  0.0046  0.1726 -1.2467
 4253TIP3    H234251   3.124   1.563  16.984 -1.0764  1.1153 -0.0936
 4254TIP3   OH234252   0.354   3.305  14.429 -0.6972  0.1722 -0.6388
 4254TIP3    H134253   0.436   3.271  14.394 -1.3925 -0.8691 -1.2892
 4254TIP3    H234254   0.352   3.272  14.519  0.6390  2.0773  0.1664
 4255TIP3   OH234255   3.306   2.823   1.452 -0.2156 -0.5458  0.2349
 4255TIP3    H134256   3.282   2.752   1.511  0.3948 -0.5761  0.4536
 4255TIP3    H234257   3.354   2.885   1.507 -0.0124 -0.3692 -0.1368
 4256TIP3   OH234258   4.880   0.334  12.431 -0.0748 -0.2618  0.3820
 4256TIP3    H134259   4.972   0.307  12.428 -0.1397 -0.4260 -0.5285
 4256TIP3    H234260   4.873   0.390  12.508  0.7220 -0.4856  0.6200
 4257TIP3   OH234261   4.733   2.177   1.211 -0.0622  0.1558  0.1434
 4257TIP3    H134262   4.667   2.202   1.147  0.9252  1.4926 -0.4099
 4257TIP3    H234263   4.732   2.082   1.212 -0.7690  0.1335 -1.1380
 4258TIP3   OH234264   4.267   0.238  13.681 -0.7407 -0.0438 -0.1230
 4258TIP3    H134265   4.255   0.155  13.634 -1.9346  0.0352  0.0039
 4258TIP3    H234266   4.185   0.250  13.729 -1.1569  1.8648 -1.1790
 4259TIP3   OH234267   1.189   5.868  14.616 -0.5432 -0.8246  0.1858
 4259TIP3    H134268   1.271   5.818  14.606 -0.7624 -1.2600  0.5484
 4259TIP3    H234269   1.123   5.813  14.575 -0.3521  0.4318 -1.9690
 4260TIP3   OH234270   4.520   3.847  15.015 -0.0855 -0.0124 -0.6842
 4260TIP3    H134271   4.554   3.838  15.104 -1.0960  0.3551 -0.2471
 4260TIP3    H234272   4.469   3.767  14.999  0.3149 -0.2020 -1.0393
 4261TIP3   OH234273   2.000   6.529   5.681 -0.1503  0.0438 -0.0952
 4261TIP3    H134274   1.993   6.602   5.619 -0.9092 -0.6058 -0.8013
 4261TIP3    H234275   1.910   6.512   5.707  0.1357  0.1221  0.9980
 4262TIP3   OH234276   2.081   4.289  12.797 -0.0197 -0.0562  0.2464
 4262TIP3    H134277   1.992   4.314  12.822 -0.5893 -1.3208 -0.4243
 4262TIP3    H234278   2.100   4.212  12.850  0.3366 -0.3076 -0.2362
 4263TIP3   OH234279   2.291   1.359  12.168  0.1601  0.5964  0.1181
 4263TIP3    H134280   2.220   1.330  12.226 -0.5399 -1.2627 -1.5327
 4263TIP3    H234281   2.368   1.361  12.225 -1.0412  2.0125  1.8091
 4264TIP3   OH234282   1.412   3.417   2.876  0.2270  0.3698 -0.1643
 4264TIP3    H134283   1.434   3.479   2.945  0.4620  1.6892 -1.3921
 4264TIP3    H234284   1.477   3.432   2.808  0.9505 -1.9740 -0.0934
 4265TIP3   OH234285   2.672   1.233   4.110 -0.0082  0.0793  0.3376
 4265TIP3    H134286   2.672   1.310   4.168 -0.0243 -0.6392  1.3181
 4265TIP3    H234287   2.677   1.159   4.170  1.7653 -0.6476 -0.6425
 4266TIP3   OH234288   4.272   4.197   3.215 -0.1281  0.0321  0.2257
 4266TIP3    H134289   4.242   4.115   3.176  0.2204 -0.1295  0.2890
 4266TIP3    H234290   4.211   4.214   3.287 -0.9776  0.5063 -0.5823
 4267TIP3   OH234291   0.589   5.137  13.411  0.5826 -0.5180  0.3141
 4267TIP3    H134292   0.633   5.092  13.339 -2.1706 -1.4583 -0.9416
 4267TIP3    H234293   0.574   5.068  13.477 -2.3710 -1.2777 -0.9975
 4268TIP3   OH234294   5.735   5.872  14.750 -0.0519  0.0876 -0.4781
 4268TIP3    H134295   5.655   5.888  14.701 -1.2819 -0.4912  1.2413
 4268TIP3    H234296   5.732   5.934  14.822  1.5502  0.7059 -0.8944
 4269TIP3   OH234297   4.287   2.885   2.688 -0.0573 -0.5680 -0.7358
 4269TIP3    H134298   4.258   2.908   2.599  1.7252 -1.0618 -1.5033
 4269TIP3    H234299   4.380   2.909   2.689 -0.3627  0.8574  1.5414
 4270TIP3   OH234300   1.446   1.465   1.198 -0.6261  0.2505 -0.3462
 4270TIP3    H134301   1.487   1.493   1.117  0.6465 -1.8602 -0.5236
 4270TIP3    H234302   1.478   1.375   1.211 -1.0051  0.4092  2.3284
 4271TIP3   OH234303   3.003   4.160  16.330  0.5441 -0.3398  0.0245
 4271TIP3    H134304   2.970   4.239  16.287 -0.2766 -1.7816 -2.1852
 4271TIP3    H234305   3.086   4.141  16.286  0.1100 -1.3788 -0.3826
 4272TIP3   OH234306   6.284   4.714  10.996  0.6807 -0.0466  0.0558
 4272TIP3    H134307   6.303   4.666  10.916  1.5015 -0.2487  0.3598
 4272TIP3    H234308   6.294   4.806  10.973  1.6735 -0.1318  0.1021
 4273TIP3   OH234309   5.790   3.723   0.672 -0.2008  0.5819  0.6561
 4273TIP3    H134310   5.784   3.811   0.634 -0.0780  0.9138  1.3921
 4273TIP3    H234311   5.861   3.729   0.736  0.3964 -0.2909  0.0902
 4274TIP3   OH234312   4.173   4.381   5.178  0.0371 -0.3257 -0.3644
 4274TIP3    H134313   4.243   4.316   5.169 -0.5380 -0.8931 -0.8951
 4274TIP3    H234314   4.172   4.402   5.272 -0.6282 -2.1078  0.0803
 4275TIP3   OH234315   6.576   4.386   1.351 -0.5801  0.3312  0.2070
 4275TIP3    H134316   6.669   4.365   1.361 -0.0995  2.4212  0.8322
 4275TIP3    H234317   6.572   4.442   1.273 -1.2739  0.4492  0.3159
 4276TIP3   OH234318   4.814   1.309  15.960  0.2839 -0.2130  0.2488
 4276TIP3    H134319   4.798   1.255  15.883 -0.1649  1.0533 -0.5720
 4276TIP3    H234320   4.897   1.276  15.995  0.2951 -1.0605 -0.5288
 4277TIP3   OH234321   5.956   4.652   4.406  0.3317 -0.3803  0.6259
 4277TIP3    H134322   5.974   4.746   4.405 -1.0251 -0.0913  0.7305
 4277TIP3    H234323   6.036   4.611   4.372  0.7912  0.8296  0.1969
 4278TIP3   OH234324   2.698   4.845   3.516  0.6994  0.2128 -0.2666
 4278TIP3    H134325   2.710   4.777   3.584  0.8663  0.5953  0.0926
 4278TIP3    H234326   2.660   4.798   3.442  0.3540 -0.1825  0.1545
 4279TIP3   OH234327   6.635   4.701   3.620  0.0718 -0.4895 -0.1461
 4279TIP3    H134328   6.640   4.659   3.534 -0.4067 -1.9746  0.5085
 4279TIP3    H234329   6.558   4.758   3.614 -0.8170 -1.6453 -0.3092
 4280TIP3   OH234330   1.682   0.025   6.012  0.1610  0.0937  0.2818
 4280TIP3    H134331   1.632   0.026   6.094 -0.5247 -0.0323 -0.1318
 4280TIP3    H234332   1.731  -0.057   6.015 -0.8447 -0.5336 -0.0131
 4281TIP3   OH234333   5.003   5.882   3.464 -0.5560  0.2805  0.0366
 4281TIP3    H134334   4.963   5.879   3.377 -1.5994  0.2033  0.4957
 4281TIP3    H234335   4.936   5.924   3.519 -0.1829 -0.2666  0.9348
 4282TIP3   OH234336   1.032   3.115  11.991  0.2798  0.4008  0.6174
 4282TIP3    H134337   0.989   3.199  12.007  0.1406  0.3204  0.6673
 4282TIP3    H234338   0.990   3.080  11.913  0.9505  0.7868  0.0679
 4283TIP3   OH234339   6.779   1.244  12.915  0.1703  0.1414  0.3750
 4283TIP3    H134340   6.764   1.205  13.001 -1.8584 -1.8293 -0.7546
 4283TIP3    H234341   6.798   1.169  12.858  2.8947  1.5106 -0.7000
 4284TIP3   OH234342   5.151   1.616   3.155 -0.2700 -0.5113 -0.6235
 4284TIP3    H134343   5.219   1.548   3.150  0.7388  0.4479 -0.3613
 4284TIP3    H234344   5.169   1.673   3.080 -1.9230 -1.2210 -1.6270
 4285TIP3   OH234345   5.690   2.252  15.847  0.0760  0.3823 -0.2432
 4285TIP3    H134346   5.609   2.229  15.892  0.0615 -0.3168 -0.5988
 4285TIP3    H234347   5.760   2.218  15.903  0.1426  1.3154  0.2475
 4286TIP3   OH234348   1.580   3.189  12.770  0.4696  0.1509 -0.4616
 4286TIP3    H134349   1.602   3.166  12.680 -1.4342 -1.5879 -0.5607
 4286TIP3    H234350   1.572   3.105  12.815  0.5092  0.9550  1.1172
 4287TIP3   OH234351   1.878   3.997   5.311  0.2598 -0.4843  0.7613
 4287TIP3    H134352   1.877   3.909   5.272 -0.9977 -0.1936  0.0966
 4287TIP3    H234353   1.939   3.989   5.385  2.6466 -1.0507 -1.1627
 4288TIP3   OH234354   1.149   5.950  13.537 -0.6476 -0.0804  0.5712
 4288TIP3    H134355   1.122   6.019  13.598  0.6134  0.7817  0.2085
 4288TIP3    H234356   1.163   5.873  13.592 -2.4257 -0.1684  0.9388
 4289TIP3   OH234357   6.055   3.517  13.881 -0.1398 -0.4812 -0.1254
 4289TIP3    H134358   6.104   3.597  13.900  1.4989 -1.4397 -0.2061
 4289TIP3    H234359   5.987   3.514  13.948  0.6503  0.2468  0.7283
 4290TIP3   OH234360   1.033   4.456  12.841  0.2985  0.7559 -0.3506
 4290TIP3    H134361   0.942   4.434  12.858  0.5512  0.7846  1.1609
 4290TIP3    H234362   1.034   4.488  12.751 -1.0201 -0.0925 -0.6876
 4291TIP3   OH234363   3.431   6.066   5.592  0.1623 -0.6707 -0.0876
 4291TIP3    H134364   3.405   6.157   5.578  1.5973 -0.4036 -1.3217
 4291TIP3    H234365   3.406   6.047   5.682 -1.0790  0.6086 -0.1269
 4292TIP3   OH234366   4.734   1.624  14.675 -0.3074  0.1461  0.2861
 4292TIP3    H134367   4.748   1.531  14.693  3.2387  0.6631  0.9269
 4292TIP3    H234368   4.746   1.667  14.760  0.9661  1.3836 -0.4879
 4293TIP3   OH234369   4.040   1.708  15.685  0.3534  0.0557 -0.1261
 4293TIP3    H134370   3.970   1.708  15.751 -0.2918 -3.1799 -0.6388
 4293TIP3    H234371   4.116   1.671  15.730  0.3203 -0.8341 -0.7680
 4294TIP3   OH234372   2.197   2.324  16.269  0.7636  0.5571  0.4965
 4294TIP3    H134373   2.199   2.391  16.200  0.2884  1.0460  0.9390
 4294TIP3    H234374   2.105   2.320  16.295  0.8982  0.1946  0.9259
 4295TIP3   OH234375   5.262   4.562   4.207 -0.0231  0.2801  0.2901
 4295TIP3    H134376   5.230   4.648   4.233 -0.4374  0.0855  0.4252
 4295TIP3    H234377   5.235   4.504   4.277 -0.2149 -0.0547 -0.0552
 4296TIP3   OH234378   2.594   4.457   4.868 -0.0428  0.1346 -0.4019
 4296TIP3    H134379   2.508   4.439   4.907  0.3579  0.7232  0.7848
 4296TIP3    H234380   2.637   4.515   4.930  2.0346 -1.8002  0.0833
 4297TIP3   OH234381   2.926   3.211   1.254  0.0584  0.5333 -0.3304
 4297TIP3    H134382   2.998   3.249   1.203 -1.1321  0.2897 -2.3036
 4297TIP3    H234383   2.848   3.234   1.205 -1.1893  0.3893  1.5152
 4298TIP3   OH234384   6.799   5.467  13.863  0.4534  0.2124  0.3612
 4298TIP3    H134385   6.762   5.555  13.862 -2.0922 -0.7033  2.3974
 4298TIP3    H234386   6.771   5.428  13.781 -0.9895  0.3887  0.7411
 4299TIP3   OH234387   1.501   0.107  17.133 -0.2856 -0.5202  0.0069
 4299TIP3    H134388   1.534   0.025  17.168 -0.6236 -0.3279  0.7878
 4299TIP3    H234389   1.475   0.158  17.210 -0.5349  0.1220 -0.4912
 4300TIP3   OH234390   6.721   6.347   5.803  0.0237  0.3906 -0.1257
 4300TIP3    H134391   6.646   6.333   5.860  0.2662 -0.5788 -0.0228
 4300TIP3    H234392   6.708   6.434   5.766 -0.7961  0.5027  0.4149
 4301TIP3   OH234393   2.051   3.493  14.172 -0.1023  0.4181  0.1765
 4301TIP3    H134394   1.982   3.500  14.238 -0.7153 -1.6935 -0.1618
 4301TIP3    H234395   2.123   3.546  14.207 -2.0454  3.2559  0.2304
 4302TIP3   OH234396   6.202   0.965  13.209  0.1003  0.5320  0.5250
 4302TIP3    H134397   6.277   0.993  13.157  0.0164  0.1208  0.1700
 4302TIP3    H234398   6.194   1.030  13.279  1.5314 -0.0815  1.2858
 4303TIP3   OH234399   3.240   4.527   5.134  0.8009 -0.4158 -0.4752
 4303TIP3    H134400   3.321   4.578   5.144  0.7767 -0.2239 -1.1613
 4303TIP3    H234401   3.184   4.555   5.206  0.8847  0.3596 -0.6991
 4304TIP3   OH234402   1.725   3.025   2.052 -0.3473  0.1896  0.2183
 4304TIP3    H134403   1.693   2.975   2.128 -0.7982  2.9933  2.0010
 4304TIP3    H234404   1.673   2.991   1.978 -1.5050 -1.0814  1.5435
 4305TIP3   OH234405   3.613   6.555  11.734 -0.5643  0.2111 -0.0548
 4305TIP3    H134406   3.702   6.520  11.735 -0.3790  0.6850  0.5587
 4305TIP3    H234407   3.615   6.628  11.796 -1.2943  0.4427 -0.2888
 4306TIP3   OH234408   5.148   0.353   3.036  0.0100  0.0051  0.1302
 4306TIP3    H134409   5.098   0.339   2.955 -0.3607  0.3648  0.2967
 4306TIP3    H234410   5.084   0.386   3.099  0.5013  0.6788  0.2819
 4307TIP3   OH234411   4.145   6.357   1.075  0.7823  0.6052 -0.4014
 4307TIP3    H134412   4.050   6.362   1.068  0.7046  0.3777  0.3745
 4307TIP3    H234413   4.164   6.263   1.084  1.1074  0.6183 -0.9027
 4308TIP3   OH234414   6.362   4.344   0.037 -0.2213  0.5742 -0.1762
 4308TIP3    H134415   6.399   4.267  -0.007  0.5091  1.7208 -1.6758
 4308TIP3    H234416   6.429   4.370   0.100  0.6983  1.4497 -1.4647
 4309TIP3   OH234417   1.639   3.369  16.982 -0.2638 -0.0513  0.1092
 4309TIP3    H134418   1.551   3.352  16.948 -0.2182  1.2135 -0.6755
 4309TIP3    H234419   1.698   3.349  16.909  0.1861 -1.5553  0.8360
 4310TIP3   OH234420   5.401   6.497   4.789  0.6120  0.5422 -0.1439
 4310TIP3    H134421   5.372   6.438   4.859 -1.6193  1.3712 -0.2860
 4310TIP3    H234422   5.467   6.553   4.831 -1.0656  1.3866  1.4999
 4311TIP3   OH234423   0.664   1.573  13.267 -0.0628  1.1799 -0.3312
 4311TIP3    H134424   0.649   1.479  13.282 -0.4603  0.9366 -2.0997
 4311TIP3    H234425   0.745   1.591  13.313  0.5459 -0.2637 -0.7642
 4312TIP3   OH234426   1.166   2.019  11.968  0.3548 -0.1577 -0.2586
 4312TIP3    H134427   1.154   2.026  12.063  0.3276 -1.2927 -0.1634
 4312TIP3    H234428   1.244   1.965  11.958  0.4668  0.1165 -0.8870
 4313TIP3   OH234429   4.348   3.343   5.438 -0.2008  0.2442 -0.4647
 4313TIP3    H134430   4.349   3.252   5.467  1.1807  0.6567  0.9557
 4313TIP3    H234431   4.441   3.368   5.434 -0.4922  1.2222 -2.1293
 4314TIP3   OH234432   2.914   5.662  12.133  0.4984 -0.1340 -0.3259
 4314TIP3    H134433   2.878   5.606  12.064  0.0959  0.4994 -0.6401
 4314TIP3    H234434   2.838   5.708  12.169  0.6687 -0.6376  0.7169
 4315TIP3   OH234435   2.584   5.093   3.636  0.0500 -0.0938  0.0169
 4315TIP3    H134436   2.590   5.003   3.602 -0.6206 -0.2199  0.2293
 4315TIP3    H234437   2.568   5.146   3.558 -0.9933 -0.3278  0.0614
 4316TIP3   OH234438   0.744   4.432  16.423  0.1261  0.2972 -0.0717
 4316TIP3    H134439   0.735   4.338  16.405  0.0062  0.7384 -2.7948
 4316TIP3    H234440   0.738   4.439  16.518 -2.2704 -2.2047  0.0898
 4317TIP3   OH234441   4.442   1.547  13.572  0.0739 -0.0390 -0.6667
 4317TIP3    H134442   4.449   1.630  13.526 -1.2991  0.1315 -0.6100
 4317TIP3    H234443   4.410   1.485  13.505 -0.9813 -0.0106 -0.2188
 4318TIP3   OH234444   4.848   3.880  15.517 -0.3236  0.3563  0.5054
 4318TIP3    H134445   4.854   3.834  15.601  0.4668 -0.1410  0.1838
 4318TIP3    H234446   4.921   3.941  15.518 -0.8377  0.9884  0.5410
 4319TIP3   OH234447   2.500   0.156  11.651  0.4693 -0.0522  0.8329
 4319TIP3    H134448   2.445   0.078  11.659  1.2869 -0.5994  1.1305
 4319TIP3    H234449   2.455   0.222  11.703 -0.4905 -0.1629  0.1835
 4320TIP3   OH234450   4.681   6.715  12.099  0.3751  0.0058 -0.5236
 4320TIP3    H134451   4.752   6.750  12.045  1.2954 -0.5948  0.2563
 4320TIP3    H234452   4.637   6.793  12.133  0.5492  0.3887 -1.1575
 4321TIP3   OH234453   2.474   3.093   5.924 -0.1814  0.9585  0.1396
 4321TIP3    H134454   2.527   3.036   5.978 -0.1914  1.2440  0.4541
 4321TIP3    H234455   2.512   3.180   5.935  1.6364  0.6214 -2.5644
 4322TIP3   OH234456   3.690   4.480   4.974 -0.4182 -0.4022  0.1267
 4322TIP3    H134457   3.637   4.551   5.010 -2.4912 -0.9625 -1.6084
 4322TIP3    H234458   3.633   4.403   4.977  0.3265 -1.0922 -1.6501
 4323TIP3   OH234459   1.426   3.016   3.375 -0.6588  0.5490 -0.3314
 4323TIP3    H134460   1.395   3.087   3.318  0.8007  0.4900 -1.2446
 4323TIP3    H234461   1.365   2.944   3.358 -0.7056  0.7871 -1.2406
 4324TIP3   OH234462   3.822   3.486   6.243 -0.2457  0.0041  0.2302
 4324TIP3    H134463   3.889   3.524   6.299  0.3411 -0.0861 -0.4031
 4324TIP3    H234464   3.800   3.555   6.181  0.4000 -0.4685 -0.5502
 4325TIP3   OH234465   2.593   4.094   6.026  0.0781  0.3243 -0.0318
 4325TIP3    H134466   2.683   4.085   6.056 -0.4814  1.0566  1.9855
 4325TIP3    H234467   2.591   4.179   5.981  0.3120  0.4744  0.2403
 4326TIP3   OH234468   1.652   0.529   0.486  0.1739  0.4690 -0.5650
 4326TIP3    H134469   1.631   0.453   0.540 -1.6526  0.5581 -1.0755
 4326TIP3    H234470   1.743   0.550   0.508  0.5753 -1.5426 -0.0427
 4327TIP3   OH234471   2.526   0.560  16.638 -0.0252  0.6720  0.1034
 4327TIP3    H134472   2.468   0.584  16.710 -0.3115  0.2793  0.0092
 4327TIP3    H234473   2.501   0.470  16.616 -1.6293  1.5767 -2.1188
 4328TIP3   OH234474   2.660   5.124  11.047 -0.4169  0.3395  0.0258
 4328TIP3    H134475   2.739   5.085  11.009 -0.5130  1.5694 -1.5157
 4328TIP3    H234476   2.617   5.169  10.974 -3.6455 -1.9096  0.2732
 4329TIP3   OH234477   2.805   2.426   0.633  0.2410 -0.0535 -0.0555
 4329TIP3    H134478   2.790   2.485   0.707 -0.7390  0.4927 -0.6571
 4329TIP3    H234479   2.816   2.484   0.558  0.9379 -0.6090 -0.3890
 4330TIP3   OH234480   6.136   0.870  12.785  0.3960  0.0738 -0.2850
 4330TIP3    H134481   6.113   0.963  12.781  0.9874  0.3134  1.2959
 4330TIP3    H234482   6.167   0.849  12.697 -0.1639  1.2445 -0.7892
 4331TIP3   OH234483   5.453   6.774   6.023  0.5846 -0.4959  0.5859
 4331TIP3    H134484   5.395   6.790   5.948 -1.1126  1.2656  2.1596
 4331TIP3    H234485   5.520   6.842   6.015  0.0208  0.1230  0.9848
 4332TIP3   OH234486   2.184   5.379   4.561 -0.1339  0.4799 -0.3178
 4332TIP3    H134487   2.278   5.389   4.547  0.1534  2.8634  2.5813
 4332TIP3    H234488   2.166   5.423   4.644 -3.8931  0.4240 -0.9142
 4333TIP3   OH234489   0.514   4.715  11.535  0.1368  0.1983 -0.0469
 4333TIP3    H134490   0.551   4.789  11.487 -0.7330 -0.3011 -1.5698
 4333TIP3    H234491   0.429   4.700  11.493 -1.1074  0.3050  2.2859
 4334TIP3   OH234492   4.306   3.564  12.752  0.3092  0.0799  0.0784
 4334TIP3    H134493   4.259   3.484  12.776  0.1324  0.3223  0.5301
 4334TIP3    H234494   4.242   3.615  12.702  0.3806  0.0069 -0.0912
 4335TIP3   OH234495   5.538   3.063  15.481 -0.4175  0.6602  0.0722
 4335TIP3    H134496   5.540   3.159  15.482 -1.1033  0.6805  0.0693
 4335TIP3    H234497   5.562   3.040  15.391  3.5190  0.6749  0.9137
 4336TIP3   OH234498   0.499   2.412  15.086  0.0761  0.0992  0.1451
 4336TIP3    H134499   0.422   2.463  15.110  0.5481  0.7881  0.2251
 4336TIP3    H234500   0.573   2.470  15.102  0.6340 -0.6244  0.2637
 4337TIP3   OH234501   1.087   1.381   2.840 -0.1982 -0.4412  0.7261
 4337TIP3    H134502   1.122   1.363   2.927  0.2241 -0.4676  0.5528
 4337TIP3    H234503   1.164   1.393   2.785 -0.4616  0.4767  0.5405
 4338TIP3   OH234504   5.305   0.943  14.716 -0.0351 -0.1917 -0.4260
 4338TIP3    H134505   5.288   0.983  14.801  0.2342  0.4376 -0.6603
 4338TIP3    H234506   5.399   0.929  14.714  0.1474  0.9670 -1.1078
 4339TIP3   OH234507   2.548   3.189   6.227 -0.0075 -0.7939 -0.3610
 4339TIP3    H134508   2.503   3.273   6.242  0.6029 -0.2800 -1.3274
 4339TIP3    H234509   2.631   3.213   6.185  0.9230 -1.7642  0.8375
 4340TIP3   OH234510   2.644   4.021  12.903  0.3449 -0.4394 -0.3031
 4340TIP3    H134511   2.625   3.936  12.943  1.5171 -1.2942 -1.4942
 4340TIP3    H234512   2.641   4.083  12.976 -1.4338 -1.3239  0.4476
 4341TIP3   OH234513   0.425   1.220  12.066 -0.5562  0.0642  0.8543
 4341TIP3    H134514   0.437   1.314  12.073 -0.6596  0.1999 -0.5233
 4341TIP3    H234515   0.439   1.200  11.973 -0.0403 -1.3505  1.2040
 4342TIP3   OH234516   3.489   3.120   2.603  0.3565 -0.2565  0.2100
 4342TIP3    H134517   3.444   3.036   2.598  0.1204 -0.0828 -0.7494
 4342TIP3    H234518   3.567   3.109   2.549 -0.2294  0.4651 -0.8196
 4343TIP3   OH234519   6.053   6.340  15.368 -0.1599  0.1456  0.3320
 4343TIP3    H134520   6.082   6.386  15.289 -2.1574 -2.7093 -2.3137
 4343TIP3    H234521   6.133   6.298  15.402  0.4318 -0.1935 -1.3759
 4344TIP3   OH234522   3.131   3.049   0.376 -0.8564 -0.7225 -0.2284
 4344TIP3    H134523   3.155   3.068   0.467 -1.9676 -0.6770  0.0662
 4344TIP3    H234524   3.040   3.076   0.369 -1.1161 -1.7557 -1.0519
 4345TIP3   OH234525   5.636   4.473  13.110 -0.3966 -0.0777 -0.2681
 4345TIP3    H134526   5.570   4.470  13.041 -0.7214 -0.8800  0.0592
 4345TIP3    H234527   5.714   4.509  13.068 -0.5435 -0.6999 -1.0998
 4346TIP3   OH234528   2.741   2.350   3.721  0.4337 -0.9514  0.0889
 4346TIP3    H134529   2.763   2.274   3.774  0.8498 -1.3972 -0.6935
 4346TIP3    H234530   2.692   2.407   3.779  2.2975 -0.6415  1.4549
 4347TIP3   OH234531   2.823   3.264   6.308  0.1996  0.1569  0.3531
 4347TIP3    H134532   2.767   3.340   6.325  2.7550  2.0615  0.7807
 4347TIP3    H234533   2.819   3.213   6.389 -0.3028  0.6744  0.6634
 4348TIP3   OH234534   0.068   0.893  16.499  0.2442  0.0400  0.4308
 4348TIP3    H134535   0.086   0.922  16.588  2.0450 -0.9288  0.4437
 4348TIP3    H234536   0.085   0.969  16.444  0.2302  0.3256  0.8217
 4349TIP3   OH234537   0.888   1.685  13.374  0.5259 -0.8325 -0.2495
 4349TIP3    H134538   0.970   1.638  13.363  2.1447  1.2440  1.9845
 4349TIP3    H234539   0.906   1.772  13.339 -0.3641 -0.0308  1.2029
 4350TIP3   OH234540   4.989   0.465  14.333  0.3916 -0.6055 -0.1099
 4350TIP3    H134541   5.070   0.500  14.297  1.0235 -2.0729 -0.1431
 4350TIP3    H234542   5.007   0.453  14.426 -0.4700  0.9327  0.3040
 4351TIP3   OH234543   1.730   6.528  13.629 -0.1409 -0.5310  0.1625
 4351TIP3    H134544   1.639   6.554  13.619 -0.0852  1.0495  2.8456
 4351TIP3    H234545   1.727   6.447  13.679 -0.0839 -0.4498  0.2986
 4352TIP3   OH234546   0.373   2.546   2.639 -0.0746 -0.3902  0.9658
 4352TIP3    H134547   0.443   2.482   2.652 -0.3110 -0.6852  0.8182
 4352TIP3    H234548   0.323   2.543   2.720 -1.7770 -2.5138 -0.0478
 4353TIP3   OH234549   5.000   5.133  15.001 -0.5217  0.3051 -0.1045
 4353TIP3    H134550   5.075   5.117  14.944  0.1461 -0.3292  0.9074
 4353TIP3    H234551   4.949   5.201  14.957 -0.6152 -0.9097 -1.9653
 4354TIP3   OH234552   6.160   2.818  12.571  0.2793 -0.2675 -0.0409
 4354TIP3    H134553   6.231   2.880  12.555  0.1697  0.3814  1.6902
 4354TIP3    H234554   6.082   2.873  12.582  0.1588 -0.6817  1.4112
 4355TIP3   OH234555   0.692   4.673  15.748  0.2383 -0.5026 -0.4440
 4355TIP3    H134556   0.769   4.720  15.717 -0.5835 -0.6070 -2.8388
 4355TIP3    H234557   0.709   4.582  15.728 -0.6029 -0.4956 -1.2389
 4356TIP3   OH234558   6.110   2.966  13.196  0.2957  0.1936  0.5773
 4356TIP3    H134559   6.126   3.053  13.159 -0.7987  0.1521 -0.0572
 4356TIP3    H234560   6.115   2.979  13.291  0.3156  0.9146  0.4861
 4357TIP3   OH234561   6.264   2.006  16.254  0.0388  0.4119 -0.6153
 4357TIP3    H134562   6.304   1.939  16.310  0.4874 -0.8290 -2.3333
 4357TIP3    H234563   6.333   2.029  16.191 -1.3953 -0.6129 -2.6635
 4358TIP3   OH234564   4.110   5.743   5.640 -0.1048  0.4691 -0.3285
 4358TIP3    H134565   4.195   5.775   5.609  0.0116  1.0721  0.5774
 4358TIP3    H234566   4.122   5.729   5.734 -1.3622  1.8122  0.0709
 4359TIP3   OH234567   2.411   1.830  14.392 -0.4994  0.3667  0.0084
 4359TIP3    H134568   2.321   1.829  14.359 -0.4816  0.8200 -0.0678
 4359TIP3    H234569   2.417   1.753  14.449 -0.1227 -1.2393 -2.0865
 4360TIP3   OH234570   2.713   2.260  11.669  0.0836 -0.5386 -0.1562
 4360TIP3    H134571   2.637   2.257  11.726 -0.6041  0.2332 -0.9914
 4360TIP3    H234572   2.745   2.350  11.677  0.3776 -0.6117 -0.4820
 4361TIP3   OH234573   0.504   3.649   0.538 -0.0274 -0.3684  0.2444
 4361TIP3    H134574   0.433   3.588   0.516 -0.7060 -0.0270  1.3736
 4361TIP3    H234575   0.483   3.678   0.627  0.1309  1.7120 -0.3430
 4362TIP3   OH234576   4.463   0.365   5.431 -0.4611 -0.9069  0.0320
 4362TIP3    H134577   4.408   0.440   5.453 -1.0327 -1.0611 -0.8197
 4362TIP3    H234578   4.480   0.322   5.515 -1.2283 -0.5726  0.3647
 4363TIP3   OH234579   3.502   6.189  11.415 -0.4446  0.1957  0.4434
 4363TIP3    H134580   3.543   6.264  11.372  0.9067 -0.2002  0.9728
 4363TIP3    H234581   3.440   6.228  11.477  0.2339  0.8860  0.7077
 4364TIP3   OH234582   3.121   2.326   4.059 -0.1080 -0.3146  0.0397
 4364TIP3    H134583   3.158   2.377   4.131  2.2669 -1.5577 -0.2107
 4364TIP3    H234584   3.139   2.379   3.981  2.1527 -1.3460 -0.1947
 4365TIP3   OH234585   6.286   6.693  13.987  0.1796 -0.4622 -0.1944
 4365TIP3    H134586   6.221   6.693  14.056 -0.9477  2.1031 -1.1342
 4365TIP3    H234587   6.260   6.621  13.929  0.6255 -2.0513  1.5123
 4366TIP3   OH234588   2.321   1.491  14.224  0.2576  0.0023  0.5512
 4366TIP3    H134589   2.395   1.549  14.209 -0.6317  0.9092 -0.4326
 4366TIP3    H234590   2.326   1.426  14.153 -1.1378  1.3917 -0.8798
 4367TIP3   OH234591   2.837   1.647  17.233  0.0064  0.3325  0.6019
 4367TIP3    H134592   2.912   1.705  17.243 -0.2882  0.6896  0.7394
 4367TIP3    H234593   2.834   1.627  17.139 -0.9775  2.0130  0.2250
 4368TIP3   OH234594   4.533   4.137  11.925  0.4261  0.0522 -0.2614
 4368TIP3    H134595   4.591   4.109  11.854 -0.9538 -1.4036 -0.8873
 4368TIP3    H234596   4.520   4.057  11.977 -1.8346  0.0285 -0.7749
 4369TIP3   OH234597   4.661   5.693   4.818  0.2672  0.4417 -0.6050
 4369TIP3    H134598   4.730   5.646   4.864 -0.8510 -0.9379 -0.2542
 4369TIP3    H234599   4.626   5.755   4.882 -0.1785 -0.3103 -0.1071
 4370TIP3   OH234600   2.354   1.433   2.283  0.1246  0.4006 -0.1760
 4370TIP3    H134601   2.360   1.395   2.371 -1.6065  0.3033 -0.0668
 4370TIP3    H234602   2.261   1.450   2.271  0.1704 -0.6135 -2.4224
 4371TIP3   OH234603   2.791   5.511   0.522 -0.0314 -0.2865  0.3386
 4371TIP3    H134604   2.859   5.538   0.460  0.0290 -0.7727  0.1886
 4371TIP3    H234605   2.733   5.455   0.471  0.2971 -1.1008  0.8418
 4372TIP3   OH234606   5.149   5.613  15.509  0.1018  0.5892  0.3049
 4372TIP3    H134607   5.211   5.676  15.472  0.7493 -0.7387 -0.9659
 4372TIP3    H234608   5.147   5.541  15.446 -2.2600  0.2778  0.6317
 4373TIP3   OH234609   0.116   3.453  16.950  0.1607  0.1810 -0.8524
 4373TIP3    H134610   0.157   3.538  16.967  0.9389 -0.2646 -0.4548
 4373TIP3    H234611   0.138   3.399  17.026 -1.0150 -0.1449 -0.7120
 4374TIP3   OH234612   5.408   2.343  11.731 -0.0495 -0.1170 -0.3915
 4374TIP3    H134613   5.381   2.432  11.712 -1.3455 -0.3940  0.0639
 4374TIP3    H234614   5.384   2.293  11.654 -0.5097 -0.2948 -0.1385
 4375TIP3   OH234615   6.554   6.532  11.593  0.4283  0.5163  0.0272
 4375TIP3    H134616   6.559   6.609  11.651  0.3934  0.8947 -0.4696
 4375TIP3    H234617   6.639   6.490  11.602  0.8591  1.2403 -0.5588
 4376TIP3   OH234618   0.198   2.268  14.452 -0.7421  0.7779 -0.0390
 4376TIP3    H134619   0.157   2.202  14.508 -0.1631  0.4913  0.0587
 4376TIP3    H234620   0.254   2.218  14.392 -2.1223  1.0033 -1.5650
 4377TIP3   OH234621   3.088   5.801   4.929  0.1479 -0.2051 -0.1373
 4377TIP3    H134622   3.085   5.709   4.957 -0.1926  0.4343  2.1265
 4377TIP3    H234623   3.027   5.846   4.987  0.7335  1.5438 -0.8126
 4378TIP3   OH234624   2.665   3.337  16.674 -0.4099 -0.1096 -0.2011
 4378TIP3    H134625   2.585   3.358  16.722  0.2507  1.5068  0.2382
 4378TIP3    H234626   2.683   3.415  16.621  1.1500 -0.2375  0.1012
 4379TIP3   OH234627   6.202   4.175   4.930  0.2891  0.9652 -0.0687
 4379TIP3    H134628   6.128   4.123   4.961  0.3351  0.3639 -0.9482
 4379TIP3    H234629   6.211   4.245   4.995 -0.6763  0.7082  0.3548
 4380TIP3   OH234630   1.633   0.514  11.062 -0.2567  1.0271 -0.1202
 4380TIP3    H134631   1.671   0.443  11.011 -1.8487  0.6390 -0.8526
 4380TIP3    H234632   1.703   0.544  11.119  1.1517  0.4473 -1.4659
 4381TIP3   OH234633   6.012   5.368   5.883  0.0765 -0.2172 -0.5163
 4381TIP3    H134634   6.090   5.421   5.867  0.1183 -0.5372 -1.4534
 4381TIP3    H234635   5.943   5.431   5.898 -0.4584  0.3007 -4.2265
 4382TIP3   OH234636   4.556   5.481  13.941  0.2248  1.0014 -0.2786
 4382TIP3    H134637   4.511   5.407  13.901  0.2486  0.8079  0.0490
 4382TIP3    H234638   4.605   5.443  14.014 -0.4771  1.4607  0.4524
 4383TIP3   OH234639   3.332   0.077  14.653 -0.2249  0.3594  0.5989
 4383TIP3    H134640   3.411   0.087  14.600 -1.2504  3.2580 -0.5749
 4383TIP3    H234641   3.297  -0.009  14.627  0.9647  0.3320 -1.1026
 4384TIP3   OH234642   0.691   5.797   2.873  0.2340  0.1021  0.8894
 4384TIP3    H134643   0.778   5.836   2.865  0.2943 -0.4570 -2.3457
 4384TIP3    H234644   0.707   5.703   2.876 -0.2662 -0.0267 -0.2622
 4385TIP3   OH234645   5.819   5.423  14.945  0.1415  0.2761 -0.0983
 4385TIP3    H134646   5.752   5.407  15.012  0.7610 -0.0775  0.4372
 4385TIP3    H234647   5.769   5.459  14.871 -0.7620 -0.6584  0.0198
 4386TIP3   OH234648   6.248   0.928   2.537  0.3916 -0.5202 -0.7266
 4386TIP3    H134649   6.267   0.999   2.476 -0.9300  0.5796  0.0936
 4386TIP3    H234650   6.330   0.915   2.585  0.3231  1.2857 -0.0644
 4387TIP3   OH234651   2.454   6.132  13.960 -0.1311  0.0286  0.1537
 4387TIP3    H134652   2.505   6.184  13.898 -0.0551  0.1868  0.3497
 4387TIP3    H234653   2.371   6.179  13.968 -0.6301 -0.6519 -0.7791
 4388TIP3   OH234654   4.325   3.881  10.928  0.0079 -0.6290  0.5741
 4388TIP3    H134655   4.353   3.972  10.920 -0.7827 -0.1742  2.2757
 4388TIP3    H234656   4.235   3.881  10.896 -0.0267 -0.7714  0.6683
 4389TIP3   OH234657   1.261   0.342  11.650  0.3466 -0.5693  0.1309
 4389TIP3    H134658   1.297   0.408  11.591 -1.4844 -0.3156 -0.7858
 4389TIP3    H234659   1.258   0.262  11.598  1.3706 -1.0839  0.8296
 4390TIP3   OH234660   1.651   4.727  10.269  0.4550 -0.2475 -0.1816
 4390TIP3    H134661   1.688   4.778  10.341  0.8895  0.8083 -1.1128
 4390TIP3    H234662   1.680   4.637  10.285 -1.5016 -0.5527  2.2712
 4391TIP3   OH234663   0.557   6.560  12.292  0.3390 -0.0663 -0.2112
 4391TIP3    H134664   0.565   6.655  12.286 -0.9936 -0.0001 -1.2921
 4391TIP3    H234665   0.642   6.527  12.261  0.3757  0.7566 -1.0430
 4392TIP3   OH234666   0.492   2.719  15.346  0.9678 -0.1341 -0.3136
 4392TIP3    H134667   0.486   2.810  15.374  0.3273 -0.0933 -0.5655
 4392TIP3    H234668   0.556   2.720  15.275  2.4377 -0.2047  0.9550
 4393TIP3   OH234669   4.337   6.251  11.538 -0.1439 -0.1790  0.9075
 4393TIP3    H134670   4.421   6.205  11.546 -0.2501 -0.6341 -0.3160
 4393TIP3    H234671   4.301   6.253  11.626  0.6315 -0.9952  1.2507
 4394TIP3   OH234672   5.496   6.096   0.475  0.0528 -0.2488 -0.4251
 4394TIP3    H134673   5.449   6.178   0.461 -1.6254 -0.6834  2.1076
 4394TIP3    H234674   5.443   6.030   0.430 -1.9826 -0.7463  2.4712
 4395TIP3   OH234675   3.768   4.057   4.363 -0.3333 -0.2877  0.3961
 4395TIP3    H134676   3.818   4.102   4.295  0.2436 -1.3146  0.1169
 4395TIP3    H234677   3.693   4.114   4.379  1.4480  1.8480  1.5973
 4396TIP3   OH234678   2.633   5.215  13.460  0.1385  0.3004 -0.1221
 4396TIP3    H134679   2.559   5.211  13.399 -0.6695 -1.3426  0.8943
 4396TIP3    H234680   2.641   5.308  13.481 -2.9967  0.3770  1.2713
 4397TIP3   OH234681   4.348   0.362  11.080 -0.1896 -0.0961 -0.1458
 4397TIP3    H134682   4.427   0.414  11.065 -0.1298 -0.1399  0.0186
 4397TIP3    H234683   4.357   0.331  11.171  0.1387 -1.0197 -0.4801
 4398TIP3   OH234684   1.223   3.543  14.303 -0.2042  0.7097 -0.1894
 4398TIP3    H134685   1.144   3.573  14.257 -0.1647  1.9350  0.4978
 4398TIP3    H234686   1.292   3.600  14.271  0.5211 -0.6489 -1.1162
 4399TIP3   OH234687   5.597   3.276  11.665 -0.7081  0.0443 -0.2428
 4399TIP3    H134688   5.653   3.288  11.588 -0.7759 -0.9017 -0.4521
 4399TIP3    H234689   5.560   3.362  11.681  0.2394  0.5285 -0.5435
 4400TIP3   OH234690   2.500   3.028   1.228  0.5993  0.3705 -0.5096
 4400TIP3    H134691   2.429   3.031   1.292  0.2167  2.6390 -0.9810
 4400TIP3    H234692   2.579   3.049   1.278  0.5765  0.3150 -0.4504
 4401TIP3   OH234693   3.459   6.595  14.767 -0.2936 -0.0660  0.2386
 4401TIP3    H134694   3.472   6.515  14.818  1.1423 -0.6055 -0.9251
 4401TIP3    H234695   3.410   6.566  14.690 -0.9164  0.4368  0.4309
 4402TIP3   OH234696   4.807   1.781   1.699 -0.9029 -0.4943  0.0501
 4402TIP3    H134697   4.751   1.727   1.755  0.4987  0.7414  2.8239
 4402TIP3    H234698   4.849   1.718   1.639 -2.4521 -1.8829  0.3448
 4403TIP3   OH234699   2.629   6.602  14.863  0.0444  0.2113  0.1541
 4403TIP3    H134700   2.697   6.536  14.873 -0.9643 -0.7899  0.6331
 4403TIP3    H234701   2.653   6.671  14.925 -0.6341 -1.2460  2.1569
 4404TIP3   OH234702   3.499   4.009  13.894  0.3627  0.8722 -0.2648
 4404TIP3    H134703   3.545   3.936  13.853  1.4695  1.0427  0.6372
 4404TIP3    H234704   3.443   3.967  13.960  0.4556  0.7871 -0.2405
 4405TIP3   OH234705   6.197   4.192   5.985 -0.0685  0.7464 -0.2470
 4405TIP3    H134706   6.203   4.287   5.988 -0.4972  0.7414  2.2246
 4405TIP3    H234707   6.112   4.171   6.022 -1.1621 -0.5788 -3.1393
 4406TIP3   OH234708   2.430   1.144   2.137  0.4506 -0.2233 -0.0139
 4406TIP3    H134709   2.425   1.067   2.195  1.5328 -1.2077 -1.1742
 4406TIP3    H234710   2.523   1.152   2.116  0.0110 -0.3871 -2.2322
 4407TIP3   OH234711   4.649   1.281   0.252 -0.4839 -0.2030  0.6964
 4407TIP3    H134712   4.557   1.256   0.241 -0.2872 -0.4234 -0.5777
 4407TIP3    H234713   4.660   1.357   0.194  0.4607 -1.0034 -0.2094
 4408TIP3   OH234714   4.725   5.870  15.312 -0.1499 -0.0447  0.2189
 4408TIP3    H134715   4.790   5.874  15.382  0.0363  1.6669 -0.0078
 4408TIP3    H234716   4.704   5.777  15.303  3.2143 -0.8559 -0.5649
 4409TIP3   OH234717   0.817   4.569   1.358 -0.1671  0.3685 -0.0499
 4409TIP3    H134718   0.904   4.609   1.347  0.7705 -0.9650  1.8929
 4409TIP3    H234719   0.778   4.617   1.430 -0.1890 -0.3564  0.4276
 4410TIP3   OH234720   1.746   0.678  16.320  0.0395 -0.0372  0.2339
 4410TIP3    H134721   1.770   0.698  16.411 -0.9970 -1.0192  0.7424
 4410TIP3    H234722   1.757   0.583  16.312  0.4789  0.0848 -0.7834
 4411TIP3   OH234723   2.754   5.561   2.855  0.1729 -0.0683 -0.0392
 4411TIP3    H134724   2.792   5.626   2.796  0.9226 -0.7361 -0.3197
 4411TIP3    H234725   2.708   5.500   2.797  0.3716 -0.3705  0.1151
 4412TIP3   OH234726   3.896   3.000   3.638  0.1256  1.1971 -0.0085
 4412TIP3    H134727   3.920   2.983   3.547 -0.3663 -0.2660  0.1164
 4412TIP3    H234728   3.813   3.048   3.632  1.4508  3.5779 -0.3610
 4413TIP3   OH234729   0.813   2.042  14.458  0.4048  0.2211 -0.0912
 4413TIP3    H134730   0.752   2.030  14.385 -0.8720 -2.2581  1.2693
 4413TIP3    H234731   0.775   1.992  14.530  3.6166 -0.7609  1.0885
 4414TIP3   OH234732   4.735   6.364   4.093 -0.2649 -0.2263  0.0072
 4414TIP3    H134733   4.663   6.385   4.033 -0.7233  0.9119  0.9379
 4414TIP3    H234734   4.692   6.327   4.170  0.1954 -0.1095  0.3231
 4415TIP3   OH234735   1.176   1.315  15.089  0.1397 -0.2075  0.5556
 4415TIP3    H134736   1.081   1.311  15.095  0.1739  0.0163  1.3435
 4415TIP3    H234737   1.206   1.237  15.135  0.3509  0.0797  0.9113
 4416TIP3   OH234738   4.724   0.894  11.776 -0.3601 -0.0451 -0.0256
 4416TIP3    H134739   4.738   0.973  11.828  1.8512 -1.3276  1.4856
 4416TIP3    H234740   4.809   0.851  11.774 -1.8342 -3.3139  0.8429
 4417TIP3   OH234741   2.241   6.107   3.849  0.7177 -0.4523 -0.0197
 4417TIP3    H134742   2.280   6.085   3.934 -0.3760  0.9589  0.8969
 4417TIP3    H234743   2.301   6.172   3.812  0.7985 -0.5033  0.0216
 4418TIP3   OH234744   6.254   6.551   3.327 -0.3051 -0.0385  0.5500
 4418TIP3    H134745   6.231   6.510   3.410  1.6116 -0.2823  1.0064
 4418TIP3    H234746   6.276   6.642   3.350  0.4829 -0.1761  0.3577
 4419TIP3   OH234747   0.010   4.676   2.946 -0.2881 -0.5533 -0.0560
 4419TIP3    H134748   0.101   4.700   2.959 -0.6621  0.5320  0.7800
 4419TIP3    H234749   0.012   4.585   2.917  0.9988 -0.9598  1.1776
 4420TIP3   OH234750   3.853   4.283  13.826  0.0251 -0.4595 -0.3284
 4420TIP3    H134751   3.826   4.246  13.742 -0.4128  1.0705 -0.9114
 4420TIP3    H234752   3.949   4.282  13.822  0.0162 -1.2081 -0.4615
 4421TIP3   OH234753   3.506   2.828   2.957  0.3040 -0.7943  0.5498
 4421TIP3    H134754   3.580   2.814   3.015 -0.0414  0.1218  1.2424
 4421TIP3    H234755   3.455   2.896   3.000  0.5862  0.6852 -1.3129
 4422TIP3   OH234756   0.714   6.630   1.052  0.1342  0.8128  0.5220
 4422TIP3    H134757   0.624   6.637   1.021 -0.2488 -2.7977  0.3919
 4422TIP3    H234758   0.706   6.587   1.137  1.7432 -2.0404 -0.6378
 4423TIP3   OH234759   6.419   0.426  12.493  1.0087  0.3447  0.8424
 4423TIP3    H134760   6.478   0.352  12.507  1.2978  0.2332 -0.8609
 4423TIP3    H234761   6.352   0.394  12.433 -0.2208  0.7948  1.9154
 4424TIP3   OH234762   3.504   4.873  13.778  0.0036  0.0628 -0.3676
 4424TIP3    H134763   3.534   4.951  13.733  0.1049  0.5536  0.5374
 4424TIP3    H234764   3.544   4.877  13.865 -0.6351 -0.5702 -0.0236
 4425TIP3   OH234765   5.800   4.614   3.482  0.5464 -0.2611  0.2127
 4425TIP3    H134766   5.754   4.696   3.499  0.3125 -0.8931  3.1866
 4425TIP3    H234767   5.891   4.641   3.468  0.1786  0.6175 -0.5961
 4426TIP3   OH234768   1.729   3.813  12.447 -0.1675 -0.2167  0.1475
 4426TIP3    H134769   1.697   3.891  12.401  1.7801 -0.0502 -1.0318
 4426TIP3    H234770   1.798   3.778  12.390  1.1472 -1.0196  2.1389
 4427TIP3   OH234771   3.638   4.315  12.840  0.0020 -0.0951 -0.2539
 4427TIP3    H134772   3.686   4.363  12.773 -1.6834 -1.2771 -2.3975
 4427TIP3    H234773   3.548   4.347  12.833 -0.2356 -0.2709  1.4745
 4428TIP3   OH234774   1.614   0.123   6.300  0.0574 -0.3511  0.6627
 4428TIP3    H134775   1.588   0.043   6.345  3.5983 -0.9394  2.0185
 4428TIP3    H234776   1.621   0.189   6.370 -0.5912  0.5445 -0.0836
 4429TIP3   OH234777   0.385   6.104   4.980 -0.1705  0.0152 -0.0474
 4429TIP3    H134778   0.389   6.014   5.012  1.5457  0.7595  2.1025
 4429TIP3    H234779   0.470   6.118   4.939 -0.1647  0.8279  0.2171
 4430TIP3   OH234780   5.150   2.086  11.880  0.1303  0.1092  0.3367
 4430TIP3    H134781   5.102   2.106  11.800  1.4840  1.5665 -0.1470
 4430TIP3    H234782   5.088   2.034  11.932 -1.8197  1.5368 -0.4229
 4431TIP3   OH234783   0.191   1.784  12.352 -0.7017 -0.1032  0.0242
 4431TIP3    H134784   0.280   1.764  12.324 -0.5884  1.2476 -0.6767
 4431TIP3    H234785   0.157   1.841  12.283 -2.5241 -1.5075 -0.3042
 4432TIP3   OH234786   3.693   6.001  12.512 -0.5841  0.0990 -0.5100
 4432TIP3    H134787   3.693   6.056  12.590 -1.3241 -1.8287  0.9607
 4432TIP3    H234788   3.641   5.924  12.537  1.0752 -1.6772 -2.1209
 4433TIP3   OH234789   1.523   3.687  12.590 -0.6425 -0.4402 -0.8802
 4433TIP3    H134790   1.591   3.698  12.524  0.3052  0.1344  0.1601
 4433TIP3    H234791   1.441   3.701  12.543  0.0321  0.4308 -1.8347
 4434TIP3   OH234792   1.943   2.621  12.504 -0.4988 -0.5954 -0.0953
 4434TIP3    H134793   1.995   2.541  12.514 -0.4648 -0.9632 -2.5904
 4434TIP3    H234794   2.007   2.689  12.484 -0.5984 -0.0366  1.3375
 4435TIP3   OH234795   2.211   1.136   0.347 -0.4193  0.1727 -0.5127
 4435TIP3    H134796   2.304   1.152   0.335 -0.5192 -0.0204 -1.6433
 4435TIP3    H234797   2.202   1.115   0.440  0.9728 -1.7519 -0.7559
 4436TIP3   OH234798   0.330   2.528  14.025  0.6917  0.4456  0.0385
 4436TIP3    H134799   0.371   2.562  14.104  0.4246  2.7885 -0.7591
 4436TIP3    H234800   0.387   2.556  13.953  1.2724 -2.1689 -0.6400
 4437TIP3   OH234801   4.236   2.909  15.174  0.0497  0.0924 -0.2527
 4437TIP3    H134802   4.240   2.985  15.233 -3.3870 -1.6433  2.5601
 4437TIP3    H234803   4.189   2.941  15.097  0.3646  1.2662  0.0190
 4438TIP3   OH234804   2.365   2.666  16.066  0.2709 -0.0464  0.1303
 4438TIP3    H134805   2.364   2.576  16.033 -1.8525  0.0841 -0.2615
 4438TIP3    H234806   2.278   2.701  16.045  0.9729  2.0447  0.4536
 4439TIP3   OH234807   5.980   5.242  13.521  0.1392 -0.1824 -0.1616
 4439TIP3    H134808   6.023   5.192  13.591 -1.2918 -0.1584  0.7989
 4439TIP3    H234809   5.965   5.177  13.452 -0.4536 -0.7816  0.5027
 4440TIP3   OH234810   0.298   3.195  13.065 -0.0097 -0.4855  0.5387
 4440TIP3    H134811   0.370   3.138  13.091  1.5427  1.2080  0.1473
 4440TIP3    H234812   0.317   3.218  12.974 -1.6182 -0.7960  0.0900
 4441TIP3   OH234813   3.483   6.147   5.329  0.4060 -0.3129  0.3636
 4441TIP3    H134814   3.491   6.100   5.412 -0.6972 -0.6348  0.3146
 4441TIP3    H234815   3.494   6.080   5.262  0.2058 -0.2552  0.2713
 4442TIP3   OH234816   0.538   4.319   1.892  0.6158  0.2219 -0.3428
 4442TIP3    H134817   0.463   4.378   1.897  0.1872 -0.4269  1.6282
 4442TIP3    H234818   0.566   4.308   1.983  1.4339 -1.6681 -0.7790
 4443TIP3   OH234819   4.977   4.822  10.857  0.2357 -0.2050 -0.0060
 4443TIP3    H134820   5.033   4.822  10.934  1.2110  0.6498 -0.6940
 4443TIP3    H234821   5.009   4.751  10.802 -1.8375 -2.2887  1.2795
 4444TIP3   OH234822   3.498   5.870   1.299 -0.1943 -0.2990  0.4861
 4444TIP3    H134823   3.489   5.905   1.211 -1.0658 -1.2033  0.1917
 4444TIP3    H234824   3.563   5.926   1.341 -0.8066  1.0224 -0.2648
 4445TIP3   OH234825   4.162   5.086   5.592  0.2326 -0.3327  0.5504
 4445TIP3    H134826   4.111   5.128   5.522  3.4164  0.1542 -1.6620
 4445TIP3    H234827   4.147   5.141   5.668 -0.2201  1.4841 -0.7818
 4446TIP3   OH234828   6.298   1.282   0.543  0.1058  0.3150 -0.2542
 4446TIP3    H134829   6.258   1.252   0.625  1.1167 -0.5274 -0.0426
 4446TIP3    H234830   6.225   1.309   0.488 -0.9161 -2.5101 -0.4216
 4447TIP3   OH234831   5.064   0.381  11.574  0.3451  0.2884  0.7637
 4447TIP3    H134832   5.028   0.367  11.487 -1.1959 -0.7859  1.5178
 4447TIP3    H234833   5.158   0.366  11.565  0.4355  1.6428 -0.9687
 4448TIP3   OH234834   2.165   4.841  12.451 -0.3985  0.0143 -0.2393
 4448TIP3    H134835   2.203   4.764  12.409  1.1857  0.6283  0.0035
 4448TIP3    H234836   2.100   4.806  12.511  0.4800 -1.1660  0.0665
 4449TIP3   OH234837   6.516   2.004  10.338  0.3370 -0.3869  0.4969
 4449TIP3    H134838   6.429   2.021  10.301 -0.4756 -0.8848  2.0704
 4449TIP3    H234839   6.567   1.969  10.265 -1.7504 -3.0975  0.1821
 4450TIP3   OH234840   6.815   3.258  13.461  0.3762 -0.0405 -0.0867
 4450TIP3    H134841   6.720   3.264  13.455  0.0046 -1.1225  3.1114
 4450TIP3    H234842   6.837   3.174  13.421 -0.0027  0.1074 -0.6190
 4451TIP3   OH234843   5.174   3.907   0.632  1.1188  0.4871  0.2443
 4451TIP3    H134844   5.140   3.871   0.550  1.5744 -0.9101  0.6403
 4451TIP3    H234845   5.110   3.973   0.658  0.4741  0.2653 -0.7419
 4452TIP3   OH234846   0.293   2.241  15.057  0.0273  0.6476  0.4614
 4452TIP3    H134847   0.249   2.254  14.973  0.9174 -0.6901 -0.2434
 4452TIP3    H234848   0.374   2.291  15.049 -0.3369  1.3353  0.9292
 4453TIP3   OH234849   4.755   2.955  15.549  0.0150  0.0341  0.1059
 4453TIP3    H134850   4.726   2.917  15.466  0.4748 -0.5367  0.2018
 4453TIP3    H234851   4.755   3.050  15.534 -0.8550 -0.0068 -0.2320
 4454TIP3   OH234852   3.909   3.906   1.070 -0.2669 -0.3231 -0.4344
 4454TIP3    H134853   3.893   3.813   1.057 -0.1445 -0.5697  1.0072
 4454TIP3    H234854   3.996   3.911   1.109 -0.7629  0.2815  0.6529
 4455TIP3   OH234855   5.631   1.345  11.489 -0.2477  0.3666 -0.5391
 4455TIP3    H134856   5.726   1.360  11.490 -0.4081  2.5677  3.3622
 4455TIP3    H234857   5.594   1.429  11.461 -1.0598  0.0384 -0.4807
 4456TIP3   OH234858   4.051   3.363  10.939  0.4197  0.0002  0.6375
 4456TIP3    H134859   4.076   3.411  10.860  1.3225 -0.6964  0.4809
 4456TIP3    H234860   4.110   3.288  10.940 -0.4529 -0.6882  1.2917
 4457TIP3   OH234861   1.195   0.293  15.746 -0.6521 -0.3659  0.0466
 4457TIP3    H134862   1.280   0.254  15.769 -0.3859 -0.4470 -1.0024
 4457TIP3    H234863   1.141   0.218  15.721  0.4394 -0.0625 -3.8140
 4458TIP3   OH234864   0.461   6.191  13.355 -0.6372 -0.2993  0.6381
 4458TIP3    H134865   0.453   6.131  13.281  1.0704 -1.8842  1.6623
 4458TIP3    H234866   0.383   6.175  13.408 -0.5781 -1.0601  0.5022
 4459TIP3   OH234867   1.437   5.333   5.910  0.7113 -0.2059 -0.0393
 4459TIP3    H134868   1.515   5.307   5.959  0.9683  1.3700  0.4376
 4459TIP3    H234869   1.374   5.361   5.976 -0.2984 -1.4618 -0.4224
 4460TIP3   OH234870   0.426   0.823  16.401 -0.4603  0.3264  0.4176
 4460TIP3    H134871   0.400   0.915  16.401 -0.8391  0.2378 -0.6496
 4460TIP3    H234872   0.345   0.775  16.419 -0.0363  0.2240  2.2484
 4461TIP3   OH234873   0.247   6.220  10.537  0.2451  0.2789  0.0370
 4461TIP3    H134874   0.332   6.180  10.554 -0.0178 -0.4049 -0.2116
 4461TIP3    H234875   0.203   6.219  10.622  0.0669 -0.3892 -0.0596
 4462TIP3   OH234876   4.069   6.419  13.587  0.3356 -0.2384  0.9294
 4462TIP3    H134877   4.015   6.354  13.542  0.7295 -0.0498  0.1781
 4462TIP3    H234878   4.006   6.470  13.639 -0.2899  0.2624 -0.2767
 4463TIP3   OH234879   2.882   3.574  12.255  0.4589  0.0865  0.0116
 4463TIP3    H134880   2.888   3.506  12.322 -0.1159 -0.6407 -0.6530
 4463TIP3    H234881   2.795   3.562  12.217  0.4214  1.0742 -0.2607
 4464TIP3   OH234882   0.324   6.221   0.760 -0.2662 -0.7170 -0.0236
 4464TIP3    H134883   0.297   6.291   0.699 -1.9391 -0.6851  0.6946
 4464TIP3    H234884   0.304   6.256   0.847  0.8140 -1.3075  0.4795
 4465TIP3   OH234885   3.620   6.162  12.008 -0.2950  0.5229  0.0213
 4465TIP3    H134886   3.668   6.245  12.010  0.8862 -0.1493  0.8617
 4465TIP3    H234887   3.622   6.131  12.099 -1.6192  0.0525 -0.0844
 4466TIP3   OH234888   5.251   6.257  15.144 -0.1634  0.0704 -0.2751
 4466TIP3    H134889   5.189   6.223  15.079 -0.6245  0.0249  0.1863
 4466TIP3    H234890   5.337   6.235  15.107 -0.3609  1.3995 -1.6167
 4467TIP3   OH234891   0.791   5.003  15.960 -0.0130  0.1511  0.3080
 4467TIP3    H134892   0.845   4.924  15.957 -1.0861 -0.5633 -0.8216
 4467TIP3    H234893   0.778   5.019  16.054  0.3695 -0.9008  0.5575
 4468TIP3   OH234894   0.028   6.636  15.983  0.0943  1.0307 -0.1448
 4468TIP3    H134895   0.121   6.610  15.981  0.0770  0.2566  3.3828
 4468TIP3    H234896  -0.019   6.554  15.965  0.0307  1.4030 -1.8299
 4469TIP3   OH234897   1.071   3.597  15.962  0.1100 -1.1079  0.2645
 4469TIP3    H134898   1.115   3.585  15.878 -1.7858 -0.6708 -0.8350
 4469TIP3    H234899   1.060   3.692  15.970 -0.8505 -1.2252  0.3927
 4470TIP3   OH234900   5.284   2.740  16.528 -0.4375  0.0337 -0.0783
 4470TIP3    H134901   5.303   2.737  16.434 -2.1038  2.8541 -0.6144
 4470TIP3    H234902   5.359   2.698  16.569  0.0094 -1.9664 -2.6660
 4471TIP3   OH234903   5.287   3.324   0.456 -0.3306 -0.3575  0.1146
 4471TIP3    H134904   5.352   3.393   0.460 -0.9661  0.2422  0.2265
 4471TIP3    H234905   5.233   3.337   0.533 -0.2847 -1.1559  0.2901
 4472TIP3   OH234906   0.906   0.621  11.794  0.7579  0.1201 -0.0128
 4472TIP3    H134907   0.928   0.645  11.883  0.8325  0.1911 -0.0509
 4472TIP3    H234908   0.938   0.532  11.783  1.8351  0.5390 -0.3564
 4473TIP3   OH234909   1.619   4.388   0.620  0.4856  0.8185 -0.6666
 4473TIP3    H134910   1.699   4.352   0.583 -0.1845 -0.5944 -0.8301
 4473TIP3    H234911   1.557   4.389   0.547  0.7445  3.2798 -0.9062
 4474TIP3   OH234912   5.911   2.592  11.076  0.4115  0.1733  0.0278
 4474TIP3    H134913   5.892   2.601  10.983  1.1345  1.9207  0.0023
 4474TIP3    H234914   5.958   2.672  11.098  2.8239 -1.4953  1.2792
 4475TIP3   OH234915   6.468   1.787   0.504 -0.4624 -0.9626 -0.1771
 4475TIP3    H134916   6.469   1.749   0.592 -1.7319 -1.8594 -0.5082
 4475TIP3    H234917   6.533   1.737   0.456  1.2997  0.4991  0.5871
 4476TIP3   OH234918   3.541   5.638  17.212 -0.0667 -0.2173  0.0766
 4476TIP3    H134919   3.521   5.585  17.289 -0.1657 -2.5933 -1.4858
 4476TIP3    H234920   3.612   5.697  17.241  0.9704 -2.0984  1.5805
 4477TIP3   OH234921   5.741   4.328  11.267 -1.0255  0.2169  0.3429
 4477TIP3    H134922   5.765   4.409  11.222 -0.8413 -0.6942 -1.2538
 4477TIP3    H234923   5.815   4.310  11.325 -0.8876  0.9572  0.4084
 4478TIP3   OH234924   0.852   2.701  13.004 -0.0487  0.2448  0.0509
 4478TIP3    H134925   0.873   2.746  13.086 -0.4292 -2.0354  1.4718
 4478TIP3    H234926   0.925   2.640  12.992 -0.5692 -0.2239 -0.7234
 4479TIP3   OH234927   1.538   1.314   0.544  0.6965 -0.2639  0.1514
 4479TIP3    H134928   1.535   1.403   0.507  0.2814 -0.0851  0.6112
 4479TIP3    H234929   1.593   1.322   0.622 -0.5884 -0.0737  1.0708
 4480TIP3   OH234930   2.389   1.614  14.557 -0.0800  0.4563  0.0877
 4480TIP3    H134931   2.299   1.584  14.546 -0.3833  1.3603  0.0709
 4480TIP3    H234932   2.402   1.620  14.651  0.1371 -0.1802  0.1016
 4481TIP3   OH234933   3.375   1.096   0.338  0.0580  0.3552 -0.3099
 4481TIP3    H134934   3.433   1.169   0.319  0.8790  0.4077  2.0504
 4481TIP3    H234935   3.429   1.035   0.388 -1.5910 -0.1303  0.9749
 4482TIP3   OH234936   1.700   3.366   4.018 -0.1593  0.0533 -0.1044
 4482TIP3    H134937   1.773   3.335   3.966  0.4727  1.1645  0.0853
 4482TIP3    H234938   1.639   3.292   4.021  1.1329 -1.0510  0.0902
 4483TIP3   OH234939   3.236   1.005  16.327  0.3928  0.2947  0.3061
 4483TIP3    H134940   3.159   1.030  16.276  0.9656  0.8446 -0.2955
 4483TIP3    H234941   3.278   0.936  16.276  0.7662  0.5904  0.2058
 4484TIP3   OH234942   1.340   1.979  12.712  0.3390 -0.2070 -0.2352
 4484TIP3    H134943   1.429   1.949  12.696  1.3133  2.1137  0.3477
 4484TIP3    H234944   1.348   2.074  12.721 -2.1673  0.0510  0.0787
 4485TIP3   OH234945   6.747   2.769   0.806 -0.1134  0.1240  0.4399
 4485TIP3    H134946   6.727   2.779   0.899  0.1240 -0.6709  0.5814
 4485TIP3    H234947   6.816   2.834   0.790 -0.5677  0.6694  0.6777
 4486TIP3   OH234948   1.587   5.998  10.542  0.1896 -0.7035 -0.1647
 4486TIP3    H134949   1.495   5.994  10.568  0.1606 -0.8547 -0.2862
 4486TIP3    H234950   1.632   5.944  10.607  0.0926 -1.2341 -0.5288
 4487TIP3   OH234951   2.748   3.385  16.273 -0.4054  0.4675 -0.3876
 4487TIP3    H134952   2.829   3.399  16.224 -0.8550  0.8512 -1.0407
 4487TIP3    H234953   2.739   3.463  16.329 -1.4761  1.5747 -1.9936
 4488TIP3   OH234954   2.374   3.426  16.933  0.0292 -0.2021  0.2416
 4488TIP3    H134955   2.325   3.419  16.852 -0.1798  0.4497  0.3015
 4488TIP3    H234956   2.310   3.456  16.998  0.4669  0.5389  0.3468
 4489TIP3   OH234957   5.257   1.758   4.273  0.7064 -0.0677  0.4673
 4489TIP3    H134958   5.171   1.731   4.242  0.6256 -0.6429  1.1521
 4489TIP3    H234959   5.300   1.676   4.299  3.0440 -0.3604 -3.5601
 4490TIP3   OH234960   0.124   1.239  16.822  0.5066 -0.0289  0.0495
 4490TIP3    H134961   0.050   1.292  16.851  0.7406 -0.3096  1.2261
 4490TIP3    H234962   0.175   1.223  16.902  1.4216 -0.4862 -0.6010
 4491TIP3   OH234963   0.028   4.420  11.029  0.2248 -0.0344 -0.2057
 4491TIP3    H134964   0.050   4.370  10.950 -0.8025 -0.3260 -0.3264
 4491TIP3    H234965  -0.061   4.391  11.051 -0.3359  1.6160 -0.1787
 4492TIP3   OH234966   0.594   2.081   2.442  0.1162  0.3823  0.0643
 4492TIP3    H134967   0.650   2.158   2.447  2.1594 -1.1347  2.4632
 4492TIP3    H234968   0.632   2.028   2.372 -0.0956  0.6222 -0.2385
 4493TIP3   OH234969   5.175   3.783  15.148 -0.0631  0.1600 -0.2155
 4493TIP3    H134970   5.113   3.825  15.088 -0.3499 -1.4620 -1.1076
 4493TIP3    H234971   5.251   3.763  15.093 -0.2071 -1.0830  0.0153
 4494TIP3   OH234972   0.513   2.917   4.594  0.1999 -0.5572 -0.0850
 4494TIP3    H134973   0.492   2.988   4.656  0.3152 -0.0047 -0.6724
 4494TIP3    H234974   0.559   2.960   4.522  0.8046 -1.3259 -0.1739
 4495TIP3   OH234975   4.239   0.865  14.483 -0.1248  0.5938  0.3553
 4495TIP3    H134976   4.324   0.821  14.483 -0.9219 -1.0096 -0.1546
 4495TIP3    H234977   4.250   0.939  14.423  0.6314 -0.1933 -0.4978
 4496TIP3   OH234978   4.924   4.491  11.991  0.4182  0.0088  0.0506
 4496TIP3    H134979   4.901   4.428  11.923  1.6316 -0.6326  0.2043
 4496TIP3    H234980   4.851   4.485  12.054  0.0335 -0.5119 -0.4304
 4497TIP3   OH234981   1.274   0.700  12.948  0.7451  0.2070  0.9601
 4497TIP3    H134982   1.263   0.748  13.030  0.5105 -1.1941  1.7829
 4497TIP3    H234983   1.267   0.608  12.973 -0.9527 -0.2354 -0.8852
 4498TIP3   OH234984   1.691   3.670   1.858 -0.0175  0.3405 -0.2420
 4498TIP3    H134985   1.614   3.650   1.911 -0.4770 -1.6872 -1.5652
 4498TIP3    H234986   1.719   3.585   1.823 -0.4195  1.6146 -4.1080
 4499TIP3   OH234987   6.320   2.916  16.431 -0.0049  0.3887  0.4584
 4499TIP3    H134988   6.307   2.832  16.474  0.2702  0.9016  1.6119
 4499TIP3    H234989   6.330   2.895  16.338 -0.9043 -0.7417  0.5948
 4500TIP3   OH234990   3.652   6.662   1.313 -0.2733 -0.1058 -0.3052
 4500TIP3    H134991   3.715   6.590   1.321  0.1149  0.0976 -1.4260
 4500TIP3    H234992   3.634   6.687   1.404 -0.5310 -1.6929  0.1250
 4501TIP3   OH234993   1.510   6.010   3.205 -0.0566 -0.1815  0.3962
 4501TIP3    H134994   1.437   5.951   3.188 -0.5747  0.8516 -1.1906
 4501TIP3    H234995   1.483   6.060   3.282 -0.3216 -0.8759  0.7593
 4502TIP3   OH234996   6.228   4.262   5.194 -0.6833  0.0049  0.8887
 4502TIP3    H134997   6.246   4.288   5.284  0.9563 -1.8101  1.1598
 4502TIP3    H234998   6.230   4.167   5.196 -2.0431 -0.0998 -0.8242
 4503TIP3   OH234999   3.529   4.769  14.569 -0.3949  0.9505 -0.1564
 4503TIP3    H135000   3.522   4.781  14.664  1.7503  1.0558  0.0352
 4503TIP3    H235001   3.617   4.734  14.556  0.4401  3.5515 -2.3212
 4504TIP3   OH235002   4.588   4.720  12.565 -0.1188  0.1443 -0.2301
 4504TIP3    H135003   4.660   4.766  12.521  2.2322 -2.1086  0.9647
 4504TIP3    H235004   4.543   4.788  12.615  3.6077  1.2285  2.0324
 4505TIP3   OH235005   6.593   3.523  13.789  0.2087 -0.0257  0.4862
 4505TIP3    H135006   6.571   3.607  13.749 -1.3177 -0.7299 -0.2224
 4505TIP3    H235007   6.600   3.543  13.883 -0.6306  0.7995  0.3833
 4506TIP3   OH235008   3.827   2.675   4.098 -0.0098  0.1113 -0.0124
 4506TIP3    H135009   3.755   2.616   4.074  2.6024 -3.0873 -0.7809
 4506TIP3    H235010   3.825   2.744   4.032 -1.3780 -0.8231 -1.0004
 4507TIP3   OH235011   3.044   4.152   6.624  0.1366 -0.3446  0.0663
 4507TIP3    H135012   3.074   4.243   6.617  1.5025 -0.4577  2.9479
 4507TIP3    H235013   2.950   4.159   6.642 -0.1700  0.3611 -1.6342
 4508TIP3   OH235014   4.989   0.584  16.969 -0.0423 -0.3459 -0.6804
 4508TIP3    H135015   5.052   0.521  16.934 -0.4898 -1.6919  0.7911
 4508TIP3    H235016   4.904   0.544  16.950 -0.3095 -0.6469  1.0186
 4509TIP3   OH235017   1.377   0.014   6.531 -0.2606  0.0882 -0.4036
 4509TIP3    H135018   1.337  -0.057   6.582  0.8601 -2.0499 -2.2708
 4509TIP3    H235019   1.428  -0.032   6.464 -0.2554  2.7010 -2.3380
 4510TIP3   OH235020   0.362   1.376   2.540 -0.1990  0.1812 -0.0960
 4510TIP3    H135021   0.268   1.367   2.527 -0.1908 -3.0863  1.1025
 4510TIP3    H235022   0.400   1.305   2.488  1.6049  1.1754 -0.2242
 4511TIP3   OH235023   0.578   2.684  16.906  0.1264 -0.1022 -0.2932
 4511TIP3    H135024   0.546   2.722  16.825  0.2391  0.0125 -0.2839
 4511TIP3    H235025   0.499   2.667  16.957  0.0418 -0.3764 -0.5145
 4512TIP3   OH235026   2.289   2.911  15.257  0.1443  0.0847 -0.2109
 4512TIP3    H135027   2.372   2.958  15.256 -0.4227  1.1799 -2.1588
 4512TIP3    H235028   2.242   2.944  15.180 -2.8394  0.8211  1.7526
 4513TIP3   OH235029   5.831   4.078  11.911  0.3551 -0.6446  0.2540
 4513TIP3    H135030   5.908   4.120  11.951 -1.1730  1.4668  1.2125
 4513TIP3    H235031   5.769   4.069  11.984 -1.3272  0.3338 -0.9793
 4514TIP3   OH235032   0.036   0.304   3.674 -0.3584  0.2362 -0.1796
 4514TIP3    H135033   0.086   0.233   3.715 -0.7601  0.3731  0.5633
 4514TIP3    H235034   0.040   0.285   3.580 -1.0921 -1.2002  0.0487
 4515TIP3   OH235035   0.906   6.493   5.273 -0.1173 -0.0823  0.4014
 4515TIP3    H135036   0.913   6.581   5.310  0.1773 -0.2604  0.7733
 4515TIP3    H235037   0.989   6.452   5.293 -0.1044 -0.3162 -0.1228
 4516TIP3   OH235038   6.490   0.644   3.851 -0.1309 -0.5439  0.3318
 4516TIP3    H135039   6.484   0.560   3.804  0.6205  0.2464 -1.2694
 4516TIP3    H235040   6.402   0.682   3.844 -0.1314 -0.6188 -0.0863
 4517TIP3   OH235041   4.616   0.916  12.243 -0.3075  0.4342  0.1693
 4517TIP3    H135042   4.608   0.878  12.155  2.9190  0.6464 -0.3628
 4517TIP3    H235043   4.696   0.877  12.278 -1.5420  0.3113  3.1024
 4518TIP3   OH235044   0.841   3.601  13.811  0.0300 -0.0722 -0.5452
 4518TIP3    H135045   0.886   3.598  13.727  2.6660  0.3591  0.7667
 4518TIP3    H235046   0.784   3.678  13.805 -0.3270 -0.4169 -2.1149
 4519TIP3   OH235047   6.599   3.494   2.361 -0.4134  0.0621 -0.0164
 4519TIP3    H135048   6.657   3.419   2.347 -1.9398 -1.2163  0.1896
 4519TIP3    H235049   6.541   3.494   2.285 -0.4468  1.0369 -0.0007
 4520TIP3   OH235050   6.091   1.809  13.071  0.0114  0.4844  0.0559
 4520TIP3    H135051   6.018   1.753  13.098 -0.5537  1.4675  0.5857
 4520TIP3    H235052   6.169   1.757  13.094 -0.4977 -0.1574  0.3906
 4521TIP3   OH235053   0.184   5.771  16.300 -0.1323 -0.7933  0.6533
 4521TIP3    H135054   0.125   5.846  16.296  2.1344  1.0697  0.0176
 4521TIP3    H235055   0.141   5.703  16.247 -1.0063  1.0043 -1.0435
 4522TIP3   OH235056   3.674   0.458   3.655  0.2529 -0.2395  0.0865
 4522TIP3    H135057   3.684   0.478   3.748  0.6630 -0.5719  0.1205
 4522TIP3    H235058   3.739   0.514   3.612  0.1385 -0.1654  0.0110
 4523TIP3   OH235059   1.449   5.613  16.664  0.1061  0.4789 -0.2801
 4523TIP3    H135060   1.388   5.624  16.738 -0.2400  1.8280 -0.7370
 4523TIP3    H235061   1.530   5.581  16.704 -0.5293 -0.2174  0.4873
 4524TIP3   OH235062   4.075   3.009  15.784  0.4587 -0.1157  0.3157
 4524TIP3    H135063   4.039   3.076  15.843  2.0304 -1.0662  2.4801
 4524TIP3    H235064   4.001   2.952  15.764 -0.5881  1.4481 -0.4333
 4525TIP3   OH235065   3.029   6.093  12.469  0.6543 -0.0578  0.2181
 4525TIP3    H135066   3.068   6.048  12.544 -1.5702 -0.2064  1.3929
 4525TIP3    H235067   2.995   6.175  12.506  1.1406  0.7311 -1.0428
 4526TIP3   OH235068   4.860   6.437  15.451  0.0008  0.4136  0.3544
 4526TIP3    H135069   4.935   6.449  15.510  1.0638  0.9343 -1.0411
 4526TIP3    H235070   4.887   6.367  15.392 -0.8860  0.1662  0.2279
 4527TIP3   OH235071   0.358   0.112  11.210 -0.0612 -0.2134  0.4214
 4527TIP3    H135072   0.267   0.133  11.190 -0.5700 -0.8498  1.9089
 4527TIP3    H235073   0.382   0.045  11.146 -0.9462 -0.7105  0.5991
 4528TIP3   OH235074   2.643   5.668  14.758 -0.7072  0.3602  0.1515
 4528TIP3    H135075   2.704   5.731  14.798  0.5843  1.6060 -3.3877
 4528TIP3    H235076   2.564   5.719  14.740 -0.9272  0.0646  0.2745
 4529TIP3   OH235077   4.351   3.490   0.357 -0.6857 -0.5914 -0.4399
 4529TIP3    H135078   4.419   3.446   0.307 -1.2013 -2.0618  0.1167
 4529TIP3    H235079   4.269   3.466   0.312 -1.2393 -2.5947  1.4896
 4530TIP3   OH235080   3.583   3.462   3.362  0.4316  0.4176 -0.1732
 4530TIP3    H135081   3.543   3.547   3.341  0.8243  0.5977 -0.2110
 4530TIP3    H235082   3.654   3.453   3.300 -1.2534 -1.2127 -2.0025
 4531TIP3   OH235083   0.594   6.693  16.971  0.0567  0.4840 -0.1979
 4531TIP3    H135084   0.555   6.781  16.967 -0.5576  0.2531  0.4473
 4531TIP3    H235085   0.640   6.691  17.055 -0.8963 -0.1896  0.3250
 4532TIP3   OH235086   5.855   2.872   4.474 -0.5608 -0.0737  0.0255
 4532TIP3    H135087   5.825   2.782   4.479  1.4901 -1.1204 -3.1502
 4532TIP3    H235088   5.777   2.922   4.447 -1.1764 -1.3315 -0.5795
 4533TIP3   OH235089   1.040   5.880   1.813  0.2055  0.1778  0.3295
 4533TIP3    H135090   1.121   5.829   1.808 -0.3304 -0.6911  0.4759
 4533TIP3    H235091   1.069   5.971   1.799  1.0578 -0.2295 -0.7346
 4534TIP3   OH235092   3.134   0.468  14.119  0.2431  0.1513  0.2762
 4534TIP3    H135093   3.223   0.496  14.095 -0.0476  0.1131 -0.8748
 4534TIP3    H235094   3.077   0.517  14.061 -0.4010 -1.0417 -0.1290
 4535TIP3   OH235095   5.948   0.685  16.702  0.3589 -0.5089 -0.2043
 4535TIP3    H135096   5.965   0.592  16.693 -0.7897 -0.7254 -0.2655
 4535TIP3    H235097   5.898   0.693  16.784 -0.7395 -0.1265 -0.8853
 4536TIP3   OH235098   5.043   1.659   2.006 -0.2018  0.3011  0.1918
 4536TIP3    H135099   5.002   1.679   2.090 -0.8303  1.1375 -0.2925
 4536TIP3    H235100   5.007   1.573   1.982 -0.0332  0.0685  0.7631
 4537TIP3   OH235101   2.033   3.738  12.453  0.2158 -0.0929 -0.1779
 4537TIP3    H135102   2.072   3.792  12.521  2.7341 -1.0497 -0.7646
 4537TIP3    H235103   2.081   3.759  12.373  1.3820 -3.1481 -0.4185
 4538TIP3   OH235104   3.994   4.760   0.430 -0.2134 -0.2540 -0.3922
 4538TIP3    H135105   3.930   4.709   0.479 -0.2200 -0.5496 -0.7081
 4538TIP3    H235106   4.068   4.700   0.417  1.1018  0.7222  1.9052
 4539TIP3   OH235107   2.080   3.458   3.068 -0.6973  0.3923 -0.0290
 4539TIP3    H135108   2.052   3.374   3.033 -0.4131  0.7545 -1.1806
 4539TIP3    H235109   2.103   3.510   2.990  1.9932  0.5368  0.7650
 4540TIP3   OH235110   1.457   0.985  13.698 -0.1345  0.1385 -0.0880
 4540TIP3    H135111   1.436   1.005  13.607  0.9583  0.2503 -0.3291
 4540TIP3    H235112   1.397   0.915  13.722 -0.6812  0.3612 -0.7769
 4541TIP3   OH235113   0.306   2.171  13.623  0.0348  0.0167  0.6073
 4541TIP3    H135114   0.265   2.165  13.709 -2.4887 -1.7208 -0.5678
 4541TIP3    H235115   0.355   2.090  13.614 -2.2071 -1.3091 -0.6314
 4542TIP3   OH235116   6.500   0.000  13.823  0.7382  0.3557  0.2630
 4542TIP3    H135117   6.551  -0.080  13.836  0.7698  0.2698 -0.3572
 4542TIP3    H235118   6.418  -0.016  13.868  1.3056  0.5507  1.3970
 4543TIP3   OH235119   4.304   0.365   1.713 -0.3881  0.6841 -0.9600
 4543TIP3    H135120   4.219   0.340   1.748  0.5951 -1.3324  0.1542
 4543TIP3    H235121   4.302   0.461   1.712 -1.6071  0.7905  1.9297
 4544TIP3   OH235122   2.924   2.780  12.848 -0.2771 -0.2320  0.2091
 4544TIP3    H135123   2.983   2.855  12.848  0.5678 -0.8617 -0.7039
 4544TIP3    H235124   2.975   2.710  12.807 -1.0264 -1.3243  1.0878
 4545TIP3   OH235125   3.497   6.412   2.918 -0.4201 -0.4845  0.4631
 4545TIP3    H135126   3.440   6.340   2.944 -0.0076 -1.0923 -0.2654
 4545TIP3    H235127   3.449   6.457   2.848 -1.1432  0.6158  1.6216
 4546TIP3   OH235128   5.220   0.785  12.332 -0.0336  0.1385 -0.6005
 4546TIP3    H135129   5.258   0.788  12.244  0.7990 -1.0659 -0.3116
 4546TIP3    H235130   5.271   0.847  12.383 -0.5223  0.8447 -0.9627
 4547TIP3   OH235131   4.337   1.066   2.421 -0.4313  0.5247 -0.5616
 4547TIP3    H135132   4.304   0.983   2.384  2.2427 -0.6602 -0.5234
 4547TIP3    H235133   4.425   1.045   2.452 -1.2609  2.2617  3.6345
 4548TIP3   OH235134   6.102   6.474  15.808 -0.5805 -0.3023 -0.5687
 4548TIP3    H135135   6.185   6.522  15.809 -0.7029 -0.0367  1.4261
 4548TIP3    H235136   6.036   6.540  15.788 -0.4849 -0.1780 -0.4738
 4549TIP3   OH235137   6.024   5.201   0.062  0.0889  0.4621 -0.1543
 4549TIP3    H135138   5.948   5.143   0.055 -0.0531  0.8462 -2.9273
 4549TIP3    H235139   6.099   5.143   0.051  0.1737  0.2766  1.2294
 4550TIP3   OH235140   0.330   6.138  12.610  0.6438  0.1533  0.8272
 4550TIP3    H135141   0.339   6.163  12.518  0.1838 -0.8335  0.5094
 4550TIP3    H235142   0.418   6.144  12.645  0.9406 -0.1304  0.1472
 4551TIP3   OH235143   0.313   5.211   3.499 -0.2326  0.8024  0.1332
 4551TIP3    H135144   0.319   5.180   3.590  0.3045 -0.4939 -0.3175
 4551TIP3    H235145   0.397   5.253   3.482  0.6567 -1.0930 -0.4742
 4552TIP3   OH235146   5.775   0.560   3.190  0.0313  0.1892 -0.3772
 4552TIP3    H135147   5.753   0.476   3.232 -0.7713 -0.1244 -1.4030
 4552TIP3    H235148   5.694   0.609   3.191  0.2148  0.5016 -0.8408
 4553TIP3   OH235149   4.358   1.443  15.667  0.7630 -0.6032  0.2247
 4553TIP3    H135150   4.323   1.388  15.737  0.6996  0.5411  1.1073
 4553TIP3    H235151   4.444   1.469  15.698  1.6653 -1.8321 -1.0973
 4554TIP3   OH235152   1.144   1.026  14.398  0.2851  0.4191 -0.5095
 4554TIP3    H135153   1.119   1.118  14.387 -0.1428  0.2718 -0.8011
 4554TIP3    H235154   1.107   0.982  14.321 -1.7021 -0.4155  0.8376
 4555TIP3   OH235155   2.192   0.868  14.764  0.1912 -0.5041 -0.0606
 4555TIP3    H135156   2.217   0.859  14.856 -1.3604  0.8326  0.5388
 4555TIP3    H235157   2.164   0.780  14.739  0.4674 -0.8500  0.7893
 4556TIP3   OH235158   2.229   3.575   0.059  0.4549 -0.9044  0.5965
 4556TIP3    H135159   2.245   3.506   0.123 -0.9313 -2.2907 -0.4679
 4556TIP3    H235160   2.289   3.645   0.083 -0.9281 -0.7648  4.2772
 4557TIP3   OH235161   3.567   4.210  17.116  0.3258  0.2789 -0.5305
 4557TIP3    H135162   3.544   4.129  17.162 -0.8185  0.3246 -0.9956
 4557TIP3    H235163   3.485   4.240  17.077  0.6118  1.9219  0.0241
 4558TIP3   OH235164   4.010   1.662  16.273  0.0579  0.0445  0.3273
 4558TIP3    H135165   4.007   1.633  16.364  2.8013  0.4797  0.6491
 4558TIP3    H235166   3.959   1.596  16.225 -2.1866  0.2808  2.2156
 4559TIP3   OH235167   6.728   1.543  10.359 -0.3442  0.3195 -0.0841
 4559TIP3    H135168   6.705   1.552  10.267  1.5464  0.9185 -0.5246
 4559TIP3    H235169   6.740   1.448  10.372  1.7545  0.3883 -1.1075
 4560TIP3   OH235170   2.851   3.331  13.202  0.4288 -0.0224 -0.0631
 4560TIP3    H135171   2.868   3.332  13.296  1.6816  3.1766 -0.2010
 4560TIP3    H235172   2.938   3.320  13.162  0.2060  0.9250 -0.8359
 4561TIP3   OH235173   3.134   0.842   4.678  0.8117 -0.1564 -0.1747
 4561TIP3    H135174   3.124   0.767   4.736  0.0283  0.8866  1.0842
 4561TIP3    H235175   3.229   0.854   4.669  0.9385 -0.2366  1.0195
 4562TIP3   OH235176   4.926   4.146  12.421  0.6932  0.0260  0.8604
 4562TIP3    H135177   4.850   4.182  12.468  0.8939  1.2831  0.2573
 4562TIP3    H235178   4.914   4.175  12.331  2.9426  2.0740  1.1455
 4563TIP3   OH235179   5.522   2.673   4.279  0.2511  0.2513 -0.1779
 4563TIP3    H135180   5.510   2.650   4.187  0.6064 -1.5092  0.1908
 4563TIP3    H235181   5.556   2.594   4.320  1.0124  1.2900  1.2971
 4564TIP3   OH235182   5.443   0.493  10.934  0.2923  0.4042  0.1616
 4564TIP3    H135183   5.462   0.434  10.861 -1.2777  0.0016  0.0453
 4564TIP3    H235184   5.501   0.568  10.920  0.8120 -0.1742 -0.8700
 4565TIP3   OH235185   3.820   5.478  14.314 -0.0925 -0.3066  0.7060
 4565TIP3    H135186   3.726   5.488  14.296  0.4149  2.2524 -1.0724
 4565TIP3    H235187   3.833   5.524  14.397 -0.3400 -0.1073  0.6381
 4566TIP3   OH235188   0.014   4.917  15.685  0.1196 -0.1702  0.0364
 4566TIP3    H135189  -0.076   4.944  15.701 -0.2384 -1.6337  0.6329
 4566TIP3    H235190   0.012   4.877  15.598  0.1398 -0.4057  0.1432
 4567TIP3   OH235191   6.542   3.046   3.764  0.0464 -0.2135 -0.3032
 4567TIP3    H135192   6.589   2.993   3.699 -0.4400  0.0144 -0.8434
 4567TIP3    H235193   6.536   3.133   3.724  0.6006  0.1922  0.4660
 4568TIP3   OH235194   6.187   3.442  16.378 -0.6224  0.4997  0.3445
 4568TIP3    H135195   6.130   3.447  16.301 -0.4948 -0.0375  0.2109
 4568TIP3    H235196   6.203   3.349  16.390  0.9280  0.6769 -0.1455
 4569TIP3   OH235197   1.324   1.438   5.406 -0.4981  0.4162  0.5296
 4569TIP3    H135198   1.401   1.480   5.368 -1.1421  0.7669 -0.4249
 4569TIP3    H235199   1.263   1.428   5.333  0.2268 -3.8044  0.2633
 4570TIP3   OH235200   4.122   1.527   0.785  0.6585 -0.0866  0.2820
 4570TIP3    H135201   4.141   1.472   0.862 -0.3442  0.0052  0.6179
 4570TIP3    H235202   4.067   1.471   0.730  1.0905 -0.0288 -0.2103
 4571TIP3   OH235203   5.574   5.009  11.836  0.1063  0.5342 -0.0416
 4571TIP3    H135204   5.538   5.022  11.924  1.6877 -0.0486  0.7374
 4571TIP3    H235205   5.520   5.064  11.779 -4.8196 -3.3442  0.2294
 4572TIP3   OH235206   1.425   6.730   5.801 -0.2295 -0.0488 -0.4701
 4572TIP3    H135207   1.333   6.717   5.820 -0.1124 -0.7886 -0.4019
 4572TIP3    H235208   1.471   6.669   5.858  0.2834  0.0687 -0.7491
 4573TIP3   OH235209   6.114   1.696   5.263  0.2663  0.2178 -0.2301
 4573TIP3    H135210   6.207   1.683   5.282  0.1892 -1.1565 -0.7119
 4573TIP3    H235211   6.112   1.717   5.169  0.0809  0.2856 -0.2107
 4574TIP3   OH235212   6.207   3.597   2.058 -0.4422 -0.5443  0.1212
 4574TIP3    H135213   6.151   3.651   2.113 -2.9335 -1.5312 -1.2758
 4574TIP3    H235214   6.227   3.520   2.113  0.3155  0.1985  0.9242
 4575TIP3   OH235215   2.546   5.740   4.563 -0.2181 -0.6838  0.3714
 4575TIP3    H135216   2.629   5.734   4.515  0.2177 -2.7872  1.2489
 4575TIP3    H235217   2.568   5.788   4.643 -0.1517 -0.1810  0.0582
 4576TIP3   OH235218   2.361   2.990   4.157  0.0037 -0.2159 -0.1815
 4576TIP3    H135219   2.426   2.953   4.216 -0.0198  0.6910  0.4500
 4576TIP3    H235220   2.288   2.929   4.159  0.1603 -0.3878  0.4459
 4577TIP3   OH235221   4.494   1.375   5.272 -0.3968 -0.0380  0.3968
 4577TIP3    H135222   4.521   1.417   5.354 -0.6228  1.8252 -0.4307
 4577TIP3    H235223   4.541   1.291   5.272  0.8438  0.6009  1.6832
 4578TIP3   OH235224   1.771   1.092  15.119  0.4599 -0.3877 -0.3952
 4578TIP3    H135225   1.733   1.158  15.178  1.6386  0.6525 -0.7515
 4578TIP3    H235226   1.709   1.086  15.047 -0.7219 -1.2624  0.6549
 4579TIP3   OH235227   2.189   5.992   0.461 -0.0845  0.3251 -0.5559
 4579TIP3    H135228   2.154   6.070   0.418 -0.2608  0.6154  0.1013
 4579TIP3    H235229   2.111   5.940   0.483 -0.3467  1.8251  2.5651
 4580TIP3   OH235230   4.071   2.353   5.155  0.4199  0.2344  0.3209
 4580TIP3    H135231   4.045   2.281   5.211  0.6223  0.0148  0.1376
 4580TIP3    H235232   4.127   2.312   5.088 -0.3769  0.3762 -0.4491
 4581TIP3   OH235233   0.279   0.321  16.761  0.0256  0.2959 -0.2195
 4581TIP3    H135234   0.307   0.272  16.683  1.2538  1.9636 -0.9234
 4581TIP3    H235235   0.352   0.311  16.823 -0.4215 -0.0583  0.2510
 4582TIP3   OH235236   4.930   5.189   3.686  0.5298  0.0713 -0.6498
 4582TIP3    H135237   4.880   5.214   3.608  1.0668  1.6523 -0.5278
 4582TIP3    H235238   5.013   5.235   3.676  1.7097 -1.8855 -0.4710
 4583TIP3   OH235239   6.226   5.939  12.256  0.8046 -0.0306  0.0407
 4583TIP3    H135240   6.171   6.009  12.291 -1.1083 -1.8033  0.7951
 4583TIP3    H235241   6.255   5.971  12.171 -3.8454 -0.0533 -1.8342
 4584TIP3   OH235242   3.561   5.441  16.188 -0.1532  1.0227 -0.2545
 4584TIP3    H135243   3.474   5.426  16.149 -0.2323  2.6309 -0.7784
 4584TIP3    H235244   3.589   5.525  16.151  0.4625  1.8574  1.9456
 4585TIP3   OH235245   0.529   2.738  15.849 -0.3638  0.4969  0.1351
 4585TIP3    H135246   0.532   2.757  15.755 -0.5322  0.1529  0.0610
 4585TIP3    H235247   0.609   2.687  15.865 -1.0895 -0.7467 -0.1100
 4586TIP3   OH235248   3.376   0.854  10.966 -0.0571  0.2892  0.3648
 4586TIP3    H135249   3.446   0.817  10.913  0.0865  0.4469  0.4434
 4586TIP3    H235250   3.296   0.810  10.935 -0.2786  1.7904 -1.3588
 4587TIP3   OH235251   1.129   5.390   4.498 -0.6865  0.0574 -0.0485
 4587TIP3    H135252   1.222   5.412   4.500 -0.7609  0.5681 -1.1626
 4587TIP3    H235253   1.084   5.475   4.495 -1.1977 -0.1832  0.5316
 4588TIP3   OH235254   4.048   5.516  15.792  0.4781 -0.4631  0.0284
 4588TIP3    H135255   4.010   5.434  15.821  0.3854 -0.5437 -0.3135
 4588TIP3    H235256   3.981   5.555  15.735 -1.0440  1.5827  2.9886
 4589TIP3   OH235257   5.779   0.768   3.652  0.5315  0.2963 -0.1110
 4589TIP3    H135258   5.784   0.854   3.611  1.8638 -0.0629 -0.7559
 4589TIP3    H235259   5.802   0.783   3.744  1.3240  0.5509 -0.3475
 4590TIP3   OH235260   1.460   5.094  13.677 -0.1643 -0.0059  0.1547
 4590TIP3    H135261   1.472   5.117  13.585  0.8112  0.6553  0.4236
 4590TIP3    H235262   1.546   5.111  13.717 -0.5675 -0.3007  1.1805
 4591TIP3   OH235263   2.010   4.380  12.366 -0.0343 -0.5150 -0.4619
 4591TIP3    H135264   2.072   4.379  12.293  0.3538 -0.2082 -0.1370
 4591TIP3    H235265   2.025   4.297  12.411  0.2871 -0.3489 -0.2621
 4592TIP3   OH235266   3.240   2.017   0.381 -0.1304 -0.1651 -0.4578
 4592TIP3    H135267   3.179   2.060   0.322  0.2988  2.3863  0.8222
 4592TIP3    H235268   3.316   2.076   0.385  0.2093 -0.6573  1.9452
 4593TIP3   OH235269   4.396   0.566   2.361  0.1215  0.6994 -0.4673
 4593TIP3    H135270   4.443   0.570   2.444 -0.7106  0.4275  0.0262
 4593TIP3    H235271   4.446   0.623   2.302  0.2694  1.5284  0.4480
 4594TIP3   OH235272   1.244   0.330   2.320  0.5402 -0.1117 -0.1747
 4594TIP3    H135273   1.279   0.388   2.387  2.0568 -2.0934  0.8751
 4594TIP3    H235274   1.156   0.308   2.351  0.2121  1.0532 -0.2401
 4595TIP3   OH235275   5.148   1.850  15.080  0.4664 -0.1183  0.5649
 4595TIP3    H135276   5.069   1.884  15.121  0.3776 -1.1914  1.3415
 4595TIP3    H235277   5.141   1.875  14.988 -1.0595 -0.6897  0.4975
 4596TIP3   OH235278   6.273   0.368   0.150  0.2432 -0.1386  0.1380
 4596TIP3    H135279   6.279   0.463   0.150 -0.0103 -0.1213 -0.1162
 4596TIP3    H235280   6.219   0.347   0.073 -2.2476 -0.3200  1.8322
 4597TIP3   OH235281   3.021   3.097  11.987 -0.1985  0.1660  0.1613
 4597TIP3    H135282   3.042   3.019  12.038 -1.7174  0.1226  0.7756
 4597TIP3    H235283   2.982   3.158  12.050 -1.0039  0.5783 -0.6970
 4598TIP3   OH235284   1.745   6.610   0.255  0.7662  0.0436 -0.4405
 4598TIP3    H135285   1.836   6.627   0.281  0.4487 -0.5074  1.1214
 4598TIP3    H235286   1.732   6.517   0.275 -0.1464  0.1212 -0.6418
 4599TIP3   OH235287   2.004   0.428  11.777 -0.4353 -0.0682 -0.0733
 4599TIP3    H135288   2.045   0.431  11.691  0.6891 -0.4057  0.4321
 4599TIP3    H235289   1.918   0.469  11.764  0.5318  1.8346 -0.9146
 4600TIP3   OH235290   1.381   4.410  14.161  0.1162  0.5976 -0.8042
 4600TIP3    H135291   1.400   4.486  14.106  1.2521 -0.3153 -1.7000
 4600TIP3    H235292   1.441   4.342  14.131  1.4166  0.3014  2.0923
 4601TIP3   OH235293   2.244   6.342  16.363  0.0977 -0.4693 -0.1878
 4601TIP3    H135294   2.311   6.281  16.395  1.3014  1.0435  0.2910
 4601TIP3    H235295   2.276   6.371  16.278 -0.5019 -0.5576 -0.4485
 4602TIP3   OH235296   1.940   2.182  15.383 -0.0786 -0.7172 -0.5045
 4602TIP3    H135297   1.918   2.274  15.367 -0.1107 -0.5298  0.5196
 4602TIP3    H235298   1.860   2.145  15.421  0.9744 -0.2554  2.4399
 4603TIP3   OH235299   5.191   3.273  16.211 -0.7597 -0.0147 -0.4900
 4603TIP3    H135300   5.227   3.192  16.177 -0.5889  0.1218 -0.6312
 4603TIP3    H235301   5.107   3.283  16.166 -1.6102 -1.0099  0.7798
 4604TIP3   OH235302   5.975   0.038   2.301 -0.5572  0.1134 -0.6800
 4604TIP3    H135303   5.973  -0.033   2.238 -1.8781  0.3164 -0.9053
 4604TIP3    H235304   6.052   0.021   2.355 -0.0773 -0.7100 -1.6018
 4605TIP3   OH235305   0.115   2.037  16.825  0.0577 -0.1315 -0.3752
 4605TIP3    H135306   0.034   2.031  16.875  1.0327  0.8485  1.4381
 4605TIP3    H235307   0.167   1.961  16.852  0.6562  0.4920  0.3087
 4606TIP3   OH235308   2.893   5.140   5.899 -0.6560  1.0783 -0.3159
 4606TIP3    H135309   2.926   5.107   5.982 -1.6163 -1.0767 -0.7164
 4606TIP3    H235310   2.963   5.196   5.866  1.3959 -1.0077  0.2130
 4607TIP3   OH235311   1.389   2.674  13.499 -0.2673 -0.6998 -0.1380
 4607TIP3    H135312   1.399   2.642  13.410 -1.2154 -0.1435 -0.4628
 4607TIP3    H235313   1.477   2.699  13.526 -0.2084  0.8985 -1.6245
 4608TIP3   OH235314   3.589   5.488  11.814 -0.7344  0.5032  0.0987
 4608TIP3    H135315   3.585   5.540  11.894 -4.5408  1.0350 -0.2730
 4608TIP3    H235316   3.591   5.397  11.844 -2.9118  0.6683  0.8854
 4609TIP3   OH235317   4.454   4.917   3.841  0.1817  0.0766  0.3400
 4609TIP3    H135318   4.362   4.895   3.823  0.4768 -0.8181 -0.1444
 4609TIP3    H235319   4.470   4.995   3.788  0.3820 -1.2037 -1.5895
 4610TIP3   OH235320   5.726   6.599   5.844  0.2927  0.1795 -0.0993
 4610TIP3    H135321   5.808   6.588   5.797  0.1364  1.4562 -0.7116
 4610TIP3    H235322   5.667   6.534   5.806  0.9425 -0.6051  0.2062
 4611TIP3   OH235323   3.975   5.180  16.160 -0.2096  0.3744  0.2373
 4611TIP3    H135324   3.975   5.168  16.255  2.1944 -0.7881  0.1560
 4611TIP3    H235325   3.937   5.100  16.126 -0.1531  0.3748  0.1749
 4612TIP3   OH235326   0.306   5.359   5.337 -0.3578 -0.6421 -0.6758
 4612TIP3    H135327   0.276   5.294   5.274  0.3113 -0.8439 -0.7920
 4612TIP3    H235328   0.276   5.443   5.300 -0.2368 -0.7848 -1.1048
 4613TIP3   OH235329   2.272   2.478   4.064  0.3363  0.1062 -0.5967
 4613TIP3    H135330   2.257   2.568   4.095  3.0889  0.2378  0.6896
 4613TIP3    H235331   2.288   2.487   3.970  0.0766  0.8975 -0.5699
 4614TIP3   OH235332   6.267   4.301  11.854 -0.4161 -0.0081  0.2823
 4614TIP3    H135333   6.356   4.319  11.884  0.6228 -1.5842 -1.5940
 4614TIP3    H235334   6.273   4.216  11.810 -3.4834 -1.6532  2.6160
 4615TIP3   OH235335   6.588   2.731   3.439  0.5167  0.1655  0.3954
 4615TIP3    H135336   6.646   2.693   3.373  0.1124 -2.8697  1.6158
 4615TIP3    H235337   6.500   2.722   3.402  0.2717 -1.7013  1.2808
 4616TIP3   OH235338   5.336   5.722   0.837 -0.5143 -0.2421 -0.6089
 4616TIP3    H135339   5.338   5.774   0.917 -0.6553  0.1207 -0.8409
 4616TIP3    H235340   5.336   5.786   0.766 -2.5199 -0.4909 -0.8975
 4617TIP3   OH235341   5.528   4.970  12.173 -0.2092  0.2726 -0.0589
 4617TIP3    H135342   5.530   5.053  12.220  0.0682  0.5298 -0.5217
 4617TIP3    H235343   5.487   4.909  12.234 -0.3915  0.7423  0.2909
 4618TIP3   OH235344   3.555   1.786   5.007 -0.2920 -0.2346 -0.4811
 4618TIP3    H135345   3.511   1.715   5.054 -1.6575  0.7547 -0.1995
 4618TIP3    H235346   3.485   1.847   4.985  0.3239 -0.4477 -3.4841
 4619TIP3   OH235347   4.323   3.907  12.785 -0.2468 -0.5456  0.1598
 4619TIP3    H135348   4.395   3.969  12.794 -0.2770 -0.5714  0.6052
 4619TIP3    H235349   4.358   3.824  12.819 -0.1799 -0.7901 -0.5024
 4620TIP3   OH235350   3.125   5.584  12.763 -0.3069  0.0302  0.1159
 4620TIP3    H135351   3.071   5.654  12.798 -0.0736  0.3813 -0.2226
 4620TIP3    H235352   3.065   5.510  12.752 -0.3315 -0.1800  1.4995
 4621TIP3   OH235353   2.111   1.118   5.422 -0.6366  0.5701 -0.5950
 4621TIP3    H135354   2.042   1.060   5.389 -0.1437 -0.1189 -0.4443
 4621TIP3    H235355   2.188   1.062   5.426 -0.5293  0.8138  1.1159
 4622TIP3   OH235356   4.220   2.254  13.708 -0.1553  0.0577  0.8953
 4622TIP3    H135357   4.263   2.283  13.789 -1.9982  0.7153  1.7090
 4622TIP3    H235358   4.139   2.212  13.738 -0.8510  0.2745 -0.6073
 4623TIP3   OH235359   4.495   2.774   1.472 -0.3670 -0.1858  0.3874
 4623TIP3    H135360   4.570   2.822   1.507  0.7248 -1.1414 -0.5378
 4623TIP3    H235361   4.517   2.682   1.485 -2.3629 -0.4876  1.9971
 4624TIP3   OH235362   2.355   3.110  12.546  0.8175 -0.1037  0.7802
 4624TIP3    H135363   2.366   3.201  12.519  0.1554 -0.1453  0.3444
 4624TIP3    H235364   2.422   3.097  12.613  0.0346  1.1022  1.8315
 4625TIP3   OH235365   3.074   3.240  14.262  0.8503  0.3086 -0.1008
 4625TIP3    H135366   2.996   3.262  14.314  1.5169  0.0815  1.0435
 4625TIP3    H235367   3.092   3.148  14.283  0.1235 -0.3494 -2.1382
 4626TIP3   OH235368   3.421   3.466   5.367  0.2444  0.1294 -0.0829
 4626TIP3    H135369   3.470   3.542   5.335  1.3071 -0.0582  1.0109
 4626TIP3    H235370   3.390   3.492   5.454 -0.6593 -0.1612 -0.3113
 4627TIP3   OH235371   3.437   3.979  11.957  0.3602  0.5177  0.4193
 4627TIP3    H135372   3.489   3.920  11.903  0.6606  0.1414  1.1075
 4627TIP3    H235373   3.348   3.973  11.921  0.5291  0.1735  0.0562
 4628TIP3   OH235374   3.500   1.127  15.194 -0.0251  0.4619  1.0210
 4628TIP3    H135375   3.440   1.181  15.142 -0.0741  0.9699  1.5984
 4628TIP3    H235376   3.443   1.083  15.258  0.3596  2.0268  2.4964
 4629TIP3   OH235377   6.150   1.676   0.688  0.2630 -0.1287  0.2950
 4629TIP3    H135378   6.073   1.651   0.637  2.0623 -1.0751 -2.1585
 4629TIP3    H235379   6.169   1.766   0.660  1.4484 -0.7626 -1.1107
 4630TIP3   OH235380   4.267   0.017   1.189 -0.0158 -0.0717 -0.4934
 4630TIP3    H135381   4.358  -0.007   1.210 -0.0309  0.4192  0.1584
 4630TIP3    H235382   4.230   0.046   1.272 -0.7956 -0.3352 -0.7457
 4631TIP3   OH235383   6.084   1.496   5.818 -0.9154 -0.3209  0.1784
 4631TIP3    H135384   6.153   1.483   5.883 -2.6890  1.5918  2.6027
 4631TIP3    H235385   6.087   1.416   5.765  2.4536 -0.7450  0.7662
 4632TIP3   OH235386   2.869   0.913  11.425  0.1371  0.3161 -0.0455
 4632TIP3    H135387   2.834   0.830  11.459 -1.6790  0.2036 -1.9626
 4632TIP3    H235388   2.792   0.959  11.391  1.4069  1.8027 -1.0478
 4633TIP3   OH235389   4.661   2.637   1.713  0.3457 -0.3160 -0.7029
 4633TIP3    H135390   4.653   2.639   1.617 -0.3458  1.9234 -0.6661
 4633TIP3    H235391   4.750   2.669   1.730 -0.1270  0.9886 -0.5915
 4634TIP3   OH235392   1.863   3.584   0.680  0.2365  0.1418 -0.2198
 4634TIP3    H135393   1.940   3.612   0.631 -0.9350 -0.3508 -2.4810
 4634TIP3    H235394   1.870   3.489   0.684  0.3448  0.1777  0.6652
 4635TIP3   OH235395   4.601   2.058  16.630 -0.8595 -0.1782  0.4164
 4635TIP3    H135396   4.662   2.017  16.569 -0.4774  0.6416  0.2315
 4635TIP3    H235397   4.549   2.117  16.576 -1.4619 -0.4701  0.6645
 4636TIP3   OH235398   0.649   2.561  11.121 -0.5248 -0.0336 -0.4874
 4636TIP3    H135399   0.738   2.548  11.089 -0.7314 -0.1497 -1.0263
 4636TIP3    H235400   0.601   2.596  11.046 -0.6236  1.2955  0.1653
 4637TIP3   OH235401   2.656   0.885   4.105  0.0935  0.0060 -0.3912
 4637TIP3    H135402   2.620   0.846   4.185  0.9637 -0.3475 -0.1566
 4637TIP3    H235403   2.580   0.923   4.061 -0.5737 -0.7915  0.0319
 4638TIP3   OH235404   2.510   5.612   5.571 -0.3591  0.6300  0.0443
 4638TIP3    H135405   2.483   5.673   5.640 -2.3843 -1.2515  1.0442
 4638TIP3    H235406   2.585   5.566   5.609 -0.5541  0.6007  0.4033
 4639TIP3   OH235407   4.524   4.684   4.664  0.1087 -0.8271 -0.0317
 4639TIP3    H135408   4.577   4.717   4.591 -0.7740  1.2408  0.1991
 4639TIP3    H235409   4.534   4.750   4.733 -1.4635 -1.2193  0.6195
 4640TIP3   OH235410   0.044   1.859   4.792 -0.4535 -0.5794  0.7939
 4640TIP3    H135411   0.061   1.927   4.727  1.6944 -0.9353  0.9108
 4640TIP3    H235412  -0.050   1.867   4.811 -0.6303  1.1259 -0.5254
 4641TIP3   OH235413   0.165   2.522   3.213  0.1742 -0.0726 -0.5116
 4641TIP3    H135414   0.174   2.427   3.210 -1.3250 -0.2364 -0.7401
 4641TIP3    H235415   0.126   2.540   3.299 -0.1365  0.2637 -0.7191
 4642TIP3   OH235416   0.200   4.660   0.224  0.0795 -0.1544 -0.4563
 4642TIP3    H135417   0.242   4.719   0.286 -1.1275 -0.2242  0.4539
 4642TIP3    H235418   0.210   4.703   0.139 -0.4404  1.1735  0.1395
 4643TIP3   OH235419   5.886   2.586  15.161  0.5554 -0.0049  0.1693
 4643TIP3    H135420   5.827   2.661  15.171  0.1486 -0.1811 -0.8221
 4643TIP3    H235421   5.909   2.561  15.250 -2.0060 -0.8372  0.6706
 4644TIP3   OH235422   2.664   1.139   4.435 -0.1461 -0.4960 -0.1950
 4644TIP3    H135423   2.754   1.146   4.404 -0.2311 -0.3469 -0.4036
 4644TIP3    H235424   2.667   1.172   4.525 -0.0667 -0.1461 -0.3289
 4645TIP3   OH235425   3.757   2.614  13.189 -0.1507  0.3344  0.2703
 4645TIP3    H135426   3.741   2.529  13.230 -0.8499 -0.1659 -0.9942
 4645TIP3    H235427   3.740   2.599  13.096  0.5286  1.6601 -0.0851
 4646TIP3   OH235428   3.921   1.088   2.362  0.0287 -0.3101  0.1969
 4646TIP3    H135429   3.952   1.057   2.447 -1.3422  0.1361  0.9010
 4646TIP3    H235430   3.923   1.010   2.306 -0.3325 -0.9358  1.0283
 4647TIP3   OH235431   5.131   3.783  10.720 -0.3227  0.1690  0.1647
 4647TIP3    H135432   5.196   3.789  10.650 -0.5296  0.2411 -0.0228
 4647TIP3    H235433   5.047   3.783  10.674 -0.5518  2.0769  0.4768
 4648TIP3   OH235434   6.036   5.918   3.697 -1.2304 -0.5097 -0.3225
 4648TIP3    H135435   5.992   5.833   3.693 -1.4009 -0.6087  2.0187
 4648TIP3    H235436   5.991   5.965   3.768 -0.6204  1.2359 -1.0295
 4649TIP3   OH235437   1.131   3.059  13.222  0.5476 -0.4645 -0.2872
 4649TIP3    H135438   1.095   3.137  13.264  0.8987  0.3505 -1.4504
 4649TIP3    H235439   1.148   2.999  13.295 -0.3469  0.2737  0.5680
 4650TIP3   OH235440   2.748   3.941   2.161  0.1489 -0.7469 -0.2930
 4650TIP3    H135441   2.661   3.923   2.126  0.0920  1.1334 -1.2247
 4650TIP3    H235442   2.808   3.907   2.095  0.1708 -2.0477  0.3515
 4651TIP3   OH235443   1.523   3.816  13.847 -0.1490  0.2219  0.1606
 4651TIP3    H135444   1.538   3.843  13.938  2.7130  0.1975 -0.2041
 4651TIP3    H235445   1.600   3.763  13.826 -1.0526 -0.2711 -2.1096
 4652TIP3   OH235446   0.694   1.054   1.024 -0.5264 -0.0025  0.3269
 4652TIP3    H135447   0.634   0.985   1.054  0.1511 -0.8709 -0.2395
 4652TIP3    H235448   0.763   1.055   1.091  0.1010 -0.7555 -0.2821
 4653TIP3   OH235449   1.485   4.567  15.515 -0.4705  0.1187 -0.3200
 4653TIP3    H135450   1.396   4.533  15.511 -1.7055  2.8290  1.2489
 4653TIP3    H235451   1.475   4.662  15.505  2.1046  0.6382  1.1798
 4654TIP3   OH235452   1.462   4.098   0.320  0.4646  0.0293  0.2959
 4654TIP3    H135453   1.536   4.143   0.279  1.1526 -0.0505  1.4290
 4654TIP3    H235454   1.387   4.121   0.264  1.3250  0.0992 -0.8776
 4655TIP3   OH235455   1.243   2.809  14.434  0.1739 -0.2356 -0.1763
 4655TIP3    H135456   1.213   2.864  14.506 -1.9296 -0.7464 -0.5794
 4655TIP3    H235457   1.294   2.740  14.475  0.2710  0.3145  0.6533
 4656TIP3   OH235458   6.183   2.629   3.219 -0.3557 -0.2248  0.3298
 4656TIP3    H135459   6.269   2.590   3.236 -0.6900 -0.3857  1.7792
 4656TIP3    H235460   6.123   2.580   3.276 -1.6100 -0.8177 -1.3976
 4657TIP3   OH235461   4.964   4.790  12.948 -0.7228 -0.2418  0.0657
 4657TIP3    H135462   4.949   4.698  12.967 -1.4113 -0.0685  0.4379
 4657TIP3    H235463   5.040   4.814  13.002 -0.7731 -0.5025  0.2538
 4658TIP3   OH235464   4.923   2.991  16.109 -0.3260  0.1037 -0.1998
 4658TIP3    H135465   4.974   2.954  16.181 -0.2415  0.9221  0.1817
 4658TIP3    H235466   4.832   2.983  16.137 -0.3534 -0.4704 -0.4457
 4659TIP3   OH235467   1.132   0.634  12.245  0.5322 -0.1598  0.2471
 4659TIP3    H135468   1.156   0.590  12.326  1.4278 -0.1025  0.0195
 4659TIP3    H235469   1.215   0.662  12.206  0.0630  0.5997 -0.2500
 4660TIP3   OH235470   5.672   4.674   1.858  0.7614  0.1857 -0.0758
 4660TIP3    H135471   5.597   4.617   1.842 -2.2534  3.1955  1.9001
 4660TIP3    H235472   5.686   4.720   1.775 -1.4370  1.4158  0.1518
 4661TIP3   OH235473   0.613   0.223   3.124 -0.2063  0.6965  0.3481
 4661TIP3    H135474   0.695   0.193   3.085 -0.4146  1.1853 -0.4772
 4661TIP3    H235475   0.572   0.277   3.056 -0.1928  2.2477  1.5220
 4662TIP3   OH235476   4.606   1.369  11.212 -0.1304 -0.0618 -0.6664
 4662TIP3    H135477   4.604   1.451  11.260  0.5502  0.4629 -1.4994
 4662TIP3    H235478   4.528   1.322  11.241  0.6524 -0.1165  1.5145
 4663TIP3   OH235479   3.743   5.907  11.095  0.2304  0.5963 -0.5953
 4663TIP3    H135480   3.776   5.971  11.158  0.5398  0.2018 -0.3516
 4663TIP3    H235481   3.769   5.942  11.010 -0.3041  1.1978 -0.5162
 4664TIP3   OH235482   3.226   2.191   3.329  0.5617  0.2316  0.3872
 4664TIP3    H135483   3.237   2.261   3.394  1.6040  0.0176  0.4478
 4664TIP3    H235484   3.246   2.233   3.245  0.3910  0.1992  0.3283
 4665TIP3   OH235485   0.988   1.564  12.305  0.0955  0.3465  0.2097
 4665TIP3    H135486   0.919   1.538  12.244  0.7159 -0.9068  0.0095
 4665TIP3    H235487   1.068   1.524  12.270  0.3586 -0.9932  2.1861
 4666TIP3   OH235488   2.195   3.515   5.276 -0.4496 -0.1235 -0.0543
 4666TIP3    H135489   2.287   3.495   5.294 -0.8586 -1.0799  1.1243
 4666TIP3    H235490   2.150   3.431   5.283 -1.0921 -0.1147 -3.0475
 4667TIP3   OH235491   6.440   4.447  13.413  0.1852  0.2996  0.0136
 4667TIP3    H135492   6.407   4.439  13.502 -0.9721 -0.0484 -0.4183
 4667TIP3    H235493   6.524   4.402  13.413 -0.1505 -0.3390  0.7511
 4668TIP3   OH235494   3.973   4.292  15.175  0.0448  0.2310 -0.2461
 4668TIP3    H135495   3.943   4.371  15.130 -1.6908 -0.3868 -0.2586
 4668TIP3    H235496   3.972   4.225  15.108  0.2878 -0.0675  0.0482
 4669TIP3   OH235497   1.971   3.280   1.506 -0.3139  0.3135 -0.0667
 4669TIP3    H135498   2.008   3.330   1.579  0.8880 -0.6970  0.0525
 4669TIP3    H235499   2.006   3.191   1.517 -0.0469  0.1400 -1.8908
 4670TIP3   OH235500   5.012   1.310   2.961 -0.1551  0.2958 -0.2526
 4670TIP3    H135501   4.968   1.386   2.999 -1.9038 -0.1429 -1.2763
 4670TIP3    H235502   4.961   1.289   2.883  0.3064 -1.8793 -0.0411
 4671TIP3   OH235503   2.835   3.145   0.283 -0.5514 -0.3126 -0.3147
 4671TIP3    H135504   2.812   3.179   0.369 -2.2966 -2.0763 -0.0152
 4671TIP3    H235505   2.834   3.222   0.226 -0.6433  0.6843  0.9823
 4672TIP3   OH235506   6.294   6.656   5.931  0.1080 -0.4689 -0.5835
 4672TIP3    H135507   6.258   6.740   5.901  3.4635  1.2154 -0.3548
 4672TIP3    H235508   6.317   6.671   6.022  0.4570 -1.7611 -0.4461
 4673TIP3   OH235509   5.397   0.921  16.124 -0.3297 -0.0820  0.3507
 4673TIP3    H135510   5.490   0.901  16.115 -0.6202 -0.7423 -1.5520
 4673TIP3    H235511   5.395   1.013  16.150  0.8575 -0.1200  0.6333
 4674TIP3   OH235512   6.292   2.121  14.042 -0.0427  0.1708  0.6771
 4674TIP3    H135513   6.313   2.214  14.037  1.7873 -0.2097  0.5125
 4674TIP3    H235514   6.221   2.109  13.979  0.5188  1.2374 -0.1849
 4675TIP3   OH235515   1.000   3.417   4.683  0.3305  0.1537  0.6350
 4675TIP3    H135516   0.976   3.374   4.601  1.5587  0.4439  0.0994
 4675TIP3    H235517   0.998   3.348   4.748 -1.2014  0.0265  0.4958
 4676TIP3   OH235518   1.691   2.845   4.845  0.0666 -0.3867 -0.6183
 4676TIP3    H135519   1.650   2.776   4.792 -0.3909  0.2149 -1.0669
 4676TIP3    H235520   1.643   2.844   4.927 -0.2519 -0.2922 -0.8014
 4677TIP3   OH235521   1.348   4.828  16.626 -0.4357  0.0497 -0.1638
 4677TIP3    H135522   1.312   4.744  16.654 -0.2113 -0.1685 -0.5296
 4677TIP3    H235523   1.433   4.833  16.671  0.7599 -1.1230 -2.1628
 4678TIP3   OH235524   3.353   5.487  13.845 -0.5888 -0.2028 -0.0357
 4678TIP3    H135525   3.261   5.516  13.849 -0.1093  1.3316  0.6188
 4678TIP3    H235526   3.398   5.544  13.907  1.2961  1.0108 -2.3528
 4679TIP3   OH235527   5.410   0.797   4.521  0.7861 -0.6073 -0.7240
 4679TIP3    H135528   5.454   0.831   4.599  2.0029  0.3147 -1.7679
 4679TIP3    H235529   5.457   0.717   4.500  0.3260 -0.9659 -0.4108
 4680TIP3   OH235530   4.228   5.685  10.487  0.4200  0.2135  0.0462
 4680TIP3    H135531   4.209   5.746  10.558  1.4083  0.1851  0.3583
 4680TIP3    H235532   4.266   5.608  10.531  1.2662  0.2914 -0.5130
 4681TIP3   OH235533   1.775   4.018  14.333  0.0784 -0.0657 -0.0545
 4681TIP3    H135534   1.812   4.015  14.421 -0.0569 -0.5230 -0.0094
 4681TIP3    H235535   1.822   3.949  14.285  0.1928  0.2186 -0.3554
 4682TIP3   OH235536   2.858   6.640  15.305  0.1277 -0.0166  0.2393
 4682TIP3    H135537   2.863   6.670  15.395  0.5090  0.2388  0.1388
 4682TIP3    H235538   2.830   6.549  15.311  0.9126 -0.2375  0.6629
 4683TIP3   OH235539   6.475   1.965   2.971 -0.0062 -0.4339 -0.5021
 4683TIP3    H135540   6.407   1.925   2.918 -1.5005  0.5285  0.6068
 4683TIP3    H235541   6.448   1.949   3.062  0.6516  0.8870 -0.0381
 4684TIP3   OH235542   6.776   1.207  14.728 -0.0251  0.3242  0.3638
 4684TIP3    H135543   6.868   1.234  14.729 -0.0123  0.4248 -1.0399
 4684TIP3    H235544   6.735   1.264  14.663 -0.5844 -1.2445 -0.7205
 4685TIP3   OH235545   3.157   5.155   3.705  1.0173 -0.5435  0.1865
 4685TIP3    H135546   3.064   5.154   3.683  0.7036 -0.8538  1.4276
 4685TIP3    H235547   3.188   5.240   3.673  0.0025  0.1221  0.9066
 4686TIP3   OH235548   4.526   4.438   3.276  0.0803 -0.3451 -0.3484
 4686TIP3    H135549   4.481   4.517   3.246 -0.4545 -0.2306  0.7115
 4686TIP3    H235550   4.602   4.470   3.324 -0.7835 -0.4130  1.1154
 4687TIP3   OH235551   2.161   3.934   4.060  0.5537  0.3753 -0.4446
 4687TIP3    H135552   2.136   4.020   4.094  0.5873 -0.1843  1.1025
 4687TIP3    H235553   2.247   3.917   4.099 -0.1296 -1.0066  0.5396
 4688TIP3   OH235554   0.717   4.983   0.007  0.2993 -0.3373  0.1000
 4688TIP3    H135555   0.812   4.991   0.016  0.2492  1.2907 -0.5157
 4688TIP3    H235556   0.683   5.065   0.042 -0.8665 -0.7642 -0.0001
 4689TIP3   OH235557   1.698   5.145   1.527 -0.0990 -0.7759  0.2152
 4689TIP3    H135558   1.636   5.086   1.571 -0.9489  0.5934  0.9082
 4689TIP3    H235559   1.702   5.112   1.437 -3.5045  0.2755 -0.4758
 4690TIP3   OH235560   3.182   6.155   0.600  1.2587  0.1468  0.2726
 4690TIP3    H135561   3.176   6.232   0.543  0.0913  1.2453  1.7937
 4690TIP3    H235562   3.242   6.097   0.555  3.6040  2.6580 -0.1371
 4691TIP3   OH235563   0.503   0.362   2.933  0.1287 -0.1162 -0.0134
 4691TIP3    H135564   0.417   0.350   2.974 -0.2287 -0.9974 -0.9946
 4691TIP3    H235565   0.484   0.378   2.841  1.0379 -1.1034 -0.3908
 4692TIP3   OH235566   4.450   4.983  12.135 -0.5877 -0.3697  0.0597
 4692TIP3    H135567   4.446   4.997  12.229 -0.7982 -1.0455  0.1566
 4692TIP3    H235568   4.372   5.026  12.101 -0.6586 -0.3640  0.2292
 4693TIP3   OH235569   1.821   2.120  11.734  0.1001  0.0603  0.1277
 4693TIP3    H135570   1.738   2.135  11.689 -0.0422  2.2249  0.9997
 4693TIP3    H235571   1.798   2.110  11.826  0.4315 -3.8814 -0.0549
 4694TIP3   OH235572   6.318   2.906   0.651  0.1265  0.2215 -1.1104
 4694TIP3    H135573   6.325   2.881   0.559  1.1142  3.6074 -2.1111
 4694TIP3    H235574   6.246   2.968   0.653  1.3801  1.7185 -0.0468
 4695TIP3   OH235575   3.356   3.121  15.737  0.5729 -0.2077  0.2098
 4695TIP3    H135576   3.370   3.134  15.643 -0.2930  2.2856  0.3465
 4695TIP3    H235577   3.281   3.063  15.742 -0.1088  0.5642 -0.6851
 4696TIP3   OH235578   3.144   5.502   3.326  0.0655 -1.0764  0.0196
 4696TIP3    H135579   3.134   5.513   3.231 -0.2802 -0.3883  0.1237
 4696TIP3    H235580   3.215   5.562   3.349  0.5783 -1.7123  0.1087
 4697TIP3   OH235581   2.194   3.892  13.231 -0.1770 -0.2167  0.3915
 4697TIP3    H135582   2.190   3.840  13.150  0.4510 -0.4616  0.5178
 4697TIP3    H235583   2.102   3.913  13.250 -0.3199 -0.0290 -0.4674
 4698TIP3   OH235584   6.719   1.577  17.218 -0.1868 -0.0696 -0.3160
 4698TIP3    H135585   6.779   1.609  17.285  0.3431  1.1088 -1.3244
 4698TIP3    H235586   6.725   1.641  17.147 -2.3768 -0.1020 -0.6045
 4699TIP3   OH235587   6.014   5.011  12.747 -0.2531  0.2776 -0.0329
 4699TIP3    H135588   5.986   5.059  12.669  1.5123 -0.0930 -0.9204
 4699TIP3    H235589   6.098   5.049  12.770  0.4460 -1.3154  0.1709
 4700TIP3   OH235590   2.117   4.261   0.081  0.2007  0.4157  0.1406
 4700TIP3    H135591   2.027   4.251   0.111  0.0863  0.9694  0.0067
 4700TIP3    H235592   2.112   4.330   0.015  0.7847  0.7502  0.4335
 4701TIP3   OH235593   5.527   1.943  16.355 -0.4030  0.1309  0.0064
 4701TIP3    H135594   5.524   1.938  16.260 -2.0225 -0.0322  0.0405
 4701TIP3    H235595   5.541   1.853  16.384 -1.0538 -0.0029 -0.0679
 4702TIP3   OH235596   3.453   0.785   0.774 -0.1176  0.9178  0.1066
 4702TIP3    H135597   3.452   0.718   0.706  2.7897 -0.7018  1.4674
 4702TIP3    H235598   3.394   0.751   0.842  0.7606  0.0431  0.4614
 4703TIP3   OH235599   4.471   4.729  16.580  0.0182 -0.1575 -0.7008
 4703TIP3    H135600   4.562   4.703  16.569 -0.3098 -0.8815 -1.9782
 4703TIP3    H235601   4.473   4.824  16.586  0.8647 -0.1671 -0.7170
 4704TIP3   OH235602   3.162   2.742   3.729  0.3832  0.4920  0.4001
 4704TIP3    H135603   3.252   2.710   3.721  0.4675  0.4053  1.5025
 4704TIP3    H235604   3.109   2.663   3.737  0.5178  0.5452  2.4171
 4705TIP3   OH235605   5.619   1.163  11.708 -0.7588  0.0593 -0.2138
 4705TIP3    H135606   5.535   1.177  11.752 -1.0005  2.0760 -1.1824
 4705TIP3    H235607   5.622   1.232  11.642  0.8067 -1.1919 -1.5079
 4706TIP3   OH235608   2.412   4.137  16.125 -0.0684  0.1480 -0.4233
 4706TIP3    H135609   2.408   4.188  16.206 -1.6338 -1.3254  0.4926
 4706TIP3    H235610   2.348   4.067  16.137  0.8216 -1.0852 -2.2865
 4707TIP3   OH235611   6.402   5.178   6.455 -0.1319  0.2777  0.2145
 4707TIP3    H135612   6.448   5.247   6.409 -0.1525  0.8188  0.9871
 4707TIP3    H235613   6.346   5.224   6.518 -0.8622 -0.4037  0.0857
 4708TIP3   OH235614   3.351   3.290  14.618  0.0867  0.8145  0.4282
 4708TIP3    H135615   3.378   3.254  14.534  0.7610  1.2973  0.4279
 4708TIP3    H235616   3.266   3.331  14.602 -0.0797  0.3583  0.1350
 4709TIP3   OH235617   0.562   0.547   3.205  0.4899  0.7455  0.4778
 4709TIP3    H135618   0.556   0.632   3.250  0.7057  0.7801  0.4442
 4709TIP3    H235619   0.480   0.503   3.226 -0.1870  1.4610 -0.5262
 4710TIP3   OH235620   5.062   1.463  10.546  0.3519 -0.1608 -0.1178
 4710TIP3    H135621   4.987   1.501  10.501 -0.0377  1.4702  1.7918
 4710TIP3    H235622   5.025   1.388  10.593 -0.0168  0.3728  0.4627
 4711TIP3   OH235623   5.736   2.179   5.357 -0.2819  0.0306 -0.1959
 4711TIP3    H135624   5.756   2.117   5.287  2.7895 -0.2255  0.8005
 4711TIP3    H235625   5.709   2.125   5.431 -1.6436  0.1978 -0.5363
 4712TIP3   OH235626   5.540   6.270  13.209  0.1103  0.6439  0.5178
 4712TIP3    H135627   5.634   6.250  13.212  0.0600  0.3977  0.4785
 4712TIP3    H235628   5.500   6.191  13.172 -0.0187  1.0705 -0.2882
 4713TIP3   OH235629   2.479   1.217   0.538 -0.8346 -0.3742  0.6306
 4713TIP3    H135630   2.490   1.312   0.540  2.7245 -0.6122  3.9869
 4713TIP3    H235631   2.391   1.203   0.574 -0.5660  1.6522  2.2686
 4714TIP3   OH235632   4.118   0.163  12.285  0.4043  0.4014 -0.3425
 4714TIP3    H135633   4.026   0.183  12.272  0.4703  0.7029 -0.3493
 4714TIP3    H235634   4.118   0.074  12.320  0.0822  0.5764  0.1173
 4715TIP3   OH235635   2.078   2.778  11.531  0.1547  0.0716  0.1836
 4715TIP3    H135636   2.081   2.856  11.587  1.1743 -0.3805  0.7862
 4715TIP3    H235637   2.160   2.782  11.481  0.3037 -0.7159  0.3635
 4716TIP3   OH235638   3.676   3.352   4.063  0.1420  0.0648 -0.0775
 4716TIP3    H135639   3.662   3.258   4.061  1.3506 -0.1710  0.9660
 4716TIP3    H235640   3.602   3.386   4.114 -1.6740  0.0297 -2.5371
 4717TIP3   OH235641   2.762   2.711   2.946  0.2289  0.3817  0.4816
 4717TIP3    H135642   2.770   2.710   3.042  1.0485 -0.4507  0.4210
 4717TIP3    H235643   2.820   2.782   2.918  0.4466  0.2423  0.5742
 4718TIP3   OH235644   3.769   6.016   5.241  0.2227 -0.3083 -0.7641
 4718TIP3    H135645   3.802   6.089   5.190 -0.7916 -0.6096 -1.8918
 4718TIP3    H235646   3.692   5.986   5.193 -1.3750  0.0210  1.4553
 4719TIP3   OH235647   1.913   1.630   4.166  0.2737 -0.5202 -0.3609
 4719TIP3    H135648   1.954   1.654   4.082  2.5076 -2.2555  0.1333
 4719TIP3    H235649   1.979   1.653   4.231 -1.2911  0.4531  0.9596
 4720TIP3   OH235650   4.945   1.732  12.666 -0.4086  0.1724 -0.5557
 4720TIP3    H135651   4.907   1.669  12.604 -0.8752  0.7806 -0.8976
 4720TIP3    H235652   4.874   1.753  12.725 -0.0694 -0.1080 -0.0425
 4721TIP3   OH235653   4.288   0.453  13.972 -0.7407 -0.5860 -0.3522
 4721TIP3    H135654   4.288   0.531  14.028  0.6017 -0.2997 -0.7145
 4721TIP3    H235655   4.268   0.381  14.031 -1.4971 -0.0321  0.0822
 4722TIP3   OH235656   0.108   0.067   3.211  0.0571 -0.3119 -0.8773
 4722TIP3    H135657   0.132  -0.026   3.213  1.7690  0.1126 -0.0864
 4722TIP3    H235658   0.069   0.079   3.125 -0.6842 -1.8653 -0.8065
 4723TIP3   OH235659   4.079   6.221   6.640  0.3000 -0.1305 -0.1804
 4723TIP3    H135660   4.002   6.235   6.585  0.6544 -1.5654 -1.0970
 4723TIP3    H235661   4.083   6.126   6.652  0.2710  0.1097  2.3016
 4724TIP3   OH235662   2.995   2.057  12.732  0.3050 -0.1639 -0.6692
 4724TIP3    H135663   3.020   1.972  12.695  0.6300 -0.0789 -0.6460
 4724TIP3    H235664   3.071   2.084  12.784  0.1539  0.0838 -0.5772
 4725TIP3   OH235665   6.057   4.908   4.336  0.5265 -0.4292  0.5465
 4725TIP3    H135666   6.025   4.946   4.254 -1.7102  0.3034  1.6761
 4725TIP3    H235667   6.112   4.976   4.373  0.6506 -0.3254  0.1806
 4726TIP3   OH235668   0.104   6.436   2.157 -0.2458  0.4621  0.0867
 4726TIP3    H135669   0.184   6.425   2.105  0.0659  1.6795  0.2740
 4726TIP3    H235670   0.037   6.391   2.106  0.4935 -0.3019 -0.2363
 4727TIP3   OH235671   0.412   5.022  12.097 -0.3123  0.7555 -0.1176
 4727TIP3    H135672   0.318   5.012  12.113 -0.0116 -0.9849  0.7934
 4727TIP3    H235673   0.427   4.977  12.014 -0.4032  1.8263 -0.7330
 4728TIP3   OH235674   1.726   5.502   1.993  0.6831  0.0472 -0.3807
 4728TIP3    H135675   1.714   5.436   1.924 -0.4374 -0.0587 -0.1163
 4728TIP3    H235676   1.803   5.472   2.042  0.6091 -0.6843 -0.6994
 4729TIP3   OH235677   5.251   6.070  16.721 -0.0623  0.2260 -0.0367
 4729TIP3    H135678   5.308   6.039  16.651 -1.1634 -0.9572 -0.4609
 4729TIP3    H235679   5.279   6.021  16.798 -0.9409 -0.9536 -0.4177
 4730TIP3   OH235680   1.435   4.921   5.627 -0.0924  0.4964 -0.5002
 4730TIP3    H135681   1.442   4.949   5.718 -1.2663 -1.8643  0.4099
 4730TIP3    H235682   1.344   4.936   5.603 -0.4516 -1.2085 -0.3731
 4731TIP3   OH235683   4.117   4.320  13.933 -0.2299  0.4980  0.2330
 4731TIP3    H135684   4.181   4.377  13.977  0.8913 -0.5320 -0.0113
 4731TIP3    H235685   4.090   4.258  14.001  1.1424 -0.7949 -0.3517
 4732TIP3   OH235686   5.985   6.366  12.162 -0.4775  0.0399  0.2134
 4732TIP3    H135687   5.922   6.438  12.158  2.6024  2.8814 -0.7516
 4732TIP3    H235688   5.938   6.292  12.123 -3.6435  1.5483  0.8133
 4733TIP3   OH235689   3.427   5.885   1.955  1.1482 -0.8996  0.3955
 4733TIP3    H135690   3.455   5.857   1.868  1.9510 -0.7426  0.5951
 4733TIP3    H235691   3.438   5.807   2.010  0.0899 -1.1678  0.2482
 4734TIP3   OH235692   1.822   4.693   5.555 -0.2975 -0.0386  0.0457
 4734TIP3    H135693   1.877   4.715   5.479  1.3337 -0.6980  0.9824
 4734TIP3    H235694   1.779   4.775   5.579  2.3649  1.2191  0.8968
 4735TIP3   OH235695   1.095   0.950   2.053 -0.2287  0.4249 -1.0581
 4735TIP3    H135696   1.182   0.933   2.088 -0.7682 -0.4211 -0.1040
 4735TIP3    H235697   1.087   0.890   1.979 -0.2405  0.0314 -0.7432
 4736TIP3   OH235698   0.936   5.536  12.208  0.6260 -0.3827 -0.2501
 4736TIP3    H135699   0.901   5.448  12.228  0.1187 -0.3558 -0.9742
 4736TIP3    H235700   0.995   5.522  12.135 -2.2616  0.3231 -2.9542
 4737TIP3   OH235701   4.941   0.048  16.574  0.2536 -0.0771 -0.3177
 4737TIP3    H135702   4.893  -0.034  16.572  1.5102 -0.8247 -1.3607
 4737TIP3    H235703   4.966   0.060  16.665 -0.1737 -0.6913 -0.1157
 4738TIP3   OH235704   0.645   2.351  10.913  0.5315  0.1203 -0.2783
 4738TIP3    H135705   0.679   2.343  10.824 -0.2904  1.1540 -0.7029
 4738TIP3    H235706   0.722   2.340  10.969  1.0558 -0.5609 -1.1016
 4739TIP3   OH235707   0.665   3.848   5.949  0.0506  0.2278  0.5248
 4739TIP3    H135708   0.743   3.835   5.894 -0.4230  0.1383 -0.1442
 4739TIP3    H235709   0.685   3.802   6.030  0.7919  0.4078  0.4579
 4740TIP3   OH235710   0.740   2.364  11.714 -0.3696  1.6023 -0.2520
 4740TIP3    H135711   0.691   2.285  11.689  1.1009  0.9110 -1.0444
 4740TIP3    H235712   0.731   2.368  11.809 -0.3395  0.3874 -0.1807
 4741TIP3   OH235713   5.411   4.064   4.563  0.2760  0.3211 -0.6740
 4741TIP3    H135714   5.492   4.036   4.607  0.7443  2.1801 -0.2713
 4741TIP3    H235715   5.349   3.993   4.581  2.1722 -1.8815 -2.2438
 4742TIP3   OH235716   2.207   1.787  10.859 -0.2887  0.3803 -0.0270
 4742TIP3    H135717   2.257   1.852  10.811  1.8033  0.6281  2.2644
 4742TIP3    H235718   2.116   1.811  10.845  0.1802  0.7067 -3.3136
 4743TIP3   OH235719   3.313   3.796   4.677  0.2073 -0.5397  0.6653
 4743TIP3    H135720   3.381   3.851   4.640 -1.8016  1.4447 -0.3544
 4743TIP3    H235721   3.307   3.823   4.769 -0.3584  0.6208  0.3154
 4744TIP3   OH235722   6.737   0.919  11.055  0.2552 -0.2612  0.4441
 4744TIP3    H135723   6.647   0.886  11.053  0.1469  0.0562 -1.1644
 4744TIP3    H235724   6.791   0.843  11.034  0.3008 -0.2521  0.5261
 4745TIP3   OH235725   6.647   3.796   5.155 -0.0704 -0.4443  0.2348
 4745TIP3    H135726   6.727   3.771   5.201 -0.2027  0.5982  1.0614
 4745TIP3    H235727   6.667   3.881   5.116 -0.4116 -0.6978 -0.5292
 4746TIP3   OH235728   6.038   4.228  12.026 -0.2065  0.1761 -0.6104
 4746TIP3    H135729   6.072   4.175  12.098  0.9467  0.4474 -0.9334
 4746TIP3    H235730   6.115   4.247  11.972 -1.0358  0.0937 -1.8459
 4747TIP3   OH235731   5.004   0.609  16.253 -0.0695 -0.4980  0.0317
 4747TIP3    H135732   4.936   0.632  16.190 -1.6055 -2.0653  1.0539
 4747TIP3    H235733   5.068   0.681  16.246 -1.5657  0.7803 -1.2864
 4748TIP3   OH235734   3.949   6.180  13.941 -0.3545 -0.8062  0.3044
 4748TIP3    H135735   3.974   6.272  13.930  2.1664 -1.3760  0.6219
 4748TIP3    H235736   3.939   6.170  14.036  2.0824 -1.3861  0.5845
 4749TIP3   OH235737   3.107   2.214  12.241  0.0018 -0.2545  0.7975
 4749TIP3    H135738   3.154   2.195  12.160 -1.3293 -0.7602  0.1085
 4749TIP3    H235739   3.032   2.155  12.240 -1.6918  1.7675  0.9100
 4750TIP3   OH235740   5.660   5.334   4.944  0.0568 -0.2853 -0.2345
 4750TIP3    H135741   5.635   5.414   4.989  0.5475 -0.0004 -0.4656
 4750TIP3    H235742   5.744   5.354   4.902 -0.9147 -0.1650 -2.2412
 4751TIP3   OH235743   1.304   5.178  14.412  0.0515  0.2266 -0.0256
 4751TIP3    H135744   1.362   5.239  14.366  0.1759 -1.1000 -1.7300
 4751TIP3    H235745   1.325   5.092  14.375 -2.1552 -0.4629  0.1473
 4752TIP3   OH235746   4.575   3.555  15.164  0.2533 -0.2550 -0.6537
 4752TIP3    H135747   4.519   3.518  15.096  0.4361 -0.7120 -0.5533
 4752TIP3    H235748   4.661   3.561  15.125 -0.2459  2.4171 -1.5446
 4753TIP3   OH235749   2.174   2.256  17.217  0.1607 -0.4369  0.4028
 4753TIP3    H135750   2.184   2.333  17.271  0.3133  0.3410 -0.6980
 4753TIP3    H235751   2.120   2.285  17.143  0.3074 -1.3434 -0.0787
 4754TIP3   OH235752   4.180   3.375  13.260 -0.6929 -0.0596 -0.0902
 4754TIP3    H135753   4.208   3.457  13.301  0.1310 -0.3697 -0.0187
 4754TIP3    H235754   4.250   3.354  13.198 -1.5473 -0.0111 -1.0837
 4755TIP3   OH235755   6.808   2.457   5.522  0.2195  0.2350  0.3885
 4755TIP3    H135756   6.776   2.469   5.433  2.8964 -3.9405 -1.4606
 4755TIP3    H235757   6.895   2.497   5.521  0.3203  0.0449  1.0676
 4756TIP3   OH235758   0.537   3.175   4.319  0.4214  0.2856  0.3275
 4756TIP3    H135759   0.633   3.173   4.325  0.3911 -2.6914  1.3499
 4756TIP3    H235760   0.517   3.130   4.238 -0.1089 -0.7536  1.0092
 4757TIP3   OH235761   1.642   0.272   3.358 -0.6685  0.1149 -0.2239
 4757TIP3    H135762   1.587   0.333   3.309 -2.0154 -0.6945  0.2255
 4757TIP3    H235763   1.674   0.324   3.433 -0.7804  0.6125 -0.5168
 4758TIP3   OH235764   1.354   4.617   2.928 -0.7440  0.0380 -0.1079
 4758TIP3    H135765   1.279   4.663   2.889  0.3591  1.1926 -0.9265
 4758TIP3    H235766   1.418   4.686   2.947  0.8027 -1.0909 -0.9927
 4759TIP3   OH235767   4.302   5.819  16.091  0.0463  0.3564  0.1958
 4759TIP3    H135768   4.330   5.821  15.999 -1.0158  0.1565 -0.1489
 4759TIP3    H235769   4.383   5.816  16.141  0.6456 -2.4950 -0.8002
 4760TIP3   OH235770   1.589   2.580   4.763  0.3152 -0.4210  0.2742
 4760TIP3    H135771   1.676   2.556   4.732 -0.4067 -0.5652 -1.8310
 4760TIP3    H235772   1.565   2.510   4.825  0.9110 -1.4741 -0.6500
 4761TIP3   OH235773   6.260   0.744  12.568 -0.3297 -0.1470 -0.0669
 4761TIP3    H135774   6.279   0.733  12.475  0.4359  3.1207 -0.4257
 4761TIP3    H235775   6.341   0.717  12.612  0.8419  2.0383 -0.7189
 4762TIP3   OH235776   6.057   1.404   0.331 -0.2219 -0.1449 -0.4573
 4762TIP3    H135777   6.004   1.465   0.382  1.6817  0.4412  0.9603
 4762TIP3    H235778   6.058   1.440   0.243 -1.1038  0.5252 -0.2093
 4763TIP3   OH235779   1.473   4.185  13.305 -0.6027  0.1400  0.5050
 4763TIP3    H135780   1.505   4.264  13.260 -0.5847 -0.2921 -0.2690
 4763TIP3    H235781   1.527   4.178  13.384  0.2661  0.2112 -0.0600
 4764TIP3   OH235782   5.188   0.971  13.043 -0.0096 -0.2252  0.4802
 4764TIP3    H135783   5.126   0.942  13.110  0.4122 -0.7655  0.6377
 4764TIP3    H235784   5.269   0.926  13.065  0.1802 -0.2563 -0.2836
 4765TIP3   OH235785   3.535   3.402   5.727  0.1474 -0.2763 -0.7105
 4765TIP3    H135786   3.475   3.469   5.694 -1.0822 -0.3840  1.1453
 4765TIP3    H235787   3.517   3.398   5.821  2.9239 -0.5080 -0.1037
 4766TIP3   OH235788   5.477   0.833   1.740 -0.4232 -0.4428 -0.9703
 4766TIP3    H135789   5.407   0.888   1.773  0.8669  0.0364  1.1899
 4766TIP3    H235790   5.557   0.873   1.774  0.6666 -2.7816 -0.5721
 4767TIP3   OH235791   1.341   2.803   1.592 -0.2612 -0.7403 -0.0229
 4767TIP3    H135792   1.436   2.800   1.580 -0.1893 -1.8726  0.6494
 4767TIP3    H235793   1.320   2.896   1.600  0.6132 -0.3903 -1.4701
 4768TIP3   OH235794   0.516   3.820  11.383 -0.6996 -0.0151  0.3384
 4768TIP3    H135795   0.494   3.735  11.423  0.9086 -0.6126  0.0292
 4768TIP3    H235796   0.465   3.884  11.433 -1.1827 -1.0620  1.2321
 4769TIP3   OH235797   4.878   3.859   0.508 -0.5123  0.4979  0.2327
 4769TIP3    H135798   4.804   3.819   0.461 -0.8090  1.1733  0.1073
 4769TIP3    H235799   4.906   3.931   0.451  0.6330 -0.1130 -0.0019
 4770TIP3   OH235800   4.420   6.562  15.747  0.1614  0.0659 -0.2806
 4770TIP3    H135801   4.382   6.641  15.785 -1.1299 -0.6454 -0.0197
 4770TIP3    H235802   4.487   6.594  15.686  0.1452  1.3219  0.3321
 4771TIP3   OH235803   1.844   2.058  15.733  0.6917  0.1535  0.1080
 4771TIP3    H135804   1.838   2.153  15.724  1.8612  0.3281  1.0056
 4771TIP3    H235805   1.758   2.026  15.705  0.9555  1.2972 -2.2349
 4772TIP3   OH235806   3.397   2.652  14.122  0.2138 -0.6877  0.0029
 4772TIP3    H135807   3.332   2.586  14.098 -0.4234 -0.7236  1.6728
 4772TIP3    H235808   3.408   2.641  14.217  1.1063  0.6981  0.0903
 4773TIP3   OH235809   4.451   6.717  16.559 -0.0061  0.4204 -0.0352
 4773TIP3    H135810   4.467   6.654  16.488 -2.5556 -1.9378  1.3155
 4773TIP3    H235811   4.515   6.693  16.626  0.7705  1.0550 -0.5252
 4774TIP3   OH235812   1.659   3.068   3.166  0.2930  0.3344 -0.2868
 4774TIP3    H135813   1.619   3.037   3.247  1.4739 -0.8794 -0.1272
 4774TIP3    H235814   1.710   3.144   3.192  2.4879 -1.3329  0.6390
 4775TIP3   OH235815   4.478   5.539  15.539 -0.0301  0.1554 -0.0132
 4775TIP3    H135816   4.537   5.598  15.585  3.0508 -1.2070 -1.8588
 4775TIP3    H235817   4.501   5.550  15.447 -0.6512 -2.5096 -0.5620
 4776TIP3   OH235818   4.142   4.659  12.664  0.2401 -0.2603 -0.6258
 4776TIP3    H135819   4.233   4.628  12.666 -0.2196 -1.6587  1.6415
 4776TIP3    H235820   4.114   4.657  12.755 -2.9687 -2.6076 -1.5241
 4777TIP3   OH235821   2.097   4.820  15.487 -0.1436  0.1148  0.3268
 4777TIP3    H135822   2.037   4.750  15.460  0.9106 -0.9888  0.7425
 4777TIP3    H235823   2.045   4.900  15.480 -1.8311 -0.8478  1.1904
 4778TIP3   OH235824   5.517   5.581  16.135  0.2310 -0.4196 -0.5095
 4778TIP3    H135825   5.560   5.651  16.184 -1.7820 -1.1176  2.4888
 4778TIP3    H235826   5.463   5.627  16.071  1.7013  0.5904 -1.0855
 4779TIP3   OH235827   4.075   1.006   5.131  0.7219  0.1131 -0.2193
 4779TIP3    H135828   4.149   1.035   5.185 -0.7545  0.7837  1.5338
 4779TIP3    H235829   4.086   1.055   5.049  1.5558  1.1465  0.4669
 4780TIP3   OH235830   0.543   6.561  14.112  0.2518  0.0941  0.7914
 4780TIP3    H135831   0.585   6.572  14.026 -2.2787  1.1488 -0.4213
 4780TIP3    H235832   0.546   6.648  14.151 -1.1892  0.3414  0.4255
 4781TIP3   OH235833   1.346   2.193  13.654  0.6523 -0.4366  0.1235
 4781TIP3    H135834   1.252   2.206  13.661  0.3720 -0.7676 -2.2171
 4781TIP3    H235835   1.367   2.130  13.723 -0.7187  0.1523  1.1068
 4782TIP3   OH235836   5.418   4.457   4.605 -0.2587 -0.2084 -0.1170
 4782TIP3    H135837   5.352   4.390   4.588 -1.2773  1.1565 -1.7676
 4782TIP3    H235838   5.450   4.483   4.519  1.8438 -0.2055  0.6019
 4783TIP3   OH235839   1.059   2.732  16.917 -0.5942  0.3104 -0.0482
 4783TIP3    H135840   0.991   2.667  16.933 -1.2184  0.7118 -0.9822
 4783TIP3    H235841   1.039   2.804  16.978  0.4739 -0.6079  1.4449
 4784TIP3   OH235842   3.548   3.910   5.000 -0.5556 -0.2542  0.4031
 4784TIP3    H135843   3.599   3.914   5.081 -1.5632 -1.5625  1.1400
 4784TIP3    H235844   3.614   3.896   4.932  0.3432  1.2880  0.9204
 4785TIP3   OH235845   1.082   1.937   3.001  0.7601 -0.0105  0.3595
 4785TIP3    H135846   1.085   1.944   2.906  2.1619 -0.2990  0.3581
 4785TIP3    H235847   1.081   1.843   3.019  0.9559  0.0365  0.6294
 4786TIP3   OH235848   2.096   2.828  14.821  0.4859  0.1303  0.0616
 4786TIP3    H135849   2.123   2.736  14.827 -2.1677 -0.8725 -1.4498
 4786TIP3    H235850   2.068   2.838  14.730 -1.1466  1.8463  0.6940
 4787TIP3   OH235851   1.244   6.000  12.802  0.2349 -0.5317  0.5362
 4787TIP3    H135852   1.268   5.921  12.754 -0.6990 -0.4043 -0.1819
 4787TIP3    H235853   1.222   5.968  12.890  0.9143 -0.9213  0.5689
 4788TIP3   OH235854   3.549   3.244   5.409 -0.2247 -0.0261  0.6711
 4788TIP3    H135855   3.526   3.316   5.350  0.9378 -1.1588 -1.3049
 4788TIP3    H235856   3.627   3.275   5.455  0.9398 -0.3316 -0.9741
 4789TIP3   OH235857   3.450   3.149  14.144  0.1357 -0.7152  0.0368
 4789TIP3    H135858   3.395   3.227  14.133  0.6925 -0.2927  0.2597
 4789TIP3    H235859   3.387   3.076  14.141 -0.4384 -0.2428  0.2538
 4790TIP3   OH235860   5.897   4.286   1.682 -0.0234  0.1703  0.8856
 4790TIP3    H135861   5.917   4.220   1.616 -1.4635 -0.5081  1.0924
 4790TIP3    H235862   5.806   4.312   1.662  0.6963  2.5806  0.3838
 4791TIP3   OH235863   6.118   2.481  15.085 -0.0568 -0.2273  0.2205
 4791TIP3    H135864   6.069   2.557  15.116  0.2524  0.1154 -0.1170
 4791TIP3    H235865   6.210   2.508  15.090  0.0584 -0.6023  0.1608
 4792TIP3   OH235866   3.749   3.912   0.317 -0.4428 -0.1640 -0.2986
 4792TIP3    H135867   3.768   4.006   0.322 -0.4700 -0.0137 -2.2565
 4792TIP3    H235868   3.811   3.878   0.252  0.1225 -1.6846  0.9718
 4793TIP3   OH235869   5.632   3.252  14.964 -0.2083 -0.1925  0.0999
 4793TIP3    H135870   5.705   3.297  15.007 -0.2796 -0.3390  0.3759
 4793TIP3    H235871   5.663   3.162  14.955  1.1724  0.4809 -3.1797
 4794TIP3   OH235872   5.507   6.604  13.510  0.4376 -0.0164  0.4059
 4794TIP3    H135873   5.491   6.693  13.541 -0.0891  0.0404 -0.0050
 4794TIP3    H235874   5.574   6.569  13.569 -1.4519 -0.3722  2.4555
 4795TIP3   OH235875   6.808   5.064   2.095  0.3240 -0.1487  0.1123
 4795TIP3    H135876   6.750   5.049   2.021  0.2797  1.1702 -0.1547
 4795TIP3    H235877   6.894   5.078   2.055  0.4981 -0.4386  0.3827
 4796TIP3   OH235878   1.796   2.772  16.316  0.2375  0.1130 -0.1523
 4796TIP3    H135879   1.728   2.796  16.379  0.4603 -0.4428  0.3043
 4796TIP3    H235880   1.764   2.806  16.233 -1.6243 -1.8778 -0.3589
 4797TIP3   OH235881   3.860   2.836   0.627  0.1906  0.0507  0.0396
 4797TIP3    H135882   3.777   2.836   0.675 -0.3906  2.2435 -0.8386
 4797TIP3    H235883   3.841   2.786   0.548  0.1920 -0.7648  0.5374
 4798TIP3   OH235884   6.139   4.599  14.349  0.0803  0.0033  0.3141
 4798TIP3    H135885   6.064   4.611  14.407  0.8699 -4.1257  2.5674
 4798TIP3    H235886   6.215   4.618  14.404  0.8367  1.5641 -1.1720
 4799TIP3   OH235887   2.049   3.646   1.491  0.2871 -0.0285  0.1350
 4799TIP3    H135888   2.025   3.628   1.582 -0.5397 -2.1332 -0.4392
 4799TIP3    H235889   2.076   3.561   1.457 -3.9124 -0.4668 -2.8700
 4800TIP3   OH235890   4.372   6.738  11.679  0.3011 -0.5089 -0.4760
 4800TIP3    H135891   4.443   6.777  11.730 -1.0564  0.1456  0.9885
 4800TIP3    H235892   4.336   6.671  11.737  0.1567 -1.3347 -1.4919
 4801TIP3   OH235893   5.753   4.944   5.115  0.2921 -0.2953 -0.4281
 4801TIP3    H135894   5.718   4.951   5.027 -1.1937  0.2404  0.1719
 4801TIP3    H235895   5.848   4.947   5.104  0.1141  0.2364 -1.9560
 4802TIP3   OH235896   4.971   3.289  16.041 -0.3120 -0.1296  0.6706
 4802TIP3    H135897   4.927   3.364  16.080 -0.3896  0.3390 -0.2914
 4802TIP3    H235898   4.912   3.215  16.058 -0.1919 -0.0040  1.6918
 4803TIP3   OH235899   1.109   5.825  11.616  0.0468  0.0015 -0.6133
 4803TIP3    H135900   1.083   5.750  11.670 -1.7126  0.6153 -0.5332
 4803TIP3    H235901   1.068   5.808  11.531  0.4967  0.3852 -0.9089
 4804TIP3   OH235902   5.982   3.035   4.637 -0.1452  0.3483 -0.0677
 4804TIP3    H135903   5.993   2.953   4.686 -2.4728  0.4151  0.6745
 4804TIP3    H235904   5.940   3.009   4.555  1.0549  0.5795 -0.7724
 4805TIP3   OH235905   0.643   2.046  12.426 -0.3958 -0.0387  0.0582
 4805TIP3    H135906   0.733   2.068  12.450  0.2998 -1.9332 -0.5996
 4805TIP3    H235907   0.644   2.043  12.330 -1.6254  1.5882 -0.0485
 4806TIP3   OH235908   6.132   2.004   5.297  0.0249  0.1632 -0.0605
 4806TIP3    H135909   6.061   1.941   5.309 -0.3450  0.2340 -1.6449
 4806TIP3    H235910   6.102   2.083   5.341 -1.2846  0.4590 -1.4251
 4807TIP3   OH235911   2.882   0.418   2.606  0.3402 -0.1081 -0.3558
 4807TIP3    H135912   2.837   0.336   2.627 -1.7881  0.9625 -0.4520
 4807TIP3    H235913   2.947   0.428   2.676  0.1239 -1.4837  0.0780
 4808TIP3   OH235914   1.228   2.099   4.938  0.3028  0.3583 -0.6608
 4808TIP3    H135915   1.220   2.010   4.903  0.4356  0.4639 -0.9643
 4808TIP3    H235916   1.147   2.142   4.910  1.0802  0.8949 -2.1737
 4809TIP3   OH235917   0.307   0.718  17.097 -0.0985  0.1338  0.1679
 4809TIP3    H135918   0.359   0.654  17.146  0.0745 -0.4713 -0.7909
 4809TIP3    H235919   0.263   0.667  17.030 -0.0233  1.0196 -0.5697
 4810TIP3   OH235920   4.092   4.773   3.155 -0.2790  0.0147 -0.2510
 4810TIP3    H135921   4.101   4.678   3.160 -0.7406 -0.1931 -2.5083
 4810TIP3    H235922   4.143   4.806   3.230  2.0651 -1.8887 -0.8980
 4811TIP3   OH235923   5.584   3.703   3.742 -0.2116 -0.4686  0.1290
 4811TIP3    H135924   5.512   3.655   3.701 -1.8245  0.7231  1.4453
 4811TIP3    H235925   5.573   3.688   3.836  1.4136 -0.4311  0.3657
 4812TIP3   OH235926   1.255   6.278   3.054  0.0418 -0.3596  0.0832
 4812TIP3    H135927   1.341   6.321   3.057  0.0257 -0.1962 -1.3100
 4812TIP3    H235928   1.192   6.350   3.061  0.0187 -0.1253 -1.9171
 4813TIP3   OH235929   5.249   3.192  13.123  0.5586  0.4985  0.0072
 4813TIP3    H135930   5.333   3.222  13.158 -0.3188  0.6512  2.1321
 4813TIP3    H235931   5.196   3.271  13.115  0.0274  0.1925  0.4224
 4814TIP3   OH235932   2.569   5.376  15.998 -0.3323  0.4905  0.7264
 4814TIP3    H135933   2.625   5.342  15.928  1.1901  2.5040  0.8623
 4814TIP3    H235934   2.535   5.458  15.964 -1.4139  0.4025  1.5279
 4815TIP3   OH235935   3.346   1.551   3.368 -0.3871  0.1421  0.5377
 4815TIP3    H135936   3.406   1.607   3.416  1.0046 -0.8867  0.0490
 4815TIP3    H235937   3.325   1.600   3.288  1.7154 -0.4329 -0.4381
 4816TIP3   OH235938   1.060   0.745  15.096 -0.0946 -0.7336 -0.2159
 4816TIP3    H135939   1.000   0.745  15.170 -0.5522 -2.2343 -0.5612
 4816TIP3    H235940   1.017   0.800  15.031  1.0254  1.9221  1.1033
 4817TIP3   OH235941   1.220   3.260  14.891 -0.1588 -0.6103  0.6712
 4817TIP3    H135942   1.147   3.289  14.946 -0.1739  0.6888 -0.0171
 4817TIP3    H235943   1.292   3.244  14.953 -1.2924 -3.0376  1.5110
 4818TIP3   OH235944   5.909   4.965   0.411  0.3384 -0.4286  0.0607
 4818TIP3    H135945   5.837   5.025   0.391  2.2760  2.3203  0.6734
 4818TIP3    H235946   5.951   5.003   0.488  2.7057 -1.6147 -0.5598
 4819TIP3   OH235947   0.125   2.187  10.434 -0.2453  0.4572 -0.0267
 4819TIP3    H135948   0.110   2.282  10.430 -1.3411  0.3076  0.2551
 4819TIP3    H235949   0.215   2.178  10.463  0.0333  1.4195 -0.5533
 4820TIP3   OH235950   3.504   0.526  15.762  0.0315  0.2287  0.2433
 4820TIP3    H135951   3.509   0.605  15.708  1.4181 -0.0498 -0.0663
 4820TIP3    H235952   3.410   0.505  15.766 -0.2331  1.1987 -0.6688
 4821TIP3   OH235953   6.090   3.797  16.449  0.0443 -0.5079 -0.2447
 4821TIP3    H135954   6.170   3.774  16.402  1.6925  3.6417  0.1083
 4821TIP3    H235955   6.031   3.830  16.382 -0.3745 -1.0791 -0.1701
 4822TIP3   OH235956   5.898   4.155   2.751  0.5769 -0.1325 -0.0811
 4822TIP3    H135957   5.873   4.246   2.734  2.0924  0.1657 -0.8797
 4822TIP3    H235958   5.929   4.122   2.667 -0.1273 -1.4663  0.1535
 4823TIP3   OH235959   2.333   3.584  12.687 -0.1525 -0.3043 -0.0803
 4823TIP3    H135960   2.397   3.541  12.744  1.4070  1.5018 -0.3531
 4823TIP3    H235961   2.259   3.604  12.745  0.9228  0.4636  1.0781
 4824TIP3   OH235962   3.080   3.936  12.053 -0.3024  0.1673  0.0748
 4824TIP3    H135963   3.061   3.849  12.089  0.0401  0.6533  1.5440
 4824TIP3    H235964   3.092   3.922  11.960  0.5985 -1.5264  0.4032
 4825TIP3   OH235965   5.204   1.794  13.397  0.1206 -0.4902 -0.5484
 4825TIP3    H135966   5.249   1.841  13.326  0.9173  0.2348  0.4086
 4825TIP3    H235967   5.210   1.702  13.373  1.9284 -0.3952 -0.5764
 4826TIP3   OH235968   1.091   6.770   1.533 -0.0122  0.1048 -0.2569
 4826TIP3    H135969   1.171   6.799   1.578 -0.6303 -0.1818  1.0969
 4826TIP3    H235970   1.055   6.703   1.591 -0.7381 -0.4581 -1.3292
 4827TIP3   OH235971   2.238   2.029  17.093  0.2361  0.1934 -0.1884
 4827TIP3    H135972   2.204   2.074  17.169  0.1450 -1.6361  0.9157
 4827TIP3    H235973   2.333   2.025  17.108  0.7929  3.0560 -2.0384
 4828TIP3   OH235974   5.146   6.801   4.103 -0.7034 -0.0045 -0.2836
 4828TIP3    H135975   5.126   6.753   4.183 -4.6403  0.1472 -1.0023
 4828TIP3    H235976   5.165   6.732   4.038 -1.1001 -0.3089 -0.0788
 4829TIP3   OH235977   4.710   4.125   0.252 -0.2330  0.0935 -0.2375
 4829TIP3    H135978   4.741   4.042   0.217 -1.3379 -1.5167  2.3005
 4829TIP3    H235979   4.784   4.160   0.302  0.6963  1.4209 -2.4205
 4830TIP3   OH235980   4.016   3.007   1.818 -0.1269  0.3094  0.2876
 4830TIP3    H135981   4.074   2.963   1.880  2.6971  2.0836 -0.8718
 4830TIP3    H235982   4.037   3.100   1.827 -3.7420  1.2722  0.5712
 4831TIP3   OH235983   3.680   4.151  14.353  0.0716 -0.0119  0.1478
 4831TIP3    H135984   3.598   4.106  14.329 -0.3429  1.0016 -0.4123
 4831TIP3    H235985   3.749   4.092  14.323 -0.4522 -0.7908  0.4400
 4832TIP3   OH235986   1.674   3.486  11.328  0.9193  0.3598  0.1992
 4832TIP3    H135987   1.709   3.454  11.245  0.2989 -0.0940  0.1037
 4832TIP3    H235988   1.649   3.407  11.376  1.5698  0.6013  0.9621
 4833TIP3   OH235989   0.334   5.959  16.912 -0.8846 -0.3983 -0.5014
 4833TIP3    H135990   0.361   5.982  17.001 -3.0313 -0.4380  0.1989
 4833TIP3    H235991   0.266   5.893  16.924 -0.7384 -0.8950 -2.2163
 4834TIP3   OH235992   1.485   4.080  12.445  0.0674  0.1002  0.8604
 4834TIP3    H135993   1.416   4.060  12.382  2.6552 -1.8198 -1.6104
 4834TIP3    H235994   1.549   4.131  12.395  1.9680 -1.0121  2.0270
 4835TIP3   OH235995   5.271   5.714   1.679 -0.2346 -0.2207 -0.3200
 4835TIP3    H135996   5.306   5.769   1.749 -0.3588 -1.3075  0.6153
 4835TIP3    H235997   5.349   5.676   1.638 -0.2233 -1.5060  0.8335
 4836TIP3   OH235998   1.547   6.002  16.814 -0.0474 -0.0125 -0.2155
 4836TIP3    H135999   1.629   6.047  16.835  0.7571  0.5914 -3.8880
 4836TIP3    H236000   1.572   5.939  16.745 -2.4087 -1.0305 -0.2283
 4837TIP3   OH236001   1.929   3.256  13.481 -0.0898 -0.2692 -0.0908
 4837TIP3    H136002   1.939   3.246  13.576 -0.8094 -3.9845 -0.2406
 4837TIP3    H236003   2.018   3.248  13.447 -0.0217 -0.8789  0.2105
 4838TIP3   OH236004   4.853   5.657   2.297  0.2344 -0.2783  0.0191
 4838TIP3    H136005   4.825   5.746   2.316  2.9525  0.7342 -0.2683
 4838TIP3    H236006   4.779   5.602   2.322 -1.5945  2.0548 -0.0052
 4839TIP3   OH236007   3.502   3.639   3.711 -0.4308 -0.0099  0.1911
 4839TIP3    H136008   3.596   3.652   3.728 -0.6634  0.6608  1.0042
 4839TIP3    H236009   3.488   3.545   3.726  0.4747 -0.5288 -1.8279
 4840TIP3   OH236010   1.742   5.226  16.015 -0.0424 -0.0218 -0.5545
 4840TIP3    H136011   1.684   5.301  16.034 -0.8384 -1.0434  1.2384
 4840TIP3    H236012   1.738   5.218  15.919 -1.2727  1.1797 -0.6498
 4841TIP3   OH236013   5.526   0.629  16.657  0.6604  0.2367  0.0706
 4841TIP3    H136014   5.498   0.541  16.685 -1.6099  0.3670 -1.5578
 4841TIP3    H236015   5.527   0.680  16.738  0.4038 -0.8864  0.8141
 4842TIP3   OH236016   0.069   4.282  10.794 -0.4591 -0.4944 -0.3183
 4842TIP3    H136017   0.046   4.205  10.743  0.7090 -0.5344 -0.8183
 4842TIP3    H236018   0.136   4.326  10.742 -1.0542  0.8312 -0.0137
 4843TIP3   OH236019   1.293   4.092   4.418  0.0766 -0.3561 -0.6927
 4843TIP3    H136020   1.248   4.052   4.343  0.4781 -0.1842 -1.0278
 4843TIP3    H236021   1.375   4.125   4.382 -0.9504  2.2738 -0.8247
 4844TIP3   OH236022   2.193   5.539   2.526  0.1747  0.6006 -0.0267
 4844TIP3    H136023   2.190   5.544   2.621 -1.1401 -2.8098  0.2531
 4844TIP3    H236024   2.115   5.490   2.501 -0.6077  3.0822 -3.1250
 4845TIP3   OH236025   2.344   6.086   0.205  0.2722  0.0154 -0.1109
 4845TIP3    H136026   2.337   6.080   0.301  0.6051 -2.0054 -0.1639
 4845TIP3    H236027   2.356   6.179   0.188  0.5005  0.3965  1.8413
 4846TIP3   OH236028   1.057   2.489   3.104  0.1394 -0.2449 -0.1322
 4846TIP3    H136029   1.119   2.484   3.031  0.5322  0.9746  0.1001
 4846TIP3    H236030   0.978   2.526   3.065  0.9834  2.3045  0.3957
 4847TIP3   OH236031   6.201   3.645   3.559  0.0499  0.5893 -0.4710
 4847TIP3    H136032   6.266   3.708   3.526 -0.5150  1.0330 -0.7648
 4847TIP3    H236033   6.207   3.571   3.498  0.2660  0.6306 -0.5032
 4848TIP3   OH236034   6.606   2.193   3.127 -0.0737 -0.4921 -0.1695
 4848TIP3    H136035   6.556   2.270   3.100  0.5255 -0.3005 -0.7653
 4848TIP3    H236036   6.562   2.120   3.082  1.0239 -0.1571 -1.8900
 4849TIP3   OH236037   1.706   3.358   3.241 -0.3797 -0.2149 -0.7469
 4849TIP3    H136038   1.788   3.309   3.255  0.8463  1.9765  0.2671
 4849TIP3    H236039   1.702   3.370   3.146  1.3704  0.9864 -0.7151
 4850TIP3   OH236040   5.465   1.702   5.076  0.7856  0.0550 -0.0484
 4850TIP3    H136041   5.404   1.755   5.025  0.0022 -0.3015  0.4972
 4850TIP3    H236042   5.506   1.765   5.136  1.7975  0.4925 -1.1744
 4851TIP3   OH236043   3.618   3.202   0.478  0.2637 -0.2225 -0.2546
 4851TIP3    H136044   3.710   3.220   0.457  0.2982 -0.9306 -0.7270
 4851TIP3    H236045   3.617   3.112   0.510  0.1196  0.6194  2.2753
 4852TIP3   OH236046   2.611   6.523  13.609 -0.0205 -0.2264  0.1019
 4852TIP3    H136047   2.560   6.454  13.567  1.1219 -1.0184 -0.0472
 4852TIP3    H236048   2.674   6.550  13.542 -0.3702  0.8884  0.2024
 4853TIP3   OH236049   4.804   6.738   5.554 -0.0035 -0.1953  0.1168
 4853TIP3    H136050   4.814   6.763   5.462 -0.6564 -0.6718 -0.0935
 4853TIP3    H236051   4.729   6.678   5.554 -1.0784  1.0828  1.1818
 4854TIP3   OH236052   1.931   2.517  13.175  0.0865 -0.1984 -0.3347
 4854TIP3    H136053   1.882   2.507  13.094  1.9518  0.0121 -1.5634
 4854TIP3    H236054   1.973   2.603  13.167  0.8724 -0.4803  0.5154
 4855TIP3   OH236055   1.492   6.530  16.049  0.5603 -0.1246  0.3944
 4855TIP3    H136056   1.587   6.530  16.048  0.5916 -1.3652  1.2157
 4855TIP3    H236057   1.467   6.446  16.012 -0.1807 -0.2023  1.0294
 4856TIP3   OH236058   1.780   3.560  11.894 -0.1339  0.0975 -0.6066
 4856TIP3    H136059   1.734   3.504  11.831  3.1738 -2.5252 -0.9906
 4856TIP3    H236060   1.787   3.506  11.973 -1.0392  1.9475  0.8082
 4857TIP3   OH236061   6.302   0.090  11.882 -0.0902  0.0121 -0.3039
 4857TIP3    H136062   6.236   0.067  11.948 -0.5323  3.5447  0.6933
 4857TIP3    H236063   6.284   0.031  11.809 -2.2146 -1.3385  1.1748
 4858TIP3   OH236064   2.079   3.122  12.569 -0.0416 -0.2467  0.1306
 4858TIP3    H136065   2.068   3.154  12.659  0.7459  2.8704 -0.7545
 4858TIP3    H236066   2.173   3.125  12.553  0.0392 -2.8176 -0.1885
 4859TIP3   OH236067   3.901   0.352   5.248 -0.1419 -0.4390  0.5285
 4859TIP3    H136068   3.823   0.364   5.194  0.2782  0.0938  0.0255
 4859TIP3    H236069   3.898   0.261   5.276  0.2491 -1.0915 -1.3992
 4860TIP3   OH236070   0.151   3.356   4.612  0.1442  0.6571  0.4416
 4860TIP3    H136071   0.136   3.341   4.706  1.3411  1.2731  0.7554
 4860TIP3    H236072   0.077   3.408   4.583  1.6747  3.9538  1.9960
 4861TIP3   OH236073   1.408   6.265  14.463  0.4714  0.0124 -0.5010
 4861TIP3    H136074   1.320   6.265  14.501 -0.5219  1.8365 -2.6048
 4861TIP3    H236075   1.403   6.329  14.392  3.1429 -0.8444 -1.5476
 4862TIP3   OH236076   2.195   6.788  16.860  0.0856  0.6378  0.4694
 4862TIP3    H136077   2.104   6.761  16.844 -0.4895  1.4104  2.2366
 4862TIP3    H236078   2.193   6.883  16.853  1.1972  0.5849 -1.3442
 4863TIP3   OH236079   1.907   4.841   1.955 -0.6659 -0.3617  0.4365
 4863TIP3    H136080   1.878   4.803   2.038  0.5831  0.4452  1.2799
 4863TIP3    H236081   1.933   4.765   1.902 -0.0410 -0.8202  1.3677
 4864TIP3   OH236082   1.360   5.074   1.537  0.5742  0.0583  0.2588
 4864TIP3    H136083   1.390   4.988   1.507  0.2318  0.3969 -1.1023
 4864TIP3    H236084   1.292   5.099   1.474 -1.4957  0.0023  2.3312
 4865TIP3   OH236085   2.096   0.768   0.542 -0.1471  0.0934  0.3570
 4865TIP3    H136086   2.131   0.760   0.630 -0.0556 -4.7360  0.1571
 4865TIP3    H236087   2.174   0.778   0.486  0.0246  0.2677  0.6277
 4866TIP3   OH236088   5.422   4.873   5.947  0.0800  0.0770  0.2457
 4866TIP3    H136089   5.467   4.921   5.878 -0.4679  0.0911 -0.1134
 4866TIP3    H236090   5.409   4.937   6.017  1.0252 -0.0512  0.5491
 4867TIP3   OH236091   5.006   1.093  16.420  0.6343 -0.0460 -0.3677
 4867TIP3    H136092   4.942   1.032  16.383  1.3210 -0.6324 -0.6081
 4867TIP3    H236093   5.030   1.054  16.504  0.0118  0.6381  0.1391
 4868TIP3   OH236094   5.697   2.296  12.809 -0.0984 -0.2451  0.0010
 4868TIP3    H136095   5.698   2.243  12.729 -0.9409 -0.3754  0.0643
 4868TIP3    H236096   5.711   2.233  12.880 -0.2301 -0.2556  0.0169
 4869TIP3   OH236097   5.332   6.320   4.548  0.5360  0.3678  0.7016
 4869TIP3    H136098   5.237   6.323   4.535  0.5683 -2.0501 -0.7412
 4869TIP3    H236099   5.346   6.360   4.634 -1.6833  1.4834  0.6118
 4870TIP3   OH236100   4.372   2.949   0.882  0.1854  0.1341 -0.5329
 4870TIP3    H136101   4.372   3.002   0.962 -0.2442 -1.9303  0.9187
 4870TIP3    H236102   4.288   2.968   0.840 -0.8907 -0.8688  1.0522
 4871TIP3   OH236103   1.493   6.434   5.827  0.1511 -0.1531 -0.4185
 4871TIP3    H136104   1.464   6.393   5.908 -0.2144 -0.8577 -0.8952
 4871TIP3    H236105   1.429   6.405   5.761 -0.9003  2.2451 -0.5405
 4872TIP3   OH236106   5.457   6.419  15.607  0.3426  0.3203 -0.4009
 4872TIP3    H136107   5.543   6.461  15.611  0.5355 -0.1328  2.3700
 4872TIP3    H236108   5.402   6.482  15.562  1.4257  2.0553  0.5720
 4873TIP3   OH236109   4.418   6.039   3.020  0.6681  0.1861 -0.6503
 4873TIP3    H136110   4.339   6.019   3.070  2.0705 -1.1828  1.1758
 4873TIP3    H236111   4.387   6.087   2.943 -1.7062  1.4959  1.0047
 4874TIP3   OH236112   1.916   6.425  12.423 -0.1326  0.1181  0.3395
 4874TIP3    H136113   1.940   6.346  12.471  1.5779 -0.6155 -1.5885
 4874TIP3    H236114   1.992   6.482  12.432 -0.9831  1.2010  0.9329
 4875TIP3   OH236115   4.340   6.536   5.294  0.2735 -0.5914 -0.3137
 4875TIP3    H136116   4.336   6.500   5.382  1.9053  0.0286  0.0566
 4875TIP3    H236117   4.281   6.611   5.295  3.0246  1.7904  1.5106
 4876TIP3   OH236118   4.520   6.022   6.485  0.6835 -0.2518  0.6800
 4876TIP3    H136119   4.562   6.106   6.469  1.2083 -0.7379 -0.6421
 4876TIP3    H236120   4.433   6.030   6.447  1.2728 -0.7884 -0.8414
 4877TIP3   OH236121   0.991   2.851   3.812 -0.4214  0.0387  0.2239
 4877TIP3    H136122   0.920   2.800   3.772  0.3876  0.2308 -1.5586
 4877TIP3    H236123   1.009   2.920   3.748  1.1546  0.1753  0.7758
 4878TIP3   OH236124   1.734   6.056  11.850 -0.0020  0.8008 -0.0560
 4878TIP3    H136125   1.651   6.062  11.802 -0.8891 -0.2971  1.2590
 4878TIP3    H236126   1.727   5.975  11.899  3.1693 -1.0013 -2.2381
 4879TIP3   OH236127   4.899   3.477  11.697 -0.3737 -0.8058  0.2540
 4879TIP3    H136128   4.924   3.420  11.625 -0.1618 -2.2952  1.4491
 4879TIP3    H236129   4.805   3.490  11.686 -0.2697 -0.6607 -0.5177
 4880TIP3   OH236130   2.604   0.441  14.089 -0.1327  0.5517  0.0793
 4880TIP3    H136131   2.632   0.506  14.154  0.2035  0.2721  0.2205
 4880TIP3    H236132   2.563   0.371  14.141  2.4031 -0.8952  0.2838
 4881TIP3   OH236133   4.281   2.087  12.636  0.1962 -0.1070 -0.8431
 4881TIP3    H136134   4.274   2.161  12.696  2.7058  0.0458 -0.6072
 4881TIP3    H236135   4.262   2.011  12.690  0.3619  0.1798 -0.3665
 4882TIP3   OH236136   3.595   1.855  14.266 -0.3908 -0.0128 -0.3861
 4882TIP3    H136137   3.531   1.812  14.322  0.1240 -0.1079  0.1445
 4882TIP3    H236138   3.675   1.859  14.319 -0.2509  1.0417 -0.6441
 4883TIP3   OH236139   0.361   1.531  14.443  0.5705  0.4005  0.3310
 4883TIP3    H136140   0.296   1.594  14.410 -1.2017 -0.1783  2.4380
 4883TIP3    H236141   0.378   1.560  14.533  1.2035 -0.9984  0.6794
 4884TIP3   OH236142   6.708   6.458   3.766 -0.4206 -0.2164  0.1493
 4884TIP3    H136143   6.730   6.543   3.728 -1.3130  0.0057  0.1065
 4884TIP3    H236144   6.790   6.409   3.765  0.2161  0.8028  0.5841
 4885TIP3   OH236145   0.558   6.619   3.241 -0.5945  1.0004  0.3954
 4885TIP3    H136146   0.497   6.685   3.208 -1.2758  0.2467  0.0920
 4885TIP3    H236147   0.564   6.635   3.335  0.2263  2.2635  0.1472
 4886TIP3   OH236148   2.771   1.431   6.190 -0.1137 -0.2515 -0.5396
 4886TIP3    H136149   2.781   1.465   6.279  2.4916 -1.4001 -0.3184
 4886TIP3    H236150   2.809   1.344   6.192  2.1179  0.4998 -3.2377
 4887TIP3   OH236151   6.808   1.001   0.227 -0.4925  0.3844  0.2602
 4887TIP3    H136152   6.840   1.006   0.136  0.5247 -0.2489  0.5603
 4887TIP3    H236153   6.885   0.974   0.277 -0.9711  1.0117  1.3606
 4888TIP3   OH236154   2.713   5.244  13.951 -0.0173 -0.1927  0.1279
 4888TIP3    H136155   2.651   5.255  13.880 -1.4468 -0.7641  1.2438
 4888TIP3    H236156   2.798   5.264  13.912 -0.8645  0.4235 -1.4812
 4889TIP3   OH236157   4.634   1.351   0.961 -0.3392 -0.2642  0.4027
 4889TIP3    H136158   4.580   1.280   0.996 -1.2606  0.4733  0.4917
 4889TIP3    H236159   4.635   1.417   1.029  0.9736 -0.3999  0.5413
 4890TIP3   OH236160   3.138   0.703   0.095  0.5163  0.0042  0.3113
 4890TIP3    H136161   3.136   0.642   0.021 -1.7535 -0.7887  0.9540
 4890TIP3    H236162   3.228   0.698   0.128  1.2914 -0.4134 -1.7137
 4891TIP3   OH236163   6.053   2.728  14.080  0.0611  0.2672  0.6828
 4891TIP3    H136164   6.092   2.788  14.017 -0.3748  0.2311  0.3714
 4891TIP3    H236165   6.093   2.643  14.060  0.2149  0.3316  0.7159
 4892TIP3   OH236166   4.305   1.457  11.289  0.6550  0.5733  0.2322
 4892TIP3    H136167   4.345   1.408  11.361 -1.2732  0.5559  1.3755
 4892TIP3    H236168   4.291   1.545  11.325 -1.7928  0.1282  0.5335
 4893TIP3   OH236169   0.648   2.252  14.797 -0.5932  0.7640  0.0722
 4893TIP3    H136170   0.709   2.273  14.867 -1.2168  0.7573  0.6228
 4893TIP3    H236171   0.562   2.250  14.839 -0.9331  0.4006 -0.6192
 4894TIP3   OH236172   2.644   5.526   3.399  0.4517 -0.1608  0.0602
 4894TIP3    H136173   2.642   5.478   3.316  0.0669  0.4800 -0.3033
 4894TIP3    H236174   2.635   5.618   3.375  0.7167  0.0642  0.7900
 4895TIP3   OH236175   1.196   0.867   4.949 -0.3560 -0.2069  0.3989
 4895TIP3    H136176   1.253   0.794   4.974  1.8208  1.1788 -0.2905
 4895TIP3    H236177   1.177   0.852   4.856 -0.8387 -0.4683  0.5353
 4896TIP3   OH236178   5.666   6.815  15.783  0.4090 -0.1604 -0.0454
 4896TIP3    H136179   5.712   6.899  15.781  0.2892  0.0411  2.3859
 4896TIP3    H236180   5.574   6.838  15.768  0.2985  0.2403  1.1725
 4897TIP3   OH236181   3.690   6.739  15.661 -0.1260  0.0906  0.3589
 4897TIP3    H136182   3.717   6.816  15.711 -0.9779 -0.0210  0.9944
 4897TIP3    H236183   3.695   6.667  15.723  0.2175 -0.3063 -0.1136
 4898TIP3   OH236184   3.853   3.063  16.583 -0.0474 -0.3858  0.1839
 4898TIP3    H136185   3.809   3.055  16.498  2.2366  2.6944 -1.5101
 4898TIP3    H236186   3.888   2.976  16.600 -0.5267 -1.0897 -2.0753
 4899TIP3   OH236187   6.582   5.791   1.067  0.4733 -0.0202 -0.0976
 4899TIP3    H136188   6.539   5.814   1.149  1.9698  0.2753  0.6212
 4899TIP3    H236189   6.671   5.825   1.075  0.4998  0.4624 -2.0597
 4900TIP3   OH236190   0.051   1.435  12.203 -0.4414 -0.5858 -0.0911
 4900TIP3    H136191   0.046   1.523  12.165  0.0476 -1.0619 -1.2868
 4900TIP3    H236192   0.120   1.442  12.269 -0.3822 -0.0778 -0.2011
 4901TIP3   OH236193   1.364   4.758  14.525  0.4389  0.0301  0.3975
 4901TIP3    H136194   1.375   4.846  14.487 -0.8288 -0.1462 -0.4224
 4901TIP3    H236195   1.400   4.766  14.614  2.4168  0.7588 -0.4004
 4902TIP3   OH236196   4.622   4.823   3.368 -0.0460 -0.2385  0.0766
 4902TIP3    H136197   4.665   4.739   3.350 -0.5502 -0.5281  0.2155
 4902TIP3    H236198   4.694   4.882   3.389  0.2770 -0.7547  0.4501
 4903TIP3   OH236199   2.415   0.114   3.995  0.3438 -0.3255  0.3023
 4903TIP3    H136200   2.433   0.141   3.905  0.9980 -0.4670  0.3834
 4903TIP3    H236201   2.501   0.088   4.030  0.5243  1.8313  1.6654
 4904TIP3   OH236202   2.978   1.934   2.349  0.5457 -0.7838 -0.2522
 4904TIP3    H136203   2.927   1.956   2.271  0.4786 -1.5886 -0.4457
 4904TIP3    H236204   2.958   2.004   2.411  1.3949  0.4080 -1.2964
 4905TIP3   OH236205   2.914   3.816   1.969  0.0952 -0.0649 -0.2793
 4905TIP3    H136206   2.947   3.732   1.938  0.2423  0.0006 -0.3058
 4905TIP3    H236207   2.942   3.879   1.902 -0.1538 -0.0195 -0.3404
 4906TIP3   OH236208   5.760   6.657   5.539  0.2924 -0.1502  0.4858
 4906TIP3    H136209   5.722   6.585   5.488  0.0878 -1.5316  2.4389
 4906TIP3    H236210   5.685   6.712   5.562  0.5408  1.1520 -1.5927
 4907TIP3   OH236211   5.196   5.778  12.725  0.1130  0.4272 -0.7459
 4907TIP3    H136212   5.155   5.756  12.641  0.2012 -1.9698 -0.2419
 4907TIP3    H236213   5.282   5.737  12.722 -0.0132 -0.0201  0.6094
 4908TIP3   OH236214   4.221   5.639   1.991  0.4733  0.7007  0.0117
 4908TIP3    H136215   4.166   5.715   1.968  2.8550  2.6639  0.4103
 4908TIP3    H236216   4.283   5.673   2.055  1.5191 -1.6970  0.3658
 4909TIP3   OH236217   1.271   0.825   5.842 -0.4445  0.3367  0.1359
 4909TIP3    H136218   1.229   0.885   5.903 -0.2335 -1.3383  2.0212
 4909TIP3    H236219   1.352   0.798   5.885 -0.3481 -1.0054 -0.8151
 4910TIP3   OH236220   0.685   5.960  12.486  0.3459  0.2343 -0.0860
 4910TIP3    H136221   0.709   5.985  12.397 -2.0969  0.0576 -0.8715
 4910TIP3    H236222   0.629   5.883  12.475  0.9737 -0.5315  1.7081
 4911TIP3   OH236223   1.397   4.405   5.533  0.5144  0.1735 -0.2516
 4911TIP3    H136224   1.433   4.489   5.505 -0.0250  0.1868 -0.9442
 4911TIP3    H236225   1.352   4.425   5.616 -2.0965  1.2548 -1.7898
 4912TIP3   OH236226   1.563   4.703  16.777  0.0362  0.0339  0.0774
 4912TIP3    H136227   1.553   4.608  16.772  0.1890  0.0514 -0.8758
 4912TIP3    H236228   1.656   4.716  16.797  0.1470 -0.0140 -0.3954
 4913TIP3   OH236229   4.777   4.099  17.137 -0.2159 -0.2093 -0.1700
 4913TIP3    H136230   4.822   4.181  17.158  1.3377 -0.6951 -1.4006
 4913TIP3    H236231   4.812   4.074  17.051 -0.3374 -2.3673  0.3604
 4914TIP3   OH236232   2.950   5.468   1.624 -0.4397  0.4086 -0.5158
 4914TIP3    H136233   3.010   5.406   1.584 -0.0775 -0.3674  1.1684
 4914TIP3    H236234   3.003   5.546   1.640 -0.3937  0.4415 -0.8151
 4915TIP3   OH236235   4.028   1.955   2.484 -0.4614 -0.5373  0.0124
 4915TIP3    H136236   4.118   1.940   2.454 -1.4260 -0.4522 -3.2576
 4915TIP3    H236237   4.028   2.045   2.515  0.5383 -0.5265  0.0215
 4916TIP3   OH236238   3.527   4.972  12.502 -0.1925  0.2630 -0.4707
 4916TIP3    H136239   3.436   4.955  12.527 -0.3147  0.2635 -0.9014
 4916TIP3    H236240   3.534   5.068  12.499 -0.3267  0.2628 -0.9461
 4917TIP3   OH236241   2.890   2.782  11.455 -0.2991  0.1313 -0.2811
 4917TIP3    H136242   2.893   2.810  11.363 -3.5143  0.1434 -0.5098
 4917TIP3    H236243   2.892   2.864  11.505 -0.8865  0.2848 -0.4941
 4918TIP3   OH236244   3.123   0.912  11.117 -0.5276  0.1821 -0.0426
 4918TIP3    H136245   3.209   0.901  11.157 -0.7080  0.3057  0.3852
 4918TIP3    H236246   3.112   1.007  11.110  0.4774  0.1866 -2.5314
 4919TIP3   OH236247   6.125   4.942  14.363  0.4424 -0.1053  0.3329
 4919TIP3    H136248   6.158   4.874  14.422  2.4562 -0.1128 -0.7411
 4919TIP3    H236249   6.137   5.024  14.411 -0.0596 -0.3035  0.8100
 4920TIP3   OH236250   2.659   4.085   3.674  0.2955  0.0041 -0.0969
 4920TIP3    H136251   2.729   4.126   3.725  0.5375 -0.9466  0.3614
 4920TIP3    H236252   2.629   4.013   3.729 -0.8849  0.2468 -0.4021
 4921TIP3   OH236253   6.537   2.399   1.574 -0.4349  0.0004  0.5723
 4921TIP3    H136254   6.592   2.468   1.609  2.6470 -2.0435  0.1650
 4921TIP3    H236255   6.469   2.386   1.640 -0.3544  2.5073  1.2194
 4922TIP3   OH236256   0.697   6.103   5.928 -0.0148  0.4154  0.0936
 4922TIP3    H136257   0.752   6.032   5.896  1.0638  1.6238 -0.8558
 4922TIP3    H236258   0.698   6.168   5.858 -1.5561  1.0700  0.6302
 4923TIP3   OH236259   3.117   0.590   2.133  0.5514  0.7224  0.0562
 4923TIP3    H136260   3.082   0.504   2.114  0.2653  0.7518  0.4560
 4923TIP3    H236261   3.041   0.643   2.156  0.9603  0.4535  2.2040
 4924TIP3   OH236262   5.444   5.773   4.438  0.0572  0.0138  0.5323
 4924TIP3    H136263   5.350   5.770   4.426  0.1579 -0.2174 -0.2242
 4924TIP3    H236264   5.475   5.835   4.372  0.4774 -0.2650  0.4621
 4925TIP3   OH236265   4.801   0.483   2.594  0.2760 -0.1424  0.1136
 4925TIP3    H136266   4.802   0.478   2.499  0.5818  0.0596  0.1079
 4925TIP3    H236267   4.892   0.498   2.619  0.1273  0.3127  0.4064
 4926TIP3   OH236268   5.369   0.348   4.400 -0.0083  0.3481  0.0288
 4926TIP3    H136269   5.329   0.387   4.478  0.4190  0.1621  0.3453
 4926TIP3    H236270   5.457   0.384   4.398  0.7645 -1.4162  0.9395
 4927TIP3   OH236271   4.025   2.234   0.576 -0.1112  0.1583  0.8787
 4927TIP3    H136272   3.960   2.172   0.609 -0.7734 -0.4376 -1.3683
 4927TIP3    H236273   4.007   2.240   0.482  2.2326  1.0243  0.4227
 4928TIP3   OH236274   4.544   2.614  16.142  0.0824  0.3118 -0.2006
 4928TIP3    H136275   4.462   2.570  16.117 -0.2678  1.0871 -0.4417
 4928TIP3    H236276   4.520   2.668  16.217  0.5245  0.0596  0.1291
 4929TIP3   OH236277   5.701   0.632   2.610 -0.0955  0.4367  0.0806
 4929TIP3    H136278   5.726   0.584   2.689 -0.0293 -0.1196 -0.2692
 4929TIP3    H236279   5.766   0.605   2.545 -1.2423 -0.5819 -0.6834
 4930TIP3   OH236280   3.347   4.901   1.059 -0.0361  0.1942 -0.4106
 4930TIP3    H136281   3.396   4.983   1.052 -3.1563  2.5347  1.9584
 4930TIP3    H236282   3.396   4.849   1.123  0.3435  1.6727  0.5498
 4931TIP3   OH236283   0.598   3.097  16.559 -0.1332 -0.3855 -0.1008
 4931TIP3    H136284   0.525   3.140  16.514 -0.4931 -1.0080 -0.1200
 4931TIP3    H236285   0.617   3.019  16.506 -0.3401 -0.9450  0.6387
 4932TIP3   OH236286   1.396   6.724  15.152  0.4888 -0.1263 -0.9482
 4932TIP3    H136287   1.339   6.652  15.179  0.4901 -0.5275 -1.9910
 4932TIP3    H236288   1.475   6.714  15.206 -0.8043  1.1038  1.3589
 4933TIP3   OH236289   5.393   0.428  14.792 -0.0763  0.3806 -0.2221
 4933TIP3    H136290   5.480   0.392  14.809 -0.5273 -1.3148 -1.3267
 4933TIP3    H236291   5.369   0.393  14.706 -1.4652  1.5957 -0.3610
 4934TIP3   OH236292   2.258   1.018   4.311  0.5794 -0.2508 -0.5356
 4934TIP3    H136293   2.226   1.020   4.222 -0.3756 -0.9600 -0.2158
 4934TIP3    H236294   2.183   1.044   4.365  0.6920 -1.3456  0.1757
 4935TIP3   OH236295   0.203   1.820   3.458  0.0206 -0.1592 -0.0793
 4935TIP3    H136296   0.149   1.837   3.535 -0.0825  0.4218 -0.2734
 4935TIP3    H236297   0.199   1.725   3.446 -2.8116  0.0390 -1.4254
 4936TIP3   OH236298   1.006   4.280   1.071 -0.3598 -0.2970 -0.1110
 4936TIP3    H136299   0.917   4.246   1.082 -0.4844  0.4952  1.7881
 4936TIP3    H236300   1.059   4.232   1.135  0.4763 -0.3712 -0.8383
 4937TIP3   OH236301   2.440   6.515   2.948 -0.4312 -0.0567 -0.1468
 4937TIP3    H136302   2.512   6.479   2.999  0.2709  3.4508  1.6231
 4937TIP3    H236303   2.364   6.463   2.974  0.9712 -2.3084 -0.2758
 4938TIP3   OH236304   6.310   3.254   0.258 -0.4717  0.5080 -0.1821
 4938TIP3    H136305   6.354   3.300   0.187 -0.6862 -1.8901 -2.0109
 4938TIP3    H236306   6.337   3.163   0.247  0.7345  0.2139  3.8414
 4939TIP3   OH236307   0.585   3.534   5.452 -0.4414  0.6816  0.4678
 4939TIP3    H136308   0.541   3.590   5.516  0.5688  1.4448  0.5328
 4939TIP3    H236309   0.640   3.595   5.402  1.9316 -0.3844  1.5774
 4940TIP3   OH236310   0.787   3.310   1.817 -0.1303  0.2747  0.5385
 4940TIP3    H136311   0.782   3.289   1.910 -0.5052 -0.3336  0.3839
 4940TIP3    H236312   0.867   3.269   1.787 -0.3065 -0.0205  0.4700
 4941TIP3   OH236313   0.487   1.695   0.173  0.2848  0.4684 -0.0788
 4941TIP3    H136314   0.581   1.704   0.189  0.4290 -0.9067 -0.0388
 4941TIP3    H236315   0.462   1.615   0.219 -1.0016  1.0239  0.2510
 4942TIP3   OH236316   4.122   3.367  16.804  0.4635  0.0032 -0.0240
 4942TIP3    H136317   4.155   3.383  16.892  1.0222  1.3915 -0.4699
 4942TIP3    H236318   4.036   3.328  16.818 -0.3957  2.1681  1.1714
 4943TIP3   OH236319   1.277   2.633   3.732  0.0117  0.9094  0.2028
 4943TIP3    H136320   1.182   2.627   3.728 -0.1116  0.3717  2.5913
 4943TIP3    H236321   1.296   2.724   3.710 -1.1790  1.3722  0.9624
 4944TIP3   OH236322   3.298   5.465  13.561 -0.0253 -0.6339 -0.0597
 4944TIP3    H136323   3.289   5.555  13.529  0.0984 -0.2630  0.9085
 4944TIP3    H236324   3.275   5.470  13.654  1.7821 -1.2416  0.4634
 4945TIP3   OH236325   2.988   2.809  16.285  0.3425 -0.1244 -0.0142
 4945TIP3    H136326   3.012   2.785  16.196  1.2561  0.0791  0.1718
 4945TIP3    H236327   3.009   2.731  16.337  1.5412  0.3943  0.2986
 4946TIP3   OH236328   6.685   1.423   2.036  0.5152 -0.4244  0.2098
 4946TIP3    H136329   6.755   1.479   2.002  0.0803 -0.2169 -0.3524
 4946TIP3    H236330   6.681   1.349   1.976 -0.7265  0.2934 -0.6169
 4947TIP3   OH236331   2.324   3.924   1.201  0.8333 -0.4753  0.2072
 4947TIP3    H136332   2.275   3.984   1.257  0.8889 -1.8703  1.8657
 4947TIP3    H236333   2.398   3.975   1.169  0.6307  0.4617  1.1846
 4948TIP3   OH236334   5.384   1.634   6.615 -0.3158  0.1726 -0.3996
 4948TIP3    H136335   5.458   1.628   6.675 -0.8198  1.7779  0.4477
 4948TIP3    H236336   5.419   1.606   6.530  1.6959  2.2833 -0.3576
 4949TIP3   OH236337   1.636   2.350  16.336 -0.1069 -0.1997  0.5859
 4949TIP3    H136338   1.680   2.326  16.418 -0.6480 -1.4909  0.5151
 4949TIP3    H236339   1.555   2.392  16.364  0.9768  1.9588  0.7153
 4950TIP3   OH236340   5.292   5.991   1.829 -0.3730 -0.0851 -0.0608
 4950TIP3    H136341   5.380   6.004   1.866 -0.3534  0.9630 -0.4113
 4950TIP3    H236342   5.232   6.014   1.899 -0.4600 -3.1453  0.9950
 4951TIP3   OH236343   3.939   4.999   6.814  0.5580  0.0221 -0.2025
 4951TIP3    H136344   3.874   4.934   6.842  0.5143  1.0631  2.4979
 4951TIP3    H236345   4.019   4.974   6.860  0.6164  1.6102  0.6566
 4952TIP3   OH236346   0.995   4.844  11.879 -0.2193  0.8835 -0.2973
 4952TIP3    H136347   0.984   4.772  11.817 -0.8987  0.5475  0.1886
 4952TIP3    H236348   1.073   4.890  11.849  0.2460 -0.0687 -0.6118
 4953TIP3   OH236349   1.377   3.212  16.983 -0.7986 -0.0105  0.5925
 4953TIP3    H136350   1.326   3.239  16.907  0.1918  0.9423  0.2444
 4953TIP3    H236351   1.347   3.270  17.053  0.3850  1.1689  0.1708
 4954TIP3   OH236352   6.396   1.712   3.526 -0.0302 -0.7347 -0.2696
 4954TIP3    H136353   6.454   1.755   3.588 -1.1402 -0.7110  0.7702
 4954TIP3    H236354   6.387   1.623   3.559 -1.3912 -0.4561  0.1637
 4955TIP3   OH236355   6.585   0.764  14.442 -0.6335 -0.2902  0.0751
 4955TIP3    H136356   6.607   0.844  14.490  2.3362  0.9619 -3.0446
 4955TIP3    H236357   6.500   0.783  14.402 -0.3635  0.9583  0.0569
 4956TIP3   OH236358   0.841   1.283  14.926  0.1026 -0.2069 -0.2032
 4956TIP3    H136359   0.847   1.339  15.003 -1.3187  0.3908 -0.4998
 4956TIP3    H236360   0.814   1.198  14.961  0.4243 -0.2064  0.0527
 4957TIP3   OH236361   0.391   5.319   0.127  0.3729  0.8768  0.0635
 4957TIP3    H136362   0.370   5.412   0.117  0.4027  1.1200  1.8915
 4957TIP3    H236363   0.341   5.291   0.203 -1.8762 -1.3743 -2.0528
 4958TIP3   OH236364   0.386   5.334  15.435  0.0025 -0.0766  0.1048
 4958TIP3    H136365   0.398   5.309  15.343  0.0926  0.2923  0.0137
 4958TIP3    H236366   0.320   5.274  15.468 -1.5640  1.1000 -0.7723
 4959TIP3   OH236367   5.249   2.311   2.165  0.3389 -0.2702  0.0381
 4959TIP3    H136368   5.292   2.389   2.200 -0.2163 -0.0640  0.2752
 4959TIP3    H236369   5.285   2.301   2.077 -1.0451  1.4250 -0.7841
 4960TIP3   OH236370   3.888   1.273  13.087 -0.0014  0.4054 -0.0285
 4960TIP3    H136371   3.842   1.254  13.169 -0.5300 -0.1356 -0.4467
 4960TIP3    H236372   3.925   1.360  13.100 -0.3310  0.4461  0.6732
 4961TIP3   OH236373   5.146   6.633  11.561  0.2589  0.5394 -0.6735
 4961TIP3    H136374   5.101   6.594  11.636  2.8735 -0.1731  0.6394
 4961TIP3    H236375   5.082   6.694  11.524 -2.5680 -1.9731 -0.3462
 4962TIP3   OH236376   4.238   2.032   1.042 -0.3240 -0.7030  0.2089
 4962TIP3    H136377   4.282   1.974   0.979 -0.2001 -0.6997  0.2902
 4962TIP3    H236378   4.186   2.092   0.989 -1.2624 -1.5355  0.1555
 4963TIP3   OH236379   4.411   5.332  15.717 -0.5431 -0.0857 -0.6156
 4963TIP3    H136380   4.405   5.409  15.773 -0.7606  0.1938 -1.0160
 4963TIP3    H236381   4.442   5.366  15.633 -2.4768 -0.1294 -1.3904
 4964TIP3   OH236382   3.726   5.412   3.014  0.0283  0.4667 -0.0637
 4964TIP3    H136383   3.652   5.366   2.974 -0.7861  0.3190  1.5220
 4964TIP3    H236384   3.787   5.343   3.039 -0.2409  0.4141  0.4552
 4965TIP3   OH236385   2.577   5.212  12.409 -0.0144  0.4133  0.3968
 4965TIP3    H136386   2.542   5.135  12.455 -0.5915 -0.6410 -1.6364
 4965TIP3    H236387   2.505   5.275  12.409  0.2436  0.7191  1.5356
 4966TIP3   OH236388   6.570   4.036  15.930  0.6376  0.2543 -0.5425
 4966TIP3    H136389   6.607   3.982  15.860  1.3036  0.8577 -0.6598
 4966TIP3    H236390   6.485   4.064  15.895 -0.1073 -1.3590 -0.1597
 4967TIP3   OH236391   2.254   2.944   5.198  0.1916 -0.2265 -0.1863
 4967TIP3    H136392   2.259   2.903   5.284 -1.6053  0.5897  0.3451
 4967TIP3    H236393   2.187   2.894   5.151 -1.1001  1.2388  0.0282
 4968TIP3   OH236394   2.962   4.568  12.212 -0.8681  0.2207  0.6321
 4968TIP3    H136395   3.046   4.530  12.239 -0.5544  1.1473  1.0163
 4968TIP3    H236396   2.956   4.548  12.118 -1.8163 -2.7484  1.2297
 4969TIP3   OH236397   1.541   2.949  12.883  0.3321  0.4571  0.4105
 4969TIP3    H136398   1.561   2.856  12.867 -0.6825  0.5708 -1.9583
 4969TIP3    H236399   1.485   2.948  12.961 -1.6682 -1.2375 -0.9158
 4970TIP3   OH236400   1.567   1.831   5.770  0.3059  0.8043  0.2178
 4970TIP3    H136401   1.616   1.767   5.822  0.9284  2.8564  2.3364
 4970TIP3    H236402   1.478   1.796   5.766  1.1787 -1.4604 -1.0170
 4971TIP3   OH236403   3.961   6.765  14.003  0.1791  0.1916  0.0130
 4971TIP3    H136404   3.878   6.785  14.047  0.1345  1.8052 -0.7246
 4971TIP3    H236405   3.972   6.836  13.939 -1.0948 -3.2240 -4.5945
 4972TIP3   OH236406   1.275   4.400   0.877 -0.6876  0.5673  0.2735
 4972TIP3    H136407   1.277   4.332   0.944  0.7587  1.6346  1.3754
 4972TIP3    H236408   1.337   4.466   0.908 -1.0198  1.7467 -1.4424
 4973TIP3   OH236409   1.557   1.203   1.246  0.3596 -0.2495 -0.1599
 4973TIP3    H136410   1.480   1.177   1.195 -0.8416 -1.1324  1.9700
 4973TIP3    H236411   1.610   1.124   1.251 -0.8264 -0.9996  2.0603
 4974TIP3   OH236412   5.309   4.313  15.487  0.0834 -0.3501 -0.8037
 4974TIP3    H136413   5.219   4.337  15.512 -0.7666 -2.8322 -1.2356
 4974TIP3    H236414   5.341   4.263  15.562  0.2978 -1.3603 -1.5672
 4975TIP3   OH236415   6.720   1.740  12.638 -0.0331  0.6620 -0.2219
 4975TIP3    H136416   6.652   1.777  12.695  1.5917  1.4153  1.3045
 4975TIP3    H236417   6.775   1.814  12.615 -0.0305  0.1685 -1.9612
 4976TIP3   OH236418   2.060   5.473   4.794  0.4651 -0.6094 -0.1780
 4976TIP3    H136419   2.078   5.493   4.885 -0.2456 -0.4971 -0.0581
 4976TIP3    H236420   1.973   5.434   4.794  1.1543 -2.2333 -0.5977
 4977TIP3   OH236421   6.238   3.608  12.125  0.4644 -0.5270  0.5760
 4977TIP3    H136422   6.225   3.513  12.120 -2.9804 -0.2220  1.5313
 4977TIP3    H236423   6.191   3.642  12.049 -1.7267  0.5458  2.3040
 4978TIP3   OH236424   6.726   5.802   1.490 -0.3481 -0.0286  0.3914
 4978TIP3    H136425   6.796   5.739   1.509  0.3334  0.2640 -0.9740
 4978TIP3    H236426   6.659   5.750   1.446 -0.1023  0.0571 -0.0898
 4979TIP3   OH236427   3.322   0.617   5.441 -0.2831  0.0891 -0.1732
 4979TIP3    H136428   3.370   0.679   5.386 -0.6271 -0.1824 -0.7944
 4979TIP3    H236429   3.336   0.532   5.399 -1.0926 -0.0258 -0.2296
 4980TIP3   OH236430   3.908   1.572  14.093  0.1653  0.0702 -0.6075
 4980TIP3    H136431   3.865   1.625  14.026  1.5380  0.5387 -1.1525
 4980TIP3    H236432   3.970   1.517  14.046  0.9272  0.1785  0.2203
 4981TIP3   OH236433   1.876   3.157  12.924 -0.6124 -0.4774  0.0821
 4981TIP3    H136434   1.805   3.122  12.977  0.0458 -3.1070 -0.6399
 4981TIP3    H236435   1.946   3.177  12.987 -0.7367 -1.2057  0.4541
 4982TIP3   OH236436   5.632   1.957   1.969  0.3442  0.5546 -0.6600
 4982TIP3    H136437   5.565   1.940   1.903  1.0109  0.1723 -1.2463
 4982TIP3    H236438   5.714   1.956   1.920  0.7205  1.8741 -0.1070
 4983TIP3   OH236439   0.837   0.080  13.458 -0.0038 -0.3038  0.1314
 4983TIP3    H136440   0.850   0.046  13.369 -3.2583 -0.3878 -0.4387
 4983TIP3    H236441   0.792   0.164  13.446 -0.4128 -0.2655  1.6718
 4984TIP3   OH236442   2.210   6.732  14.843  0.6223 -0.2517  0.1867
 4984TIP3    H136443   2.118   6.745  14.865  0.3657  0.1801 -1.0402
 4984TIP3    H236444   2.256   6.738  14.926 -0.4409 -0.3401  0.8033
 4985TIP3   OH236445   4.001   4.138  11.905  0.0667 -0.5878  0.0290
 4985TIP3    H136446   4.055   4.146  11.984 -0.4789 -3.1162  0.7426
 4985TIP3    H236447   3.987   4.228  11.877  1.7821  0.3035  1.7791
 4986TIP3   OH236448   2.201   1.078   1.840  0.5361  0.4525 -0.3079
 4986TIP3    H136449   2.161   1.118   1.762  4.8152  0.2042 -2.9451
 4986TIP3    H236450   2.184   0.985   1.830 -1.7755  0.6552  1.0212
 4987TIP3   OH236451   2.816   6.150  15.067 -0.0289 -0.3069  0.3043
 4987TIP3    H136452   2.830   6.140  14.973  0.3695 -1.5578  0.4729
 4987TIP3    H236453   2.739   6.095  15.086 -1.2535  1.3829  0.4367
 4988TIP3   OH236454   5.682   2.954   5.612  0.2419 -0.2006 -0.6853
 4988TIP3    H136455   5.751   3.019   5.600 -0.3461  0.3768 -1.0083
 4988TIP3    H236456   5.716   2.896   5.680  1.4253 -0.4719 -1.4844
 4989TIP3   OH236457   1.480   1.909  10.566 -0.3478 -0.2222  0.1136
 4989TIP3    H136458   1.410   1.954  10.613 -0.6666 -0.3535 -0.2309
 4989TIP3    H236459   1.527   1.860  10.634  0.0048  0.6195  0.4951
 4990TIP3   OH236460   0.354   5.567  17.235  0.1203  0.3027 -0.4525
 4990TIP3    H136461   0.292   5.622  17.284 -1.2201  0.5972 -2.3826
 4990TIP3    H236462   0.434   5.620  17.230  0.2873  0.2812  1.3111
 4991TIP3   OH236463   2.638   5.482   3.714  0.2676 -0.6882 -0.3798
 4991TIP3    H136464   2.615   5.403   3.666 -1.8051  0.1424 -0.8252
 4991TIP3    H236465   2.635   5.457   3.806  2.1594 -1.7305 -0.5415
 4992TIP3   OH236466   4.021   1.130  16.204  0.9906 -0.1477 -0.7067
 4992TIP3    H136467   4.009   1.106  16.112 -1.2416 -0.6602 -0.3514
 4992TIP3    H236468   3.986   1.055  16.253 -0.1276  1.0988  0.4938
 4993TIP3   OH236469   6.373   1.241  15.655  0.3339 -0.2323 -0.1446
 4993TIP3    H136470   6.332   1.157  15.634  1.5925 -1.0902  0.6713
 4993TIP3    H236471   6.463   1.232  15.623  0.8182  0.3634  1.0101
 4994TIP3   OH236472   1.642   4.947   0.731 -0.5837  0.0791 -0.6861
 4994TIP3    H136473   1.553   4.941   0.766 -1.0035 -1.1571 -1.8944
 4994TIP3    H236474   1.699   4.930   0.806 -1.4215 -1.3697 -0.3567
 4995TIP3   OH236475   3.939   4.600  10.754 -0.0359  0.5933 -0.0159
 4995TIP3    H136476   3.957   4.549  10.674  1.9725  0.0493  0.7109
 4995TIP3    H236477   3.887   4.541  10.808  0.1311  0.2585 -0.2113
 4996TIP3   OH236478   5.176   0.919   1.034  0.0110  0.5838 -0.3553
 4996TIP3    H136479   5.223   0.953   0.958  1.6107 -0.6450  0.0271
 4996TIP3    H236480   5.189   0.984   1.102  1.5095  0.1035 -0.1554
 4997TIP3   OH236481   5.879   5.577   3.371  0.2036 -0.6564 -0.2280
 4997TIP3    H136482   5.930   5.506   3.333  2.2707 -0.1220  1.3546
 4997TIP3    H236483   5.859   5.634   3.297  1.6612 -1.0801 -0.9945
 4998TIP3   OH236484   6.203   2.186  11.304 -0.2579 -0.2639  0.1220
 4998TIP3    H136485   6.214   2.235  11.386 -0.3252  0.8651 -0.5190
 4998TIP3    H236486   6.197   2.254  11.236  1.3282 -1.2038 -1.0160
 4999TIP3   OH236487   6.642   2.405  10.602 -0.5299 -0.3073  0.1655
 4999TIP3    H136488   6.656   2.312  10.620 -0.1574 -0.1799  0.5462
 4999TIP3    H236489   6.548   2.418  10.614 -0.4476 -0.4489  1.0046
 5000TIP3   OH236490   4.626   4.141   0.565 -0.2471  0.7789  0.0458
 5000TIP3    H136491   4.672   4.176   0.641 -0.2924  0.2564  0.3161
 5000TIP3    H236492   4.670   4.182   0.490  0.5490  0.4301  0.3063
 5001TIP3   OH236493   5.394   1.776  15.160  0.5031 -0.4714  0.5886
 5001TIP3    H136494   5.306   1.791  15.125 -0.2022 -0.5186  2.2037
 5001TIP3    H236495   5.411   1.683  15.143  0.2834 -0.4404  0.1847
 5002TIP3   OH236496   3.544   2.833   1.258  0.3355 -0.2337  0.8151
 5002TIP3    H136497   3.628   2.818   1.299 -0.6856  0.3136  3.2543
 5002TIP3    H236498   3.482   2.841   1.330 -1.4748  1.5603 -0.7911
 5003TIP3   OH236499   1.506   0.488   5.262 -0.1618  0.0107  0.6125
 5003TIP3    H136500   1.424   0.533   5.282 -0.5291 -1.0863  1.7069
 5003TIP3    H236501   1.574   0.548   5.292 -0.5730  0.5907  0.4124
 5004TIP3   OH236502   3.699   0.482   4.531 -0.1419  0.2991 -0.0175
 5004TIP3    H136503   3.649   0.406   4.500  1.7126 -1.9320  2.0240
 5004TIP3    H236504   3.756   0.504   4.457 -0.6322 -0.3801 -0.6152
 5005TIP3   OH236505   1.788   5.062   3.562  0.2026  0.2911 -0.5558
 5005TIP3    H136506   1.856   5.096   3.620 -1.2688  1.2879  0.6721
 5005TIP3    H236507   1.797   4.967   3.568 -0.0151  0.3512  1.4828
 5006TIP3   OH236508   0.802   2.726  12.109  0.5284 -0.4287  0.0649
 5006TIP3    H136509   0.854   2.802  12.087  1.4122 -0.8944  0.4915
 5006TIP3    H236510   0.763   2.747  12.194  0.1218 -0.1350 -0.1913
 5007TIP3   OH236511   0.551   2.688   0.972 -0.7862 -0.1056  0.2321
 5007TIP3    H136512   0.571   2.599   1.000  0.4126 -0.3596 -1.2847
 5007TIP3    H236513   0.500   2.725   1.044  0.0629 -1.4824  1.6103
 5008TIP3   OH236514   3.854   1.427   0.129 -0.1062  0.0829  0.3135
 5008TIP3    H136515   3.892   1.498   0.078 -0.3905  0.8066  1.0764
 5008TIP3    H236516   3.902   1.349   0.102 -0.2687  0.4309 -1.0679
 5009TIP3   OH236517   6.592   3.248  13.154  0.1013 -0.4678 -0.1143
 5009TIP3    H136518   6.584   3.282  13.065  1.0176 -1.7254 -0.7136
 5009TIP3    H236519   6.684   3.226  13.164  0.0056 -0.3894  1.1360
 5010TIP3   OH236520   4.113   2.622  11.677 -0.3694  0.6466 -0.5662
 5010TIP3    H136521   4.064   2.600  11.757 -0.5600  0.3607 -0.7587
 5010TIP3    H236522   4.196   2.575  11.687 -0.0549  1.2741 -0.1595
 5011TIP3   OH236523   2.683   1.290   2.415 -0.5812 -0.4638  0.2245
 5011TIP3    H136524   2.591   1.315   2.408 -0.6087 -0.6991 -0.2623
 5011TIP3    H236525   2.698   1.283   2.510 -0.7450  0.7387  0.3533
 5012TIP3   OH236526   5.206   5.134  12.251  0.5195  0.0655 -0.5517
 5012TIP3    H136527   5.193   5.225  12.224  1.6313  0.7637  1.0986
 5012TIP3    H236528   5.242   5.140  12.340 -0.6621 -2.0244  0.1424
 5013TIP3   OH236529   4.464   4.475   1.207 -0.6562  0.0332  0.2165
 5013TIP3    H136530   4.392   4.503   1.264 -1.0692  1.8015 -1.0684
 5013TIP3    H236531   4.459   4.535   1.132  0.1662 -1.8763 -1.4563
 5014TIP3   OH236532   5.373   5.499   5.937  0.1512  0.0143  0.4296
 5014TIP3    H136533   5.353   5.440   5.865  2.6292  1.0328 -1.2205
 5014TIP3    H236534   5.315   5.574   5.923 -0.1501 -0.2637  0.1709
 5015TIP3   OH236535   5.687   5.117  16.953  0.3297 -0.0020  0.4824
 5015TIP3    H136536   5.685   5.170  17.033 -1.3396  0.6116  0.0628
 5015TIP3    H236537   5.604   5.070  16.953  0.1740  0.2357 -1.0435
 5016TIP3   OH236538   5.782   0.236   2.565  0.0736 -0.6759 -0.0054
 5016TIP3    H136539   5.784   0.270   2.654 -0.1661 -0.0222 -0.2438
 5016TIP3    H236540   5.694   0.254   2.534 -0.3829 -2.4191  0.1883
 5017TIP3   OH236541   5.891   2.841   3.395  0.2062 -0.1011 -0.7166
 5017TIP3    H136542   5.823   2.904   3.417  0.6582  0.0087  0.4642
 5017TIP3    H236543   5.865   2.805   3.310 -0.5462  0.9832 -0.9591
 5018TIP3   OH236544   3.330   1.669   0.579 -0.3624 -0.6667  0.3631
 5018TIP3    H136545   3.417   1.708   0.589 -0.2516 -0.3431 -1.4499
 5018TIP3    H236546   3.272   1.727   0.628 -0.0517  1.3332 -1.4757
 5019TIP3   OH236547   3.546   3.918  12.949 -0.4234  0.1728  0.1350
 5019TIP3    H136548   3.512   3.871  12.873 -3.7737  0.1396  1.4850
 5019TIP3    H236549   3.602   3.987  12.912 -1.0594 -0.5201 -2.2704
 5020TIP3   OH236550   3.696   6.775   1.830  0.0625 -0.3457 -0.3318
 5020TIP3    H136551   3.780   6.733   1.814  0.0052 -0.6097  0.0457
 5020TIP3    H236552   3.673   6.749   1.919  1.5545  3.0398  1.2481
 5021TIP3   OH236553   5.339   1.267  14.728  0.1563  0.2848 -0.7367
 5021TIP3    H136554   5.420   1.256  14.679  0.1649  1.6811 -1.0750
 5021TIP3    H236555   5.276   1.301  14.664 -0.1316  1.1217 -0.0346
 5022TIP3   OH236556   1.047   3.005   0.385  0.3684 -0.0576  0.7255
 5022TIP3    H136557   1.007   2.981   0.469  0.5623 -0.4035  0.7232
 5022TIP3    H236558   0.974   3.023   0.327  0.2325  1.3161  1.2880
 5023TIP3   OH236559   6.173   0.425   6.472  0.6042 -0.3300 -0.3049
 5023TIP3    H136560   6.213   0.495   6.419 -1.2584  0.5425 -0.6293
 5023TIP3    H236561   6.079   0.440   6.464  0.1987 -2.1256  0.6894
 5024TIP3   OH236562   6.748   4.085   0.562  0.0542 -0.1652  0.1199
 5024TIP3    H136563   6.758   4.076   0.467 -0.9619 -0.8284  0.0581
 5024TIP3    H236564   6.836   4.072   0.597  0.7552  1.6133 -0.8124
 5025TIP3   OH236565   6.486   2.251  17.132  0.2584 -0.1791 -0.5104
 5025TIP3    H136566   6.481   2.338  17.170 -2.1061  1.3773 -3.9107
 5025TIP3    H236567   6.429   2.197  17.187  2.3378  0.0473  2.0856
 5026TIP3   OH236568   0.864   2.360  17.143 -0.0324 -0.5237  0.1092
 5026TIP3    H136569   0.780   2.337  17.183 -0.2388 -1.2531 -0.7290
 5026TIP3    H236570   0.927   2.299  17.181 -0.0661 -0.6248  0.0038
 5027TIP3   OH236571   1.500   4.557  11.331  0.0904 -0.2554  0.1161
 5027TIP3    H136572   1.462   4.491  11.389 -0.2504 -0.0182  0.1670
 5027TIP3    H236573   1.560   4.508  11.275 -0.8086 -0.7498 -0.4307
 5028TIP3   OH236574   2.420   2.132  13.770 -0.3239 -0.0041  0.0889
 5028TIP3    H136575   2.452   2.087  13.692 -1.7689 -0.1911 -0.4301
 5028TIP3    H236576   2.378   2.211  13.736  1.9016  1.6553  0.9546
 5029TIP3   OH236577   5.574   2.093   4.430  0.4312 -0.0474  0.1013
 5029TIP3    H136578   5.668   2.104   4.415  0.3431  0.2479 -0.2282
 5029TIP3    H236579   5.567   2.005   4.469  0.7776 -0.3611 -0.5190
 5030TIP3   OH236580   3.780   0.679  15.942 -0.0594 -0.1733  0.5706
 5030TIP3    H136581   3.741   0.596  15.915  0.2826 -0.2382  0.2750
 5030TIP3    H236582   3.868   0.656  15.971 -0.6957 -0.2400  2.5730
 5031TIP3   OH236583   0.672   4.631  13.418 -0.1221 -0.2789 -0.0762
 5031TIP3    H136584   0.753   4.673  13.446  0.1705 -0.3292 -0.8224
 5031TIP3    H236585   0.616   4.631  13.496  1.7997 -3.2779  1.5116
 5032TIP3   OH236586   4.299   6.132   2.191  0.0055 -0.7076 -0.5629
 5032TIP3    H136587   4.341   6.127   2.277  1.5831 -1.5182 -1.3386
 5032TIP3    H236588   4.205   6.133   2.210  0.3128  1.6895  1.2617
 5033TIP3   OH236589   2.113   6.679  13.531  0.2521 -0.3935 -0.0057
 5033TIP3    H136590   2.137   6.603  13.584 -0.0052  0.9367  2.1377
 5033TIP3    H236591   2.031   6.654  13.490 -0.6738 -0.7612  1.9423
 5034TIP3   OH236592   0.185   1.540  11.008  0.2376 -0.2928  0.1214
 5034TIP3    H136593   0.188   1.451  10.972  0.5212 -0.7993  1.3589
 5034TIP3    H236594   0.225   1.595  10.941  0.4134 -1.1579 -0.4892
 5035TIP3   OH236595   3.207   1.256   0.078  0.1571 -0.3025  0.3627
 5035TIP3    H136596   3.298   1.265   0.106 -0.0015 -0.6805  1.0044
 5035TIP3    H236597   3.213   1.236  -0.016  0.7230 -0.0559  0.3442
 5036TIP3   OH236598   5.860   3.182   2.912  0.1167 -0.4729 -0.4874
 5036TIP3    H136599   5.824   3.104   2.870  0.1735 -0.8761  0.1924
 5036TIP3    H236600   5.784   3.232   2.941  0.0310 -1.5921  1.4425
 5037TIP3   OH236601   5.934   1.336  14.037  0.1726 -0.0630  0.1790
 5037TIP3    H136602   5.890   1.308  13.957 -0.9644  2.6352 -0.2403
 5037TIP3    H236603   6.024   1.355  14.009 -0.0667  0.3290 -0.3298
 5038TIP3   OH236604   1.532   5.231   5.656  0.3187 -0.1651 -0.3428
 5038TIP3    H136605   1.606   5.179   5.687  0.9167  0.3865 -0.8435
 5038TIP3    H236606   1.507   5.284   5.732  0.7889  0.0487 -0.3361
 5039TIP3   OH236607   2.868   4.933   2.251 -0.0278  0.3421  0.4440
 5039TIP3    H136608   2.814   4.931   2.330 -2.1175 -1.3559 -0.9163
 5039TIP3    H236609   2.816   4.887   2.186  3.2574 -1.8168 -0.8955
 5040TIP3   OH236610   0.768   4.935  14.137  0.1510 -0.3496 -0.5819
 5040TIP3    H136611   0.739   4.921  14.047 -0.1538  0.7520 -0.6744
 5040TIP3    H236612   0.816   5.018  14.134  1.0440 -0.8209  0.0797
 5041TIP3   OH236613   1.988   5.943   3.807 -0.6322  0.1256  0.1872
 5041TIP3    H136614   1.919   5.998   3.772 -0.6602  0.5878  0.9407
 5041TIP3    H236615   2.052   6.005   3.843 -0.1193 -0.3071  0.0383
 5042TIP3   OH236616   4.782   4.330   5.121  0.1983 -0.2647  0.2011
 5042TIP3    H136617   4.827   4.247   5.140 -0.7388 -0.7323  0.4486
 5042TIP3    H236618   4.803   4.386   5.195  0.7669 -0.3043  0.0774
 5043TIP3   OH236619   4.061   3.574  12.139  0.4188 -0.9275 -0.5183
 5043TIP3    H136620   3.977   3.539  12.110 -1.7352  1.9125  1.7084
 5043TIP3    H236621   4.082   3.526  12.218  0.2451 -0.8149 -0.4029
 5044TIP3   OH236622   4.878   2.173  14.548 -0.0504 -0.2877  0.1092
 5044TIP3    H136623   4.969   2.200  14.555 -0.4405  0.9012  0.8930
 5044TIP3    H236624   4.854   2.193  14.457  0.2867 -0.0488  0.0726
 5045TIP3   OH236625   2.990   4.921  16.176 -0.1073  0.0548 -0.5220
 5045TIP3    H136626   3.014   5.013  16.185  0.4758 -0.1948  0.6492
 5045TIP3    H236627   3.064   4.882  16.129 -0.9137  0.4024 -2.1358
 5046TIP3   OH236628   5.992   0.329  13.218  0.0308  0.5409  0.1251
 5046TIP3    H136629   6.060   0.314  13.152  0.2760 -2.1359  0.8640
 5046TIP3    H236630   6.034   0.385  13.283  0.9991  0.2282 -0.2138
 5047TIP3   OH236631   6.751   1.407  16.935  0.2792  0.0934  0.3087
 5047TIP3    H136632   6.701   1.458  16.872 -4.5680 -0.2749  3.3694
 5047TIP3    H236633   6.783   1.472  16.998  1.5376  0.0552 -0.2558
 5048TIP3   OH236634   6.679   0.693   0.672  0.3892  0.3677 -0.1997
 5048TIP3    H136635   6.684   0.622   0.737  1.0344  1.3295  0.8510
 5048TIP3    H236636   6.701   0.651   0.589 -0.6146 -0.9388  0.1459
 5049TIP3   OH236637   2.624   3.478  12.446  0.8732  0.1636 -0.1077
 5049TIP3    H136638   2.590   3.476  12.357 -0.5159  0.1650  0.4001
 5049TIP3    H236639   2.696   3.414  12.445 -0.8138 -1.8425 -0.6020
 5050TIP3   OH236640   2.839   4.875   4.434 -0.4321 -0.4366  0.3748
 5050TIP3    H136641   2.893   4.917   4.367 -2.5895 -0.1983 -1.3412
 5050TIP3    H236642   2.825   4.942   4.500  1.1048 -0.4296  0.7245
 5051TIP3   OH236643   4.228   3.737  11.976  0.3888  0.4995  0.0885
 5051TIP3    H136644   4.306   3.731  12.031 -0.2068  0.1827  0.9260
 5051TIP3    H236645   4.172   3.664  12.005  0.8051 -0.8380 -2.1882
 5052TIP3   OH236646   6.129   2.757   4.775  0.1945 -0.2151  0.2662
 5052TIP3    H136647   6.198   2.741   4.839 -0.3647 -2.7200  0.3709
 5052TIP3    H236648   6.049   2.729   4.819 -0.5533  0.4474 -0.6428
 5053TIP3   OH236649   1.112   0.843   4.088 -0.5326  0.1260 -0.0253
 5053TIP3    H136650   1.029   0.807   4.120  0.4486 -0.0031  2.6892
 5053TIP3    H236651   1.165   0.765   4.068 -0.3966  0.1468  0.2387
 5054TIP3   OH236652   5.792   3.620  15.038 -0.1855 -0.1047 -0.8719
 5054TIP3    H136653   5.811   3.640  14.946  0.8843  3.4877 -0.0279
 5054TIP3    H236654   5.876   3.590  15.074  0.6735  2.8327 -0.1719
 5055TIP3   OH236655   2.581   2.038  14.447 -0.3295 -0.4724  0.2373
 5055TIP3    H136656   2.645   2.040  14.376  0.3665  0.0620  0.8657
 5055TIP3    H236657   2.498   2.016  14.404 -0.0445  0.5042 -0.8483
 5056TIP3   OH236658   4.999   6.158   3.026 -0.1279 -0.0039  0.2965
 5056TIP3    H136659   4.987   6.203   2.942 -1.0206 -0.4670  0.1681
 5056TIP3    H236660   4.952   6.213   3.089  0.1616  0.1063  0.4162
 5057TIP3   OH236661   5.555   6.518   1.858 -0.4434 -0.2531 -0.3655
 5057TIP3    H136662   5.541   6.526   1.952 -0.0402 -0.4276 -0.2840
 5057TIP3    H236663   5.628   6.577   1.839 -1.2738  0.6734 -0.7791
 5058TIP3   OH236664   1.986   5.704   1.607  0.1610  0.4702 -0.0575
 5058TIP3    H136665   2.008   5.612   1.622  0.7450  0.3812 -1.3791
 5058TIP3    H236666   1.956   5.735   1.693  1.0303 -0.6478  0.6863
 5059TIP3   OH236667   5.428   3.434   4.071 -0.2204  0.2177 -0.1606
 5059TIP3    H136668   5.450   3.527   4.062 -0.6422  0.2334 -1.1364
 5059TIP3    H236669   5.474   3.406   4.151  1.4189  0.8221 -0.8484
 5060TIP3   OH236670   6.548   3.820   1.927 -0.6179 -0.1840 -0.2592
 5060TIP3    H136671   6.633   3.861   1.908  0.0166 -1.2845  0.1460
 5060TIP3    H236672   6.570   3.734   1.963 -1.9155 -0.8680 -1.0268
 5061TIP3   OH236673   5.453   5.220   5.960  0.2959  0.2125 -0.2400
 5061TIP3    H136674   5.459   5.290   6.025  1.5730 -0.2711  0.1914
 5061TIP3    H236675   5.359   5.208   5.947  0.0017  0.5130  1.3240
 5062TIP3   OH236676   6.801   3.020  16.054 -0.5408  0.1733 -0.1915
 5062TIP3    H136677   6.880   2.973  16.080  0.0211  1.0726 -0.2321
 5062TIP3    H236678   6.730   2.973  16.098  0.0699 -0.2930  0.3216
 5063TIP3   OH236679   5.865   5.833  12.931 -0.0302  0.4600 -0.1085
 5063TIP3    H136680   5.873   5.807  13.023  0.0334  1.8134  0.2876
 5063TIP3    H236681   5.951   5.814  12.894 -0.4899 -1.4810 -0.2948
 5064TIP3   OH236682   3.678   5.990   1.725  0.0887 -0.6379  0.2792
 5064TIP3    H136683   3.743   5.949   1.669 -0.3158 -1.8092  0.6467
 5064TIP3    H236684   3.612   5.922   1.740 -1.0631  0.4033  0.1832
 5065TIP3   OH236685   1.473   3.857   2.730 -0.6568 -0.7580  0.0204
 5065TIP3    H136686   1.384   3.847   2.764 -0.8300 -0.9394 -0.4712
 5065TIP3    H236687   1.500   3.768   2.706 -0.0883 -0.7969  0.7795
 5066TIP3   OH236688   2.017   4.183   4.757 -0.0273 -0.1105 -0.1770
 5066TIP3    H136689   2.060   4.179   4.671 -0.8350 -0.6932 -0.5704
 5066TIP3    H236690   2.016   4.092   4.787  0.7390  0.1596  0.7101
 5067TIP3   OH236691   0.435   0.963  16.767 -0.6450 -0.4242  0.0734
 5067TIP3    H136692   0.505   0.996  16.710 -1.4504  1.8816  0.3146
 5067TIP3    H236693   0.427   0.871  16.742  4.4371 -1.7804  2.0775
 5068TIP3   OH236694   5.444   0.776   5.190 -0.2720  0.2190  0.4869
 5068TIP3    H136695   5.366   0.810   5.234 -0.3188  1.5630 -0.5753
 5068TIP3    H236696   5.514   0.837   5.214  0.2393 -0.3960  0.5992
 5069TIP3   OH236697   5.305   3.807  14.392 -0.0885 -0.2923 -0.3973
 5069TIP3    H136698   5.385   3.772  14.354  0.0540  1.0926 -1.4500
 5069TIP3    H236699   5.274   3.872  14.328 -2.3270 -1.1469 -0.2714
 5070TIP3   OH236700   4.441   5.087   2.114  0.1712 -0.0535  0.3106
 5070TIP3    H136701   4.346   5.096   2.107  0.1399  0.0539  0.8183
 5070TIP3    H236702   4.472   5.090   2.024 -0.4426 -1.5931  0.0135
 5071TIP3   OH236703   1.488   2.557   1.022  0.2618  0.6937  0.2471
 5071TIP3    H136704   1.494   2.552   1.117  0.7850  0.3223  0.1971
 5071TIP3    H236705   1.571   2.597   0.994  1.0957 -1.2280 -0.1965
 5072TIP3   OH236706   6.454   4.402  12.287  0.0633  0.3733  0.0390
 5072TIP3    H136707   6.495   4.322  12.256  1.2155  0.5984  0.9076
 5072TIP3    H236708   6.526   4.456  12.320 -0.7174  1.6474 -0.2456
 5073TIP3   OH236709   0.166   3.314  12.314  0.1004 -0.4074  0.1286
 5073TIP3    H136710   0.119   3.341  12.393  1.2555 -0.2242  0.7923
 5073TIP3    H236711   0.174   3.219  12.323 -0.9194 -0.5564 -0.4465
 5074TIP3   OH236712   2.688   4.933  13.807  0.3903 -0.4845 -0.5402
 5074TIP3    H136713   2.606   4.966  13.768 -0.4644  0.4456  1.8196
 5074TIP3    H236714   2.684   4.838  13.796 -1.4901 -0.5481  0.2797
 5075TIP3   OH236715   1.654   0.154  13.159  0.1016  0.1969 -0.0040
 5075TIP3    H136716   1.691   0.139  13.072 -0.1389  2.4823 -0.5730
 5075TIP3    H236717   1.559   0.142  13.147  0.0678  0.5196 -0.0572
 5076TIP3   OH236718   2.356   2.082  16.240  0.2716 -0.1095 -0.2857
 5076TIP3    H136719   2.405   2.124  16.170 -0.6815 -0.4093 -1.1596
 5076TIP3    H236720   2.281   2.140  16.255 -1.2006 -1.5417 -1.6872
 5077TIP3   OH236721   6.797   2.479  11.247  0.8025 -0.0687 -0.0958
 5077TIP3    H136722   6.887   2.451  11.227  0.4073 -1.9002  0.4748
 5077TIP3    H236723   6.787   2.464  11.341  0.0714  0.6886 -0.0395
 5078TIP3   OH236724   1.863   5.386  16.400  0.8330  0.1504 -0.6880
 5078TIP3    H136725   1.781   5.436  16.396 -0.0386 -1.1078  0.6124
 5078TIP3    H236726   1.903   5.411  16.483  0.3070 -1.3631  0.0611
 5079TIP3   OH236727   0.543   3.975  16.955 -0.0277 -0.4319 -0.5556
 5079TIP3    H136728   0.452   3.946  16.940 -0.7368  0.4214  1.7017
 5079TIP3    H236729   0.537   4.032  17.031  2.4967 -0.6659 -0.1225
 5080TIP3   OH236730   6.623   5.013  16.717 -0.0062  0.4008  0.1742
 5080TIP3    H136731   6.590   4.956  16.787  1.6484  1.0935  1.5794
 5080TIP3    H236732   6.706   4.974  16.692 -1.2903 -0.7952 -2.6744
 5081TIP3   OH236733   0.636   4.294  16.961 -0.3731 -0.2559  0.0648
 5081TIP3    H136734   0.576   4.259  17.027 -0.9220  0.2324 -0.1679
 5081TIP3    H236735   0.583   4.302  16.882 -0.2948  1.1942  0.1430
 5082TIP3   OH236736   4.309   1.233   1.822 -0.1109  0.3698  0.1303
 5082TIP3    H136737   4.214   1.218   1.814  0.1576 -1.4174 -0.2697
 5082TIP3    H236738   4.330   1.202   1.910  0.0875  0.8098  0.2361
 5083TIP3   OH236739   0.073   1.684  16.903  0.2014  0.1001  0.2723
 5083TIP3    H136740   0.129   1.694  16.979  0.9316  2.0382 -0.4422
 5083TIP3    H236741  -0.013   1.717  16.931  0.3642  0.4377  0.3813
 5084TIP3   OH236742   2.666   1.808  14.595 -0.2373 -0.1728  0.4952
 5084TIP3    H136743   2.603   1.737  14.587 -1.4056  0.5391  2.4222
 5084TIP3    H236744   2.625   1.881  14.548  1.2907 -0.8774 -2.1081
 5085TIP3   OH236745   2.957   0.311  14.246  0.3409 -0.2657  0.0064
 5085TIP3    H136746   3.019   0.367  14.200 -0.3529 -0.2265 -0.9123
 5085TIP3    H236747   2.911   0.371  14.306  0.2057 -0.0181 -0.3423
 5086TIP3   OH236748   2.985   3.137   1.574 -0.0696 -0.1582 -0.4322
 5086TIP3    H136749   2.903   3.185   1.559 -0.6349 -0.5667  1.1661
 5086TIP3    H236750   3.032   3.145   1.491 -0.9418  1.5768 -0.8093
 5087TIP3   OH236751   3.606   3.755   3.347  0.2073 -0.4907  0.2606
 5087TIP3    H136752   3.618   3.808   3.425  0.3480  0.1490 -0.1905
 5087TIP3    H236753   3.694   3.748   3.309 -0.1947  1.1637 -1.0848
 5088TIP3   OH236754   0.074   6.593   3.189 -0.2179  0.1233  0.1317
 5088TIP3    H136755   0.038   6.548   3.266 -0.9076 -0.4109 -0.4902
 5088TIP3    H236756   0.161   6.554   3.177 -0.3662 -0.2524  0.2568
 5089TIP3   OH236757   3.488   1.553   5.796  0.9159 -0.0637  0.1642
 5089TIP3    H136758   3.532   1.596   5.722  1.3933  0.9506  1.0132
 5089TIP3    H236759   3.557   1.541   5.861 -0.0147  1.4229  1.4754
 5090TIP3   OH236760   0.692   6.772  10.033  0.2590 -0.0277  0.1162
 5090TIP3    H136761   0.676   6.856   9.991 -0.0968 -0.3896 -0.4870
 5090TIP3    H236762   0.608   6.748  10.072  0.6046  0.3414  1.1120
 5091TIP3   OH236763   1.860   4.006  12.296  0.5420  0.0526  0.0892
 5091TIP3    H136764   1.859   3.942  12.367  0.0518 -0.9753 -0.7978
 5091TIP3    H236765   1.951   4.006  12.265  1.1425  1.6704  1.6730
 5092TIP3   OH236766   4.246   5.272  15.057  1.0093 -0.1185 -0.1420
 5092TIP3    H136767   4.300   5.343  15.023  2.2884 -0.4239  1.1665
 5092TIP3    H236768   4.196   5.312  15.128  1.2169 -0.3668  0.1439
 5093TIP3   OH236769   0.958   5.002   3.388 -0.1070  0.2590 -0.0058
 5093TIP3    H136770   1.019   5.018   3.315 -1.1263 -0.6750 -1.1006
 5093TIP3    H236771   0.985   4.917   3.422  0.9585  1.0995  1.3629
 5094TIP3   OH236772   1.399   1.997  15.736 -0.7195 -0.3530  0.2685
 5094TIP3    H136773   1.308   1.976  15.714 -0.8201  0.1410  0.1936
 5094TIP3    H236774   1.413   1.954  15.821 -0.7164 -1.2243 -0.1640
 5095TIP3   OH236775   3.205   6.334   1.741  0.1725  0.2995 -0.4312
 5095TIP3    H136776   3.225   6.248   1.704  0.0951 -0.1100  0.4534
 5095TIP3    H236777   3.120   6.357   1.705 -0.8653 -1.0237  1.0537
 5096TIP3   OH236778   6.019   5.131  12.446 -0.8774  0.3165 -0.4757
 5096TIP3    H136779   6.005   5.040  12.418 -1.3717  0.0797  0.5030
 5096TIP3    H236780   6.114   5.143  12.443 -0.8673  0.0455 -1.4451
 5097TIP3   OH236781   1.344   6.381   1.850 -0.1924 -0.3041  0.7982
 5097TIP3    H136782   1.327   6.434   1.772 -0.3083  0.7634  1.5204
 5097TIP3    H236783   1.429   6.340   1.834  0.1532  0.5349  0.4390
 5098TIP3   OH236784   5.279   4.108  14.334 -0.1034 -0.5231 -0.2331
 5098TIP3    H136785   5.372   4.086  14.333 -0.0093 -0.1248 -0.6198
 5098TIP3    H236786   5.269   4.167  14.409  0.0167 -0.3034 -0.3901
 5099TIP3   OH236787   4.917   2.926  15.250 -0.0084  0.0307 -0.0209
 5099TIP3    H136788   4.900   2.843  15.295  0.5396  0.0484  0.2235
 5099TIP3    H236789   4.831   2.968  15.244 -0.0654  0.1077  1.1660
 5100TIP3   OH236790   0.226   1.431  12.409  0.4585 -0.9221 -0.2393
 5100TIP3    H136791   0.233   1.350  12.460  1.5916  0.5694  2.1618
 5100TIP3    H236792   0.310   1.475  12.421  0.0396  0.4212 -1.8387
 5101TIP3   OH236793   1.088   6.201   4.844 -0.3006 -0.0818  0.1962
 5101TIP3    H136794   1.128   6.184   4.759 -0.7994  1.0504 -0.2866
 5101TIP3    H236795   1.154   6.173   4.907 -0.2108 -1.6277 -0.5258
 5102TIP3   OH236796   3.046   6.475  14.294 -0.1094  0.2993  0.0449
 5102TIP3    H136797   3.067   6.454  14.203  0.9738  0.4813  0.2439
 5102TIP3    H236798   3.096   6.411  14.345 -1.1075 -0.1344  0.5126
 5103TIP3   OH236799   1.438   1.394   5.099 -0.2015  0.2591 -0.1376
 5103TIP3    H136800   1.445   1.476   5.148  0.8976 -0.0773  0.2966
 5103TIP3    H236801   1.358   1.404   5.047  0.2450  1.8701 -0.5741
 5104TIP3   OH236802   0.453   1.394   5.741 -0.6924 -0.2160  0.1007
 5104TIP3    H136803   0.411   1.323   5.693 -0.6116 -1.0709  1.2699
 5104TIP3    H236804   0.543   1.396   5.707 -0.8900 -0.1853 -0.4383
 5105TIP3   OH236805   4.100   3.229  12.027  0.1030 -0.2192 -0.1300
 5105TIP3    H136806   4.148   3.288  11.969  0.2539 -0.2929 -0.0793
 5105TIP3    H236807   4.048   3.175  11.968 -0.3351  0.2204 -0.1609
 5106TIP3   OH236808   5.095   2.624   3.029  0.1685 -0.3259 -0.5617
 5106TIP3    H136809   5.079   2.635   2.936 -0.6401 -2.0500 -0.6528
 5106TIP3    H236810   5.095   2.530   3.043  2.3107 -0.1814  0.8544
 5107TIP3   OH236811   2.607   2.569  11.912  0.0374  0.0132  0.9234
 5107TIP3    H136812   2.657   2.537  11.987  1.6082  1.0964  0.3824
 5107TIP3    H236813   2.666   2.559  11.838 -0.9551  0.3472  0.0625
 5108TIP3   OH236814   3.149   6.429   5.736 -0.0930 -0.1956  0.0612
 5108TIP3    H136815   3.088   6.373   5.690 -1.6024  1.4942 -0.1227
 5108TIP3    H236816   3.093   6.487   5.789  1.3743  0.8993  0.4828
 5109TIP3   OH236817   2.658   3.138   4.328 -0.3928  0.2444 -0.3255
 5109TIP3    H136818   2.733   3.170   4.277  0.2827  1.5523  1.3853
 5109TIP3    H236819   2.651   3.046   4.303  1.1288  0.3449 -1.3218
 5110TIP3   OH236820   3.803   4.969   0.313  0.2396  0.3088  0.0468
 5110TIP3    H136821   3.860   4.909   0.362 -1.1705  0.0838  1.4678
 5110TIP3    H236822   3.858   4.998   0.240  2.5228  0.7760  1.7942
 5111TIP3   OH236823   3.647   1.931  15.847 -0.5376 -0.6265  0.0775
 5111TIP3    H136824   3.707   1.894  15.782 -0.0818  1.3534 -0.7106
 5111TIP3    H236825   3.601   1.856  15.883  1.9208 -2.1840  0.2066
 5112TIP3   OH236826   4.060   1.340  15.434 -0.6003  0.0981 -0.5486
 5112TIP3    H136827   4.011   1.272  15.388 -2.2060  0.4356  0.5798
 5112TIP3    H236828   4.008   1.358  15.512  1.7972 -0.1055  1.1737
 5113TIP3   OH236829   5.359   1.388  10.825 -0.4302 -0.8750 -0.0884
 5113TIP3    H136830   5.340   1.400  10.732  1.3796  0.2061 -0.3609
 5113TIP3    H236831   5.311   1.309  10.849 -0.1229 -1.7627 -2.1841
 5114TIP3   OH236832   5.534   2.186  11.333 -0.2296  0.1507 -0.0357
 5114TIP3    H136833   5.464   2.211  11.393  0.7203  1.1690  0.6818
 5114TIP3    H236834   5.572   2.269  11.304  0.6457 -0.3794 -0.4586
 5115TIP3   OH236835   0.962   2.045   4.533  0.5980  0.7452 -0.2104
 5115TIP3    H136836   1.016   2.072   4.459  0.3959 -0.4454 -0.8115
 5115TIP3    H236837   1.001   2.090   4.608  2.6797 -0.3505 -0.5459
 5116TIP3   OH236838   3.092   4.427   2.831  0.4276 -0.1878  0.3649
 5116TIP3    H136839   3.122   4.440   2.741  1.3708 -1.4330  0.4845
 5116TIP3    H236840   2.999   4.406   2.822 -0.0098  1.7023 -0.1432
 5117TIP3   OH236841   2.717   4.299  14.728  0.1230 -0.7240 -0.2923
 5117TIP3    H136842   2.651   4.329  14.791  1.1554 -0.4064  0.6639
 5117TIP3    H236843   2.750   4.380  14.688  1.4597 -0.7048  0.8076
 5118TIP3   OH236844   5.430   4.513  12.885 -0.1579  0.4171  0.4399
 5118TIP3    H136845   5.447   4.606  12.876 -0.2132  0.7589  2.9689
 5118TIP3    H236846   5.335   4.508  12.900  0.1032  0.1955  2.2000
 5119TIP3   OH236847   4.686   4.693   3.106  0.4903 -0.3300 -0.6814
 5119TIP3    H136848   4.704   4.695   3.012  0.6768  0.1729 -0.6400
 5119TIP3    H236849   4.743   4.625   3.141 -0.3615 -1.2646 -1.0850
 5120TIP3   OH236850   5.657   2.699  11.600  0.3397 -0.1263  0.4588
 5120TIP3    H136851   5.669   2.651  11.682  0.7771  2.7641  2.2238
 5120TIP3    H236852   5.571   2.740  11.609 -0.3405 -1.0675 -1.3166
 5121TIP3   OH236853   5.040   2.253  12.630 -0.3489  0.7749  0.8270
 5121TIP3    H136854   5.113   2.193  12.649  0.0788  1.2313  0.6446
 5121TIP3    H236855   4.966   2.195  12.611  0.6821  0.2194 -1.9548
 5122TIP3   OH236856   6.499   5.992  11.154 -0.4812 -0.3557 -0.2627
 5122TIP3    H136857   6.595   5.993  11.163 -0.3468  1.4457 -1.4019
 5122TIP3    H236858   6.469   6.063  11.211 -1.0708 -0.3423 -0.5838
 5123TIP3   OH236859   1.683   1.329   2.925  0.4166  0.4127 -0.2759
 5123TIP3    H136860   1.712   1.260   2.984  1.6754  0.5783 -0.6730
 5123TIP3    H236861   1.734   1.406   2.951 -0.3828  0.9831 -0.3607
 5124TIP3   OH236862   6.463   0.421   5.011 -0.5038  0.5228 -0.3624
 5124TIP3    H136863   6.431   0.348   4.958  0.0850 -0.9198  1.1768
 5124TIP3    H236864   6.424   0.499   4.971 -0.1384 -0.4862 -2.8146
 5125TIP3   OH236865   5.549   1.845   4.587  0.1830  0.5347  0.1757
 5125TIP3    H136866   5.637   1.865   4.622  0.5196 -1.6941  0.7810
 5125TIP3    H236867   5.525   1.763   4.630 -0.2237 -1.4125 -3.3881
 5126TIP3   OH236868   1.174   0.881   6.534  0.5574  0.4017 -0.0909
 5126TIP3    H136869   1.202   0.881   6.625  3.4953  0.3284 -0.8896
 5126TIP3    H236870   1.171   0.788   6.510  0.0147  0.4303 -0.1433
 5127TIP3   OH236871   1.626   2.999   2.404 -0.2846  0.1123  0.0603
 5127TIP3    H136872   1.536   3.027   2.419  0.0120  1.5662 -0.7390
 5127TIP3    H236873   1.677   3.080   2.405  0.7900 -0.5200 -1.0271
 5128TIP3   OH236874   1.876   2.187   4.044  0.6472 -0.3042 -0.2711
 5128TIP3    H136875   1.835   2.252   4.101 -0.8902 -0.8711 -0.6761
 5128TIP3    H236876   1.856   2.103   4.085 -0.5867 -0.7347 -1.6443
 5129TIP3   OH236877   4.990   6.244   0.404  0.0389 -0.0766 -0.5357
 5129TIP3    H136878   5.007   6.161   0.449  2.6943  1.4417  1.5124
 5129TIP3    H236879   4.915   6.281   0.450  1.5272  0.5577  1.5364
 5130TIP3   OH236880   4.726   4.807   4.498  0.0361  0.1290 -0.0816
 5130TIP3    H136881   4.756   4.850   4.418 -0.0435  0.2777 -0.0320
 5130TIP3    H236882   4.801   4.810   4.557  0.1041 -0.0069 -0.1614
 5131TIP3   OH236883   2.773   1.029  14.107 -0.0521  0.1762 -0.0887
 5131TIP3    H136884   2.756   1.123  14.111  0.1089  0.2253 -0.4485
 5131TIP3    H236885   2.810   1.007  14.193  0.5572  0.5784 -0.2403
 5132TIP3   OH236886   5.629   0.768  11.155  0.2704 -0.3074 -0.3586
 5132TIP3    H136887   5.638   0.674  11.170  1.9622  0.1674  2.0881
 5132TIP3    H236888   5.541   0.789  11.188  0.2318 -0.8793 -0.0887
 5133TIP3   OH236889   4.335   6.015  14.801  0.7298  0.2895  0.0261
 5133TIP3    H136890   4.259   6.017  14.860  1.1230  1.0484  0.5278
 5133TIP3    H236891   4.301   5.979  14.719 -0.0988  0.3220  0.3423
 5134TIP3   OH236892   3.430   5.038   1.916  0.2757  0.0763 -0.0334
 5134TIP3    H136893   3.369   5.104   1.883 -1.6616 -1.4259  0.3489
 5134TIP3    H236894   3.475   5.005   1.838 -1.1117 -0.4168 -0.6502
 5135TIP3   OH236895   2.408   3.110  15.472  0.4337 -1.1176  0.1734
 5135TIP3    H136896   2.327   3.068  15.500  0.2008 -0.7407  0.0684
 5135TIP3    H236897   2.440   3.054  15.401 -1.3915  0.4188 -1.9826
 5136TIP3   OH236898   1.144   2.528  12.841 -0.2456  0.0892 -0.0231
 5136TIP3    H136899   1.122   2.547  12.932  1.3584  1.1801  0.1759
 5136TIP3    H236900   1.099   2.445  12.822 -2.2818  0.8698  1.0898
 5137TIP3   OH236901   3.577   4.425  15.068 -0.1917 -0.2120 -0.6455
 5137TIP3    H136902   3.617   4.377  14.995  0.2336 -0.9577  0.0572
 5137TIP3    H236903   3.483   4.424  15.049 -0.3617 -2.5393 -0.0034
 5138TIP3   OH236904   1.684   5.064  14.044 -0.3702  0.0042  0.0555
 5138TIP3    H136905   1.674   5.159  14.031  1.8313  0.1491 -1.1369
 5138TIP3    H236906   1.763   5.055  14.097 -0.2259 -1.1894 -0.3300
 5139TIP3   OH236907   1.731   6.566   5.747  0.0155  0.2606  0.1183
 5139TIP3    H136908   1.708   6.655   5.723 -0.1580  0.7581  1.9306
 5139TIP3    H236909   1.648   6.524   5.769  0.1119 -0.3024 -0.5582
 5140TIP3   OH236910   3.944   3.738  14.838  0.3519 -0.6340  0.1097
 5140TIP3    H136911   3.879   3.709  14.774 -0.5620  0.0819  0.6787
 5140TIP3    H236912   3.949   3.667  14.902 -0.0955 -0.5736  0.2158
 5141TIP3   OH236913   3.736   5.109   0.851 -0.6268  0.0655  0.1597
 5141TIP3    H136914   3.817   5.099   0.902 -0.9497  0.9895  0.8750
 5141TIP3    H236915   3.757   5.175   0.786 -0.2203 -1.1035 -0.9409
 5142TIP3   OH236916   2.160   2.059   1.016  0.4193  0.6977 -0.3629
 5142TIP3    H136917   2.246   2.072   0.976  1.4669  0.3622  1.6300
 5142TIP3    H236918   2.170   1.978   1.067 -1.0206  0.7547  0.0408
 5143TIP3   OH236919   4.749   4.878   2.597 -0.0360  0.1185 -0.0896
 5143TIP3    H136920   4.696   4.838   2.666  0.7619  0.6764  0.8734
 5143TIP3    H236921   4.700   4.957   2.572 -0.5181 -0.2869 -0.4467
 5144TIP3   OH236922   6.668   6.553   3.033  0.3281  0.3429 -0.2982
 5144TIP3    H136923   6.599   6.539   3.097 -0.2059  0.9103 -0.7400
 5144TIP3    H236924   6.748   6.562   3.085  0.1682 -0.8990  0.1780
 5145TIP3   OH236925   2.909   5.200  14.642 -0.6045 -1.0856  0.1228
 5145TIP3    H136926   2.860   5.247  14.709 -1.4439 -0.3491 -0.9557
 5145TIP3    H236927   2.978   5.155  14.689 -0.5234  0.2491  1.3529
 5146TIP3   OH236928   1.156   1.269   5.580 -0.0118 -0.2308 -0.0228
 5146TIP3    H136929   1.225   1.225   5.629 -0.2945 -3.0208 -1.8916
 5146TIP3    H236930   1.202   1.323   5.516  0.5366 -1.9768 -1.1727
 5147TIP3   OH236931   5.138   3.231   4.568 -0.0189  0.0975 -0.1898
 5147TIP3    H136932   5.154   3.299   4.634 -0.1935 -1.9878  2.1349
 5147TIP3    H236933   5.066   3.179   4.604  1.5106 -2.6099 -0.7438
 5148TIP3   OH236934   1.398   4.942   4.422  0.1301 -0.5794  0.1606
 5148TIP3    H136935   1.458   5.004   4.464  2.4442 -1.7644 -1.1885
 5148TIP3    H236936   1.368   4.989   4.344  0.5541 -0.5399  0.0168
 5149TIP3   OH236937   2.132   0.507   3.038  0.0477  0.0040  0.4831
 5149TIP3    H136938   2.072   0.441   3.073  0.5553 -0.6902  0.0753
 5149TIP3    H236939   2.136   0.488   2.944  2.3434 -1.1900  0.7574
 5150TIP3   OH236940   5.060   5.340   4.356 -0.1592 -0.4049 -0.1345
 5150TIP3    H136941   4.982   5.392   4.336  1.4062  1.5364 -1.5564
 5150TIP3    H236942   5.030   5.275   4.420 -2.8481  0.4503 -0.4165
 5151TIP3   OH236943   5.401   6.400  16.558 -0.0177  0.1382 -0.3779
 5151TIP3    H136944   5.481   6.453  16.561  0.5710 -0.7520 -0.0487
 5151TIP3    H236945   5.367   6.403  16.647 -1.4974  2.1879 -0.9449
 5152TIP3   OH236946   3.774   2.486  14.536 -0.6006  0.4040 -0.4264
 5152TIP3    H136947   3.843   2.529  14.586 -1.0434 -1.4394  1.9969
 5152TIP3    H236948   3.728   2.431  14.601 -3.1206  0.0753 -2.3161
 5153TIP3   OH236949   0.521   6.027  15.705  0.5583  0.0407 -0.1281
 5153TIP3    H136950   0.549   5.936  15.696 -0.4972 -0.4576  1.2955
 5153TIP3    H236951   0.428   6.022  15.727  0.6077  1.4450  0.5135
 5154TIP3   OH236952   1.506   1.441  11.359  0.2156 -0.1904  0.1226
 5154TIP3    H136953   1.593   1.405  11.342 -0.9551 -2.5104 -1.5409
 5154TIP3    H236954   1.461   1.372  11.408 -0.8592  0.7511  0.5156
 5155TIP3   OH236955   6.296   3.943   4.391  0.6649  0.5399  0.4895
 5155TIP3    H136956   6.214   3.986   4.367  1.0542  0.8374 -0.3645
 5155TIP3    H236957   6.274   3.850   4.396  0.6531  0.3867 -1.5981
 5156TIP3   OH236958   1.790   3.300   5.470 -0.1040 -0.1381 -0.2333
 5156TIP3    H136959   1.755   3.336   5.551  0.2733 -0.0807 -0.0907
 5156TIP3    H236960   1.724   3.319   5.404 -0.1481  0.3434 -0.0538
 5157TIP3   OH236961   0.314   3.330   1.485  1.2892  0.5096 -0.3203
 5157TIP3    H136962   0.303   3.348   1.392 -1.6932  1.2760  0.0625
 5157TIP3    H236963   0.315   3.234   1.491  1.0964  0.4493 -1.1098
 5158TIP3   OH236964   5.027   2.845   3.481  0.0685 -0.2092 -0.5869
 5158TIP3    H136965   4.966   2.836   3.555 -0.2404  0.5180 -0.7445
 5158TIP3    H236966   5.004   2.772   3.423 -1.8519  0.9902 -1.4621
 5159TIP3   OH236967   1.592   6.777  16.271  0.1913 -0.3209 -0.2442
 5159TIP3    H136968   1.668   6.722  16.257 -0.0998 -1.0962  1.0428
 5159TIP3    H236969   1.612   6.858  16.224  2.1005 -0.2492  0.6157
 5160TIP3   OH236970   6.113   1.437  10.590 -0.5260 -0.0354 -0.2639
 5160TIP3    H136971   6.029   1.452  10.547 -1.1746 -1.4419  0.4467
 5160TIP3    H236972   6.091   1.424  10.682  0.5808  0.5239  0.0995
 5161TIP3   OH236973   0.381   3.034  15.372 -0.4917  0.5329  0.3209
 5161TIP3    H136974   0.342   3.011  15.456  0.8668  0.4121  0.9389
 5161TIP3    H236975   0.421   3.120  15.387 -0.0528  0.4111 -0.1364
 5162TIP3   OH236976   6.562   3.402   0.805  0.6628 -0.3199  0.2233
 5162TIP3    H136977   6.614   3.326   0.780 -0.2706 -0.8206 -0.2725
 5162TIP3    H236978   6.570   3.463   0.732 -0.1803 -0.7988 -0.2928
 5163TIP3   OH236979   2.284   3.940  14.755 -0.2766 -0.0076 -0.0271
 5163TIP3    H136980   2.212   3.891  14.715 -0.5265  0.5313 -0.2416
 5163TIP3    H236981   2.362   3.890  14.731 -0.5590 -0.5151  0.0849
 5164TIP3   OH236982   4.112   4.887   3.407  0.5444 -0.2287 -0.2395
 5164TIP3    H136983   4.200   4.860   3.433  0.8047  1.2940  0.6135
 5164TIP3    H236984   4.055   4.850   3.474  0.9424  1.5577  1.1715
 5165TIP3   OH236985   6.599   5.617   4.947  0.0488 -0.2877  0.3403
 5165TIP3    H136986   6.513   5.591   4.915  0.5947 -0.9598 -0.6424
 5165TIP3    H236987   6.649   5.638   4.867  0.7541  0.2166  0.8988
 5166TIP3   OH236988   6.009   0.481  11.740  0.0199 -0.1453  0.1771
 5166TIP3    H136989   5.927   0.444  11.705 -0.5503  1.3338 -0.1250
 5166TIP3    H236990   5.991   0.575  11.748  1.2579  0.0208  1.3628
 5167TIP3   OH236991   3.242   1.583   0.346  0.2325  0.5472  0.3144
 5167TIP3    H136992   3.272   1.619   0.429  1.5311 -0.4153  0.3007
 5167TIP3    H236993   3.215   1.494   0.366  1.0708  0.1190 -0.3583
 5168TIP3   OH236994   0.921   0.983   3.331 -0.2316  0.0625 -0.3460
 5168TIP3    H136995   0.953   0.967   3.420  0.0426 -1.2173 -0.6651
 5168TIP3    H236996   0.979   0.933   3.274 -3.6572 -3.9191 -0.8274
 5169TIP3   OH236997   5.846   5.208  14.203  0.2458 -0.5480  0.4815
 5169TIP3    H136998   5.771   5.168  14.159 -0.5335  0.3597  0.9498
 5169TIP3    H236999   5.844   5.173  14.291  1.1638 -1.5261  0.1355
 5170TIP3   OH237000   3.808   3.546   4.707 -0.0033 -0.4546 -0.5547
 5170TIP3    H137001   3.737   3.571   4.649  0.9833  1.4505 -1.0068
 5170TIP3    H237002   3.774   3.563   4.795  0.3363  1.8270 -0.8146
 5171TIP3   OH237003   1.375   0.860   6.161 -0.1002  0.1308  0.6963
 5171TIP3    H137004   1.343   0.770   6.154 -0.9628  0.3745  1.4099
 5171TIP3    H237005   1.430   0.860   6.239  1.9550 -0.3472 -0.6548
 5172TIP3   OH237006   3.028   1.671   1.798  0.0888 -0.2954 -0.4053
 5172TIP3    H137007   3.079   1.746   1.766  0.7699 -0.6870 -0.2601
 5172TIP3    H237008   3.066   1.596   1.754  0.5822 -0.7637  0.7644
 5173TIP3   OH237009   0.754   3.571   1.642  0.4976  0.2177 -0.1183
 5173TIP3    H137010   0.746   3.498   1.704 -1.2733  0.1725 -0.3630
 5173TIP3    H237011   0.686   3.555   1.577  2.1187  0.4451 -1.9401
 5174TIP3   OH237012   4.711   4.300  12.052 -0.7736 -0.4507 -0.5877
 5174TIP3    H137013   4.726   4.231  12.116 -0.0881 -1.2094 -1.5530
 5174TIP3    H237014   4.664   4.257  11.980 -0.0900  0.0140 -1.3259
 5175TIP3   OH237015   3.271   1.727   4.081 -0.8421  0.1742 -0.7805
 5175TIP3    H137016   3.330   1.679   4.024  0.1540 -0.2925  0.5796
 5175TIP3    H237017   3.203   1.664   4.105  0.2921 -0.5428  0.7516
 5176TIP3   OH237018   0.841   3.680  11.667 -0.1978  0.5243  0.1241
 5176TIP3    H137019   0.779   3.614  11.637 -0.6966  0.1695  1.8527
 5176TIP3    H237020   0.880   3.643  11.746  0.4154  1.7828  0.4368
 5177TIP3   OH237021   5.640   2.927  12.977  0.3660 -0.2310  0.2200
 5177TIP3    H137022   5.634   2.839  12.940  2.1312  0.5866 -2.2560
 5177TIP3    H237023   5.659   2.912  13.070 -0.8309 -2.4302  0.1782
 5178TIP3   OH237024   5.412   3.725   4.298  0.3379 -0.0175 -0.7288
 5178TIP3    H137025   5.349   3.679   4.354  2.5477 -0.0658  1.9401
 5178TIP3    H237026   5.409   3.816   4.328  0.5108  0.2879 -1.6052
 5179TIP3   OH237027   0.390   1.558   3.345  0.1456 -0.0151 -0.2039
 5179TIP3    H137028   0.452   1.526   3.279  0.4171  0.3661 -0.1395
 5179TIP3    H237029   0.431   1.638   3.379 -0.6977  0.6243 -0.6464
 5180TIP3   OH237030   0.167   1.263  16.537 -0.0725  0.2504 -0.4299
 5180TIP3    H137031   0.153   1.354  16.563  1.9971 -0.0264  2.0997
 5180TIP3    H237032   0.131   1.211  16.609 -1.3111 -0.9942 -1.8813
 5181TIP3   OH237033   6.011   3.580   4.671 -0.2238  0.9410  0.0235
 5181TIP3    H137034   6.019   3.485   4.669 -1.8201  0.7263  1.5761
 5181TIP3    H237035   6.074   3.608   4.738 -1.5390  0.6835  1.4286
 5182TIP3   OH237036   2.025   1.841  12.800 -0.1244  0.6858  0.4481
 5182TIP3    H137037   2.108   1.873  12.765  1.0966 -0.9991  1.6113
 5182TIP3    H237038   2.019   1.882  12.887  0.0653  0.0078  0.7962
 5183TIP3   OH237039   5.939   4.286   5.229 -0.0156 -0.8323  0.0612
 5183TIP3    H137040   5.879   4.337   5.174  1.4051 -0.1240 -0.8956
 5183TIP3    H237041   6.026   4.305   5.193  0.6587 -3.0392  0.4170
 5184TIP3   OH237042   1.854   2.449  15.394  0.3539  0.3595  0.0822
 5184TIP3    H137043   1.911   2.526  15.387  1.3602 -0.3901 -0.0918
 5184TIP3    H237044   1.782   2.468  15.332  0.5219  1.2042  0.1288
 5185TIP3   OH237045   1.539   3.372  13.178 -0.2630  0.3149 -0.0645
 5185TIP3    H137046   1.507   3.347  13.092 -3.1876 -1.8721  1.4780
 5185TIP3    H237047   1.469   3.425  13.216  0.3694  0.1163  1.4830
 5186TIP3   OH237048   1.761   4.483   2.354  0.7903 -0.0464  0.8707
 5186TIP3    H137049   1.816   4.415   2.394 -0.9951 -1.5975  0.8143
 5186TIP3    H237050   1.723   4.441   2.278  0.7201  1.5059  0.0078
 5187TIP3   OH237051   0.363   3.311   6.169 -0.1812  0.0243  0.5015
 5187TIP3    H137052   0.447   3.357   6.175  1.2394 -2.3406 -0.0079
 5187TIP3    H237053   0.316   3.336   6.248  0.9890  1.4023  0.8075
 5188TIP3   OH237054   2.351   5.814  14.008 -0.2220  0.1436 -0.2069
 5188TIP3    H137055   2.391   5.772  14.084  2.4779  0.2488 -1.4545
 5188TIP3    H237056   2.397   5.898  14.001 -1.7667  0.9737 -0.8744
 5189TIP3   OH237057   6.100   6.433   3.538 -0.2235 -0.3893 -0.6480
 5189TIP3    H137058   6.028   6.377   3.564 -0.3092 -0.4945 -1.0948
 5189TIP3    H237059   6.154   6.442   3.616 -1.8023  1.3784  0.3294
 5190TIP3   OH237060   0.656   2.943  13.897  0.1529 -0.1753  0.3033
 5190TIP3    H137061   0.674   2.904  13.811 -1.4783 -1.1466  0.3783
 5190TIP3    H237062   0.742   2.974  13.926  0.9325 -0.7575 -1.2109
 5191TIP3   OH237063   0.040   2.075  12.909 -0.4101 -0.3735  0.3244
 5191TIP3    H137064   0.114   2.127  12.879 -0.4791  0.5918  1.7049
 5191TIP3    H237065  -0.036   2.130  12.891 -0.6857 -0.8683 -0.0342
 5192TIP3   OH237066   2.545   1.111  15.048  0.1765 -0.0422 -0.1833
 5192TIP3    H137067   2.473   1.053  15.074 -1.1062  1.2543 -0.6966
 5192TIP3    H237068   2.502   1.195  15.029  2.0620  1.3930  1.4756
 5193TIP3   OH237069   1.399   3.674   6.689 -0.0231 -0.3387  0.3691
 5193TIP3    H137070   1.448   3.594   6.673 -2.0453 -1.2566 -1.9037
 5193TIP3    H237071   1.312   3.657   6.653 -0.8918  2.4853  0.8383
 5194TIP3   OH237072   5.408   4.869  14.686  0.0975  0.0555  0.3255
 5194TIP3    H137073   5.404   4.891  14.593  1.8790 -0.5331  0.0790
 5194TIP3    H237074   5.474   4.928  14.722  0.0461 -0.3170  1.0412
 5195TIP3   OH237075   4.710   1.244   6.660 -0.7299  0.4900  0.1265
 5195TIP3    H137076   4.801   1.258   6.685  0.0371  1.0817 -2.7064
 5195TIP3    H237077   4.707   1.154   6.628 -2.0044 -0.7323  3.2927
 5196TIP3   OH237078   2.212   0.946  14.461 -0.3016 -0.2612 -0.8664
 5196TIP3    H137079   2.226   1.037  14.433 -2.1256  0.6561  0.8667
 5196TIP3    H237080   2.214   0.951  14.557 -1.6264 -1.7962 -0.7156
 5197TIP3   OH237081   2.475   4.846   5.006 -0.2225  0.0119 -0.0895
 5197TIP3    H137082   2.408   4.825   5.071 -0.8547 -3.0142 -1.5643
 5197TIP3    H237083   2.427   4.877   4.930 -0.1048 -2.4273 -1.2506
 5198TIP3   OH237084   1.688   6.714   3.784 -0.1760 -0.1992 -0.2879
 5198TIP3    H137085   1.702   6.623   3.758 -0.0852 -0.4470  0.5902
 5198TIP3    H237086   1.611   6.743   3.735 -0.8186 -1.0740  0.1787
 5199TIP3   OH237087   3.867   3.237   0.383 -0.4753 -0.5858  0.2838
 5199TIP3    H137088   3.829   3.324   0.390 -0.2925 -0.5595  0.9471
 5199TIP3    H237089   3.958   3.248   0.407 -0.3597 -0.8972  0.0033
 5200TIP3   OH237090   0.189   0.450  17.221 -0.3194  0.1221 -0.3090
 5200TIP3    H137091   0.134   0.395  17.278 -1.8822  0.6059 -1.3221
 5200TIP3    H237092   0.129   0.491  17.160  1.1092  1.1492 -1.0940
 5201TIP3   OH237093   4.321   2.151   5.236 -0.1065  0.5330  0.1994
 5201TIP3    H137094   4.309   2.244   5.256  0.0160  0.5406  0.2389
 5201TIP3    H237095   4.374   2.151   5.156  0.4622  0.4927  0.5722
 5202TIP3   OH237096   1.510   1.917  14.652  0.3090  0.4074 -0.3914
 5202TIP3    H137097   1.430   1.966  14.632  0.3213  0.9971  0.9402
 5202TIP3    H237098   1.488   1.826  14.630  0.0497  0.8608 -2.1791
 5203TIP3   OH237099   4.709   5.350  12.555 -0.2372 -0.5113  0.1304
 5203TIP3    H137100   4.723   5.402  12.634  0.5189 -0.5507  0.0351
 5203TIP3    H237101   4.685   5.263  12.587 -0.6755 -0.3296  0.3015
 5204TIP3   OH237102   2.890   3.736  12.690 -0.0345 -0.6510  0.6240
 5204TIP3    H137103   2.804   3.727  12.650  0.2782  1.1656 -0.5925
 5204TIP3    H237104   2.951   3.709  12.622  0.3985 -0.5403  0.9632
 5205TIP3   OH237105   4.326   1.958  11.899 -0.3650 -0.4095  0.0110
 5205TIP3    H137106   4.392   2.013  11.857  1.1289 -3.5697 -2.2643
 5205TIP3    H237107   4.244   1.982  11.857 -0.2253  1.5553  0.7522
 5206TIP3   OH237108   4.496   4.039  17.171 -0.2316 -0.2028  0.1897
 5206TIP3    H137109   4.470   3.996  17.089  0.5441 -1.7524  0.7178
 5206TIP3    H237110   4.555   4.109  17.144  0.1426 -0.8014 -0.5680
 5207TIP3   OH237111   0.582   4.311  12.184 -0.1228 -0.3621  0.1918
 5207TIP3    H137112   0.526   4.257  12.128 -0.0690  0.3915 -0.6239
 5207TIP3    H237113   0.551   4.400  12.169  0.1535 -0.1088  1.0827
 5208TIP3   OH237114   4.261   0.892  11.306  0.5386 -0.3328  0.4042
 5208TIP3    H137115   4.324   0.963  11.322  1.6702 -0.9128 -1.1985
 5208TIP3    H237116   4.316   0.816  11.286 -0.6749 -1.2662  0.5121
 5209TIP3   OH237117   2.620   2.283   1.976 -0.1429 -0.1676  0.2359
 5209TIP3    H137118   2.579   2.325   1.901 -0.6100  1.8794  1.5477
 5209TIP3    H237119   2.549   2.236   2.019 -0.2760  0.1464  0.3643
 5210TIP3   OH237120   0.181   6.600  14.463 -0.9877 -0.4262  0.3239
 5210TIP3    H137121   0.088   6.594  14.439 -0.7727 -0.1417 -0.6191
 5210TIP3    H237122   0.181   6.607  14.559 -1.9001 -1.1821  0.3891
 5211TIP3   OH237123   5.221   2.644  11.809  0.6372  0.5511  0.2195
 5211TIP3    H137124   5.165   2.707  11.854  0.6115  0.5875  0.1369
 5211TIP3    H237125   5.161   2.597  11.750  0.7361  0.7509 -0.0415
 5212TIP3   OH237126   3.368   6.408  11.779 -0.0818 -0.7066  0.4164
 5212TIP3    H137127   3.450   6.449  11.752  1.0830 -3.3655 -0.4054
 5212TIP3    H237128   3.327   6.379  11.697 -0.0732 -2.4990  0.9975
 5213TIP3   OH237129   4.249   2.479   1.894  0.1444 -0.2382 -0.7161
 5213TIP3    H137130   4.211   2.422   1.827  0.3487  0.1015 -1.1270
 5213TIP3    H237131   4.343   2.460   1.890 -0.1147 -2.6149  1.7225
 5214TIP3   OH237132   2.781   5.307   4.784  0.0516  0.0186 -0.0562
 5214TIP3    H137133   2.725   5.261   4.722  1.6643 -1.3009 -0.6114
 5214TIP3    H237134   2.720   5.353   4.842 -1.5915 -1.3684 -0.5893
 5215TIP3   OH237135   1.022   0.459   4.405 -0.5605 -0.5022  0.3429
 5215TIP3    H137136   1.063   0.412   4.333 -1.0314 -0.7382  0.2273
 5215TIP3    H237137   0.928   0.454   4.388 -0.6350  0.2817  0.4511
 5216TIP3   OH237138   5.027   5.017  12.076 -0.5108 -0.4679 -0.2052
 5216TIP3    H137139   5.056   5.029  12.167 -0.0363  1.2673 -0.5474
 5216TIP3    H237140   5.019   4.922  12.066 -3.2998 -0.6930  2.4756
 5217TIP3   OH237141   5.537   1.167   1.798  0.2219  0.3621 -0.2523
 5217TIP3    H137142   5.609   1.146   1.859  0.1368 -0.5767 -0.4517
 5217TIP3    H237143   5.458   1.156   1.851  0.0213 -2.4557 -0.9772
 5218TIP3   OH237144   2.250   5.989   1.270 -0.0818  0.1121  0.5565
 5218TIP3    H137145   2.306   5.933   1.324  0.6663  1.7759  1.5766
 5218TIP3    H237146   2.171   6.001   1.323 -0.4267 -0.3209  0.1457
 5219TIP3   OH237147   2.417   4.539   5.300  0.5921 -0.8238  0.3423
 5219TIP3    H137148   2.480   4.475   5.334  0.2316 -1.1391  0.4271
 5219TIP3    H237149   2.419   4.611   5.363  1.6194 -0.3592 -0.1940
 5220TIP3   OH237150   6.372   5.679  14.512  0.2470 -0.2167 -0.2987
 5220TIP3    H137151   6.439   5.739  14.545 -1.7843  0.5720  2.8276
 5220TIP3    H237152   6.402   5.592  14.540  0.5936 -0.0098 -0.0210
 5221TIP3   OH237153   6.111   3.975   5.672  0.4833 -0.1042 -0.2447
 5221TIP3    H137154   6.031   4.028   5.669  0.9502  0.5859 -0.8839
 5221TIP3    H237155   6.151   3.998   5.757 -0.3736 -1.0346  0.4210
 5222TIP3   OH237156   2.765   3.642   3.878 -0.0324  0.6381 -0.5424
 5222TIP3    H137157   2.678   3.608   3.900 -0.1302  1.8927  1.1889
 5222TIP3    H237158   2.818   3.563   3.861 -0.7846 -0.2970  1.2390
 5223TIP3   OH237159   4.749   4.741   2.090 -0.3788 -0.2971 -0.3219
 5223TIP3    H137160   4.677   4.680   2.071  0.1758 -0.6867 -1.2045
 5223TIP3    H237161   4.826   4.701   2.050  0.4059 -0.0251  0.8439
 5224TIP3   OH237162   3.397   2.195   6.283  0.0591  0.2692 -0.1884
 5224TIP3    H137163   3.335   2.140   6.235  0.7784 -0.0030 -0.8469
 5224TIP3    H237164   3.351   2.220   6.363 -1.3630  1.1319 -1.2298
 5225TIP3   OH237165   0.988   1.091   4.283 -0.0377  0.2576  0.0199
 5225TIP3    H137166   0.942   1.165   4.323  1.8031  1.6003 -0.2295
 5225TIP3    H237167   0.983   1.109   4.189 -0.2541 -0.3630 -0.0881
 5226TIP3   OH237168   3.199   0.740   6.123 -0.2779 -0.5158  0.2595
 5226TIP3    H137169   3.207   0.646   6.108  0.0712 -0.5033  0.3567
 5226TIP3    H237170   3.156   0.747   6.209 -2.4080 -0.5853 -0.7367
 5227TIP3   OH237171   1.630   5.838   1.912 -0.8238 -0.3596  0.1517
 5227TIP3    H137172   1.640   5.906   1.978  0.4325 -0.1000 -0.2983
 5227TIP3    H237173   1.554   5.787   1.942 -1.4317  0.8816  0.7840
 5228TIP3   OH237174   4.573   4.508   6.532 -0.0962  0.1076  0.1286
 5228TIP3    H137175   4.503   4.452   6.499  0.9991 -0.4863 -1.2782
 5228TIP3    H237176   4.543   4.597   6.515 -0.9391 -0.1044  0.4612
 5229TIP3   OH237177   6.737   5.207   5.781  0.2740  0.1663 -0.0267
 5229TIP3    H137178   6.692   5.128   5.751 -0.7420  0.7374 -0.0610
 5229TIP3    H237179   6.672   5.277   5.770  1.3264  1.0915 -0.4704
 5230TIP3   OH237180   3.515   4.787  10.399 -0.4166  0.2324 -0.5316
 5230TIP3    H137181   3.544   4.872  10.365  1.2339 -0.6478 -1.4906
 5230TIP3    H237182   3.424   4.780  10.372  0.1947  0.5445 -2.9320
 5231TIP3   OH237183   0.557   2.370   5.691  0.5355  0.0642  0.0902
 5231TIP3    H137184   0.471   2.410   5.707 -0.2125 -1.6001  0.4744
 5231TIP3    H237185   0.615   2.412   5.754 -0.3967 -0.0157  1.0391
 5232TIP3   OH237186   2.954   3.288  16.671 -0.1479  0.2244  0.2700
 5232TIP3    H137187   2.863   3.297  16.700 -1.1614 -2.1618 -1.7760
 5232TIP3    H237188   2.961   3.346  16.595  0.0511  0.4150  0.4322
 5233TIP3   OH237189   1.061   2.215   0.021 -0.5188 -0.0794 -0.1171
 5233TIP3    H137190   1.036   2.221   0.113 -0.4656 -0.8405 -0.0432
 5233TIP3    H237191   1.154   2.239   0.019 -1.2715  3.3418 -0.4729
 5234TIP3   OH237192   3.097   1.223  11.786  0.0039 -0.4366 -0.7194
 5234TIP3    H137193   3.113   1.155  11.720 -1.9487 -0.6563 -1.0341
 5234TIP3    H237194   3.047   1.290  11.739 -1.4624 -0.6129  0.5098
 5235TIP3   OH237195   5.912   2.183   4.784 -0.1801  0.1653  0.0420
 5235TIP3    H137196   5.947   2.149   4.867  1.1696  1.2256 -0.0480
 5235TIP3    H237197   5.862   2.261   4.809 -0.5165 -0.0192 -0.0568
 5236TIP3   OH237198   3.229   3.644  11.197  0.6067  0.0665  0.5021
 5236TIP3    H137199   3.241   3.704  11.123 -0.0769  1.0574  1.1687
 5236TIP3    H237200   3.144   3.669  11.234 -0.5079 -2.4032 -0.1811
 5237TIP3   OH237201   2.987   5.311   1.850  0.2172 -0.1466 -0.1895
 5237TIP3    H137202   2.945   5.336   1.932  1.1162  1.5381 -0.2138
 5237TIP3    H237203   2.938   5.358   1.782 -0.0877 -0.9922 -0.5748
 5238TIP3   OH237204   1.392   2.079   3.617  0.4027  0.1458  0.7114
 5238TIP3    H137205   1.453   2.089   3.544  0.6927  1.8741  1.1436
 5238TIP3    H237206   1.312   2.045   3.578  0.5613  1.0241 -0.4319
 5239TIP3   OH237207   1.907   2.233   2.320  0.0955 -0.4007  0.3472
 5239TIP3    H137208   1.886   2.220   2.228 -2.2768  0.0228  0.7440
 5239TIP3    H237209   1.822   2.249   2.362  1.3102  1.9226  2.1934
 5240TIP3   OH237210   2.833   5.040  14.914 -0.1411 -0.3070  0.0088
 5240TIP3    H137211   2.834   5.015  15.006 -0.1604  0.8301  0.3332
 5240TIP3    H237212   2.926   5.051  14.891 -0.1844  0.8999  0.3362
 5241TIP3   OH237213   5.291   4.985  11.483 -0.4718 -0.6014 -0.2291
 5241TIP3    H137214   5.354   5.055  11.503 -0.3476 -0.8142  0.1310
 5241TIP3    H237215   5.311   4.961  11.392 -1.1544  0.4879 -0.6866
 5242TIP3   OH237216   2.461   0.991   1.464 -0.1673 -0.4275  0.3703
 5242TIP3    H137217   2.378   0.980   1.418 -0.1890 -0.4806  0.4235
 5242TIP3    H237218   2.517   1.036   1.400 -0.3789  0.0150  0.4940
 5243TIP3   OH237219   4.770   1.766  13.492  0.3980  0.8895  0.4884
 5243TIP3    H137220   4.791   1.689  13.439  3.3884  2.3764 -0.7599
 5243TIP3    H237221   4.677   1.780  13.478 -0.1276 -2.0876  0.2726
 5244TIP3   OH237222   0.836   3.469  14.471 -0.2378  0.2751  0.1070
 5244TIP3    H137223   0.863   3.414  14.398  2.9741  2.0849 -0.2344
 5244TIP3    H237224   0.753   3.508  14.442  0.5884  0.3922 -2.3034
 5245TIP3   OH237225   4.565   0.426   3.147 -0.4130 -0.2031 -0.1507
 5245TIP3    H137226   4.610   0.351   3.108 -1.2908 -0.5520 -0.5085
 5245TIP3    H237227   4.496   0.449   3.085 -0.7422  0.3188  0.3880
 5246TIP3   OH237228   4.356   1.794   2.878 -0.4478 -0.3428 -0.0450
 5246TIP3    H137229   4.320   1.882   2.868 -0.7698 -0.3571  0.8686
 5246TIP3    H237230   4.373   1.764   2.788  0.3225  0.9132 -0.3407
 5247TIP3   OH237231   3.922   0.168  15.146  0.1591  0.0815  0.0765
 5247TIP3    H137232   3.856   0.235  15.159 -0.6040 -0.9174  1.6630
 5247TIP3    H237233   3.884   0.108  15.082 -0.2977 -0.2342  0.6314
 5248TIP3   OH237234   6.674   0.391   0.082  0.8804 -0.4298  0.1673
 5248TIP3    H137235   6.608   0.351   0.025  1.4667 -0.1201 -0.7489
 5248TIP3    H237236   6.643   0.481   0.096  0.5456 -0.6165  0.6553
 5249TIP3   OH237237   0.355   0.424   0.324 -0.0364  0.4263  0.4375
 5249TIP3    H137238   0.285   0.385   0.272 -0.5342  1.9440 -0.0820
 5249TIP3    H237239   0.383   0.354   0.384 -1.5811 -0.3800  0.2543
 5250TIP3   OH237240   4.600   6.576   5.560  0.1943  0.3444  0.0739
 5250TIP3    H137241   4.531   6.639   5.582 -0.2601 -0.4837  1.0920
 5250TIP3    H237242   4.558   6.513   5.501 -0.1841 -0.6505  1.3755
 5251TIP3   OH237243   2.091   0.254  14.009  0.4788  0.5427  0.1460
 5251TIP3    H137244   2.087   0.158  14.012  0.1026  0.5761  0.7749
 5251TIP3    H237245   2.122   0.273  13.920  0.5482 -0.1611  0.0101
 5252TIP3   OH237246   1.560   3.317   2.106 -0.2113 -0.2322  0.3092
 5252TIP3    H137247   1.496   3.348   2.171  0.5162 -0.8390  1.3388
 5252TIP3    H237248   1.645   3.341   2.143  0.1761  1.7087 -1.6401
 5253TIP3   OH237249   1.717   4.228  15.270 -0.7883 -0.9053  0.3918
 5253TIP3    H137250   1.691   4.136  15.268 -0.6919 -0.9231 -0.1754
 5253TIP3    H237251   1.811   4.227  15.286 -0.4558 -0.9806 -1.3701
 5254TIP3   OH237252   6.368   6.596  12.475  0.9432 -0.2511  0.9276
 5254TIP3    H137253   6.371   6.543  12.396 -1.0341  0.2009  0.4976
 5254TIP3    H237254   6.335   6.538  12.543  1.5708 -0.3381  1.1639
 5255TIP3   OH237255   4.456   5.016  14.956  0.0980 -0.2645  0.1568
 5255TIP3    H137256   4.395   5.009  15.029 -2.0014  0.7468 -1.3938
 5255TIP3    H237257   4.518   5.083  14.983 -2.2624  2.1415  0.0469
 5256TIP3   OH237258   6.708   4.299   6.191  0.0989  0.4355 -0.1974
 5256TIP3    H137259   6.634   4.260   6.144  0.0262  2.4471 -1.9460
 5256TIP3    H237260   6.667   4.354   6.258  0.0190  0.8093 -0.5460
 5257TIP3   OH237261   6.731   1.858  10.726 -0.4387 -0.7530 -0.3436
 5257TIP3    H137262   6.818   1.822  10.709  0.8565  1.4334  1.0812
 5257TIP3    H237263   6.707   1.824  10.812  1.6959  2.9219  1.9884
 5258TIP3   OH237264   5.717   4.370  14.900 -0.2619  0.1281 -0.0338
 5258TIP3    H137265   5.798   4.324  14.879 -0.2132  1.0495 -2.1673
 5258TIP3    H237266   5.726   4.396  14.992  1.1687 -1.0917  0.1996
 5259TIP3   OH237267   2.493   2.782   2.925  0.0885  0.4534 -0.1076
 5259TIP3    H137268   2.584   2.783   2.895  0.0834 -1.0470 -0.2734
 5259TIP3    H237269   2.485   2.700   2.974 -1.3968  0.1489 -0.8050
 5260TIP3   OH237270   2.390   6.102   2.847  0.0132 -0.5966  0.3864
 5260TIP3    H137271   2.317   6.121   2.789  0.7064 -0.3551 -0.4306
 5260TIP3    H237272   2.352   6.103   2.935 -1.0451 -0.9519 -0.0545
 5261TIP3   OH237273   3.585   2.313  16.746 -0.0298 -0.1182  0.0064
 5261TIP3    H137274   3.525   2.310  16.820 -0.4410  1.5557 -0.2162
 5261TIP3    H237275   3.603   2.407  16.734 -1.5807 -0.1191 -3.2860
 5262TIP3   OH237276   0.411   5.834   4.533  0.1035  0.0638 -0.6030
 5262TIP3    H137277   0.477   5.903   4.534  2.7765 -2.2515  2.0729
 5262TIP3    H237278   0.426   5.788   4.450  1.7710 -0.2507 -0.1654
 5263TIP3   OH237279   3.265   5.628  14.287  0.5214  0.1193 -0.6969
 5263TIP3    H137280   3.214   5.677  14.223 -0.4554 -2.3102 -1.9159
 5263TIP3    H237281   3.303   5.695  14.344 -1.7776  2.1853 -1.4049
 5264TIP3   OH237282   3.877   4.057   2.039 -0.3002 -0.0955  0.1016
 5264TIP3    H137283   3.829   4.090   1.964 -0.5240 -1.2469 -0.2757
 5264TIP3    H237284   3.853   3.965   2.044 -0.4761  0.0101  1.7294
 5265TIP3   OH237285   1.422   3.491  12.754 -0.2075 -0.1678 -0.4923
 5265TIP3    H137286   1.444   3.549  12.681  0.0004 -1.8012 -1.8034
 5265TIP3    H237287   1.372   3.420  12.713 -0.8699 -0.6735  1.1262
 5266TIP3   OH237288   5.518   0.565  11.352 -0.0974  0.7753 -0.3707
 5266TIP3    H137289   5.567   0.484  11.339 -0.8203  0.3277 -0.3691
 5266TIP3    H237290   5.426   0.538  11.353 -0.5005  1.8676 -2.5014
 5267TIP3   OH237291   3.522   6.769   4.469 -0.0360 -0.0763  0.2368
 5267TIP3    H137292   3.594   6.707   4.454  0.6743  0.7864 -0.0633
 5267TIP3    H237293   3.502   6.761   4.562 -0.1374 -0.9406  0.1492
 5268TIP3   OH237294   5.456   0.754  16.971 -0.1743 -0.5072  0.0994
 5268TIP3    H137295   5.367   0.733  16.998  0.4492 -0.8242  2.0678
 5268TIP3    H237296   5.511   0.694  17.022  1.2640  0.9113  0.2826
 5269TIP3   OH237297   5.393   1.999  15.657  0.1486  0.0130 -0.1830
 5269TIP3    H137298   5.478   1.982  15.697 -0.3901 -0.0148  0.9798
 5269TIP3    H237299   5.360   1.912  15.634 -0.9390 -0.3424  2.3191
 5270TIP3   OH237300   4.733   3.577   6.648 -0.0613 -0.0335 -0.7915
 5270TIP3    H137301   4.734   3.652   6.708  0.6516 -1.3051  0.8462
 5270TIP3    H237302   4.792   3.603   6.577 -0.6658  1.3726 -0.8226
 5271TIP3   OH237303   3.208   2.032   6.153 -0.1377  0.6065  0.2184
 5271TIP3    H137304   3.153   2.013   6.078  1.3860 -0.5035 -0.6699
 5271TIP3    H237305   3.153   2.013   6.229 -0.8028 -1.0281 -0.6299
 5272TIP3   OH237306   2.313   3.520   1.567  0.5640 -0.3619  0.1639
 5272TIP3    H137307   2.319   3.578   1.644  0.7245 -1.8254  1.3045
 5272TIP3    H237308   2.321   3.579   1.492 -0.0644  1.1801  1.2500
 5273TIP3   OH237309   1.383   3.581   0.397  0.2725  0.0097 -0.1702
 5273TIP3    H137310   1.466   3.609   0.437 -0.6725  0.9002  1.2643
 5273TIP3    H237311   1.358   3.503   0.447 -0.6334  0.7940  0.6365
 5274TIP3   OH237312   6.816   5.905   2.696  0.2797 -0.0004 -0.2527
 5274TIP3    H137313   6.872   5.930   2.622  0.4790 -0.0388 -0.1151
 5274TIP3    H237314   6.873   5.853   2.752 -0.8715 -3.5381 -2.0438
 5275TIP3   OH237315   3.451   3.883   3.624 -0.0518  0.3084 -0.2257
 5275TIP3    H137316   3.452   3.935   3.704  0.0917  1.5659 -1.0138
 5275TIP3    H237317   3.462   3.793   3.653 -0.0825  0.7390  1.1653
 5276TIP3   OH237318   1.659   0.122   1.991  0.1179 -0.3605  0.2929
 5276TIP3    H137319   1.623   0.033   1.984 -0.2526 -0.5201  3.0889
 5276TIP3    H237320   1.602   0.175   1.935 -1.5631 -1.4284  0.9001
 5277TIP3   OH237321   4.266   2.565   0.517 -0.6458  0.1577 -0.5593
 5277TIP3    H137322   4.305   2.632   0.574  1.2234 -2.1476  1.0742
 5277TIP3    H237323   4.270   2.604   0.429  1.4399  1.7843  0.1564
 5278TIP3   OH237324   6.496   1.251  12.656 -0.4182  0.2437  0.3469
 5278TIP3    H137325   6.505   1.163  12.617 -0.2653  0.2945  0.2625
 5278TIP3    H237326   6.587   1.282  12.664 -0.5235  0.8899 -0.7720
 5279TIP3   OH237327   2.077   3.298   0.797  0.2000  0.7768  0.0619
 5279TIP3    H137328   2.135   3.223   0.810 -0.3846  0.6045  2.0143
 5279TIP3    H237329   2.123   3.353   0.735  0.7560 -1.0728 -1.2545
 5280TIP3   OH237330   4.448   5.230  17.019  0.1836  0.3320  0.0327
 5280TIP3    H137331   4.440   5.226  16.924 -0.5343  1.2313  0.0427
 5280TIP3    H237332   4.520   5.290  17.035  0.6589 -0.2366  0.0597
 5281TIP3   OH237333   3.575   3.411  14.748 -0.2035  0.1961 -0.1305
 5281TIP3    H137334   3.489   3.370  14.743 -0.5296  0.8996 -0.2239
 5281TIP3    H237335   3.591   3.447  14.661  0.8067 -1.1618 -0.5478
 5282TIP3   OH237336   6.034   6.408  12.616  1.3155 -0.6582  0.4369
 5282TIP3    H137337   5.941   6.404  12.593  1.1386 -1.0832  1.1987
 5282TIP3    H237338   6.051   6.502  12.627  0.6499 -0.6455  1.5344
 5283TIP3   OH237339   1.569   2.932  15.823 -0.4167  0.1766  0.5692
 5283TIP3    H137340   1.508   2.988  15.872 -1.4308 -0.8300  0.5129
 5283TIP3    H237341   1.597   2.986  15.749 -0.7497  0.8838  0.9455
 5284TIP3   OH237342   4.054   4.266   4.499  0.1046  0.2852  0.4123
 5284TIP3    H137343   4.031   4.344   4.447  0.5335 -0.6178 -1.1996
 5284TIP3    H237344   4.027   4.288   4.588  0.7172  2.4879  0.1107
 5285TIP3   OH237345   5.787   2.099  12.984  0.9337  0.6244 -0.6923
 5285TIP3    H137346   5.825   2.020  12.945  0.0034 -1.3582  2.1279
 5285TIP3    H237347   5.859   2.139  13.033  1.6539  2.1887 -2.8419
 5286TIP3   OH237348   0.129   5.034  13.079 -0.3999 -0.0782  0.0205
 5286TIP3    H137349   0.086   5.099  13.134 -0.1051  0.1548 -0.0241
 5286TIP3    H237350   0.154   5.081  12.999  1.1366  0.1455  0.5904
 5287TIP3   OH237351   1.278   5.239  12.719  0.7661  0.0339  0.1555
 5287TIP3    H137352   1.191   5.272  12.738  0.2808 -1.0344 -0.1304
 5287TIP3    H237353   1.328   5.258  12.799 -0.6009 -2.1949  1.6747
 5288TIP3   OH237354   1.167   5.676  17.223 -0.0842 -0.4458  0.2881
 5288TIP3    H137355   1.111   5.607  17.257 -0.0732 -1.3409 -1.3850
 5288TIP3    H237356   1.242   5.630  17.185 -0.5446  0.3505 -1.7523
 5289TIP3   OH237357   4.884   5.073   5.909  1.1413  0.0400  0.8886
 5289TIP3    H137358   4.792   5.091   5.929 -0.1891 -1.0692 -3.3230
 5289TIP3    H237359   4.927   5.157   5.921 -0.6758  0.9309  1.6249
 5290TIP3   OH237360   6.766   0.191   4.441  0.4776  0.5601  0.0064
 5290TIP3    H137361   6.761   0.201   4.345  1.0223  2.0654  0.1054
 5290TIP3    H237362   6.763   0.281   4.474  0.0512  0.0448  1.4281
 5291TIP3   OH237363   1.233   0.391  10.413 -0.0018 -0.0566  0.4017
 5291TIP3    H137364   1.172   0.453  10.452 -1.5894 -1.2340 -0.0848
 5291TIP3    H237365   1.284   0.443  10.351 -2.2475  0.5817 -1.0281
 5292TIP3   OH237366   3.360   3.741  12.483 -0.3423  0.1911 -0.1964
 5292TIP3    H137367   3.365   3.646  12.481  0.9610  0.2121  0.7834
 5292TIP3    H237368   3.343   3.762  12.575  1.3153  0.9409 -0.0273
 5293TIP3   OH237369   6.585   1.544   1.162 -0.7853  0.1500 -0.4436
 5293TIP3    H137370   6.506   1.573   1.207  0.4140  1.2231  1.1123
 5293TIP3    H237371   6.651   1.540   1.231  0.6652 -0.1221 -1.7870
 5294TIP3   OH237372   0.153   5.274   3.817 -0.3959  0.2555  0.4142
 5294TIP3    H137373   0.133   5.245   3.906  0.9129  0.7568  0.8899
 5294TIP3    H237374   0.131   5.368   3.816 -2.2183 -0.1234 -0.3833
 5295TIP3   OH237375   2.837   4.086  10.948  0.2755 -0.1956 -0.1269
 5295TIP3    H137376   2.821   3.991  10.947  1.4872 -0.4207  0.1023
 5295TIP3    H237377   2.777   4.121  10.882  0.6361 -1.2805 -1.0726
 5296TIP3   OH237378   2.715   6.388  10.775  0.0075  0.6253  0.1078
 5296TIP3    H137379   2.636   6.424  10.816 -0.0614  1.3071 -0.6037
 5296TIP3    H237380   2.779   6.459  10.782  1.5426 -0.8607  3.2928
 5297TIP3   OH237381   4.408   5.755  14.248  0.6498  0.2792 -0.0792
 5297TIP3    H137382   4.503   5.748  14.252  0.7624  0.8654 -1.2756
 5297TIP3    H237383   4.382   5.694  14.179 -0.2199 -2.4031  2.4172
 5298TIP3   OH237384   5.075   5.675   5.884  0.2097 -0.5079  0.0705
 5298TIP3    H137385   5.065   5.639   5.796 -0.4437  0.6488 -0.3461
 5298TIP3    H237386   4.987   5.673   5.921  0.3873 -0.4813  0.5095
 5299TIP3   OH237387   6.157   6.354   2.005 -0.5171 -0.3721 -0.2769
 5299TIP3    H137388   6.176   6.352   1.911 -0.8061  1.5821 -0.4039
 5299TIP3    H237389   6.062   6.350   2.011 -0.5421  0.4452 -0.1113
 5300TIP3   OH237390   3.231   3.418   3.150  0.2054 -0.2490  0.0967
 5300TIP3    H137391   3.184   3.359   3.209  1.9740 -0.3588  1.4653
 5300TIP3    H237392   3.287   3.470   3.207  1.9231 -0.2951 -1.4544
 5301TIP3   OH237393   1.019   5.541  15.099 -0.5034 -0.0021  0.1858
 5301TIP3    H137394   1.089   5.481  15.122 -1.2654 -0.8467  0.3656
 5301TIP3    H237395   0.951   5.524  15.165 -1.2701  0.0868 -0.5677
 5302TIP3   OH237396   5.860   1.126   5.289 -0.2553  0.2856  0.0794
 5302TIP3    H137397   5.841   1.178   5.367 -1.7838  0.4857 -0.3919
 5302TIP3    H237398   5.798   1.053   5.293 -0.1127  0.1067 -0.7512
 5303TIP3   OH237399   3.470   1.802  11.897 -0.5263 -0.1709  0.2033
 5303TIP3    H137400   3.413   1.817  11.821 -1.0603  2.1203  0.9924
 5303TIP3    H237401   3.410   1.796  11.971  0.0550 -1.4768  0.5884
 5304TIP3   OH237402   0.080   3.770  12.686  0.7148 -0.1824 -0.7469
 5304TIP3    H137403   0.161   3.798  12.728  1.0899 -1.5486 -0.5161
 5304TIP3    H237404   0.103   3.763  12.593  0.6265  0.2388 -0.8016
 5305TIP3   OH237405   5.815   1.033  13.098 -0.4776  0.1043 -0.4870
 5305TIP3    H137406   5.861   0.960  13.138 -0.5448  0.4692  0.2850
 5305TIP3    H237407   5.884   1.089  13.063 -0.3126  0.6195  0.6127
 5306TIP3   OH237408   2.876   2.614   1.286  0.2506 -0.0363  0.6356
 5306TIP3    H137409   2.854   2.647   1.199  0.6449 -0.8394  0.2180
 5306TIP3    H237410   2.900   2.692   1.336 -0.6362  0.5089  0.2317
 5307TIP3   OH237411   6.164   6.110  11.290  0.3601  0.1566  0.6371
 5307TIP3    H137412   6.231   6.177  11.299  0.3234  0.5813 -1.5448
 5307TIP3    H237413   6.081   6.156  11.302  0.3827  0.1502  0.8200
 5308TIP3   OH237414   0.090   4.245  15.677  0.1891  0.1092 -0.9510
 5308TIP3    H137415   0.112   4.337  15.666 -0.2631  0.4321  0.5745
 5308TIP3    H237416   0.175   4.200  15.681  0.5206  0.8239  0.9333
 5309TIP3   OH237417   6.723   5.263   2.276  0.5082  0.2164  0.3623
 5309TIP3    H137418   6.753   5.205   2.207  0.8250  1.4214 -0.5496
 5309TIP3    H237419   6.803   5.293   2.319  0.4770  1.2895 -0.2889
 5310TIP3   OH237420   5.611   4.830   2.080 -0.3753 -0.0511 -0.0282
 5310TIP3    H137421   5.639   4.755   2.028  1.6379  0.0592  0.8235
 5310TIP3    H237422   5.576   4.892   2.016 -0.1798 -0.8800 -0.9600
 5311TIP3   OH237423   5.495   3.014  12.612  0.3903 -0.3597 -0.0963
 5311TIP3    H137424   5.558   2.988  12.544 -1.4998 -2.1989 -1.2523
 5311TIP3    H237425   5.414   2.970  12.587 -1.2812  1.6056  1.5555
 5312TIP3   OH237426   0.065   2.785  14.526 -0.7220 -0.0829  0.3600
 5312TIP3    H137427   0.105   2.711  14.481  0.7392 -0.2235  1.7621
 5312TIP3    H237428   0.139   2.841  14.550 -1.7294  1.4836 -0.0233
 5313TIP3   OH237429   1.704   1.214   5.582 -0.0268  0.9327  0.0566
 5313TIP3    H137430   1.651   1.170   5.648 -0.8564  1.0314 -0.5234
 5313TIP3    H237431   1.665   1.301   5.575  0.1945  0.9953 -0.4034
 5314TIP3   OH237432   4.680   5.766  14.206  0.1750  0.3844  0.0209
 5314TIP3    H137433   4.764   5.743  14.166  2.0480  2.1556  2.6092
 5314TIP3    H237434   4.672   5.860  14.190 -0.5116  0.5306  1.1450
 5315TIP3   OH237435   6.539   2.006   0.354 -0.1075  0.0355  0.0328
 5315TIP3    H137436   6.513   1.948   0.426 -0.6714  0.6146  0.3055
 5315TIP3    H237437   6.599   1.953   0.301 -1.6553 -1.2702 -0.4827
 5316TIP3   OH237438   3.071   3.517  12.628  0.2205 -0.4913  0.1418
 5316TIP3    H137439   3.124   3.579  12.678 -0.3984 -0.8348  1.2421
 5316TIP3    H237440   3.117   3.434  12.635  0.2649 -0.4864 -0.0780
 5317TIP3   OH237441   6.220   0.410   3.858  0.3254 -0.2888 -0.0170
 5317TIP3    H137442   6.205   0.504   3.848  1.4365  0.1017  1.6414
 5317TIP3    H237443   6.164   0.370   3.791  0.0947  1.5482 -0.9938
 5318TIP3   OH237444   5.942   0.214   1.701  0.0488  0.2855 -0.3888
 5318TIP3    H137445   5.895   0.167   1.770 -0.8722  0.6070 -0.7887
 5318TIP3    H237446   6.029   0.174   1.700  0.4752  1.0323  1.7391
 5319TIP3   OH237447   3.410   4.236   4.800 -0.5052  0.9643 -0.0684
 5319TIP3    H137448   3.446   4.236   4.889  0.6428  1.0310 -0.5144
 5319TIP3    H237449   3.386   4.328   4.785  0.8192  1.2737 -0.4023
 5320TIP3   OH237450   2.202   1.034  15.770 -0.3506 -0.1866 -0.7926
 5320TIP3    H137451   2.263   1.073  15.832 -1.4791  0.1259  0.1731
 5320TIP3    H237452   2.172   0.954  15.813  0.4943 -1.1556 -1.9207
 5321TIP3   OH237453   6.250   6.652   1.187  0.1008 -0.0722 -0.4154
 5321TIP3    H137454   6.185   6.712   1.152  2.2913  1.3665 -2.2530
 5321TIP3    H237455   6.254   6.673   1.281 -0.1349  1.7306 -0.7759
 5322TIP3   OH237456   5.580   4.005   5.823 -0.8780  0.0990 -0.3292
 5322TIP3    H137457   5.575   4.076   5.887 -0.8627 -0.6164  0.4860
 5322TIP3    H237458   5.491   3.970   5.819 -0.7325 -0.2898 -0.1996
 5323TIP3   OH237459   5.544   3.055  11.372  0.1360 -0.0531  0.1678
 5323TIP3    H137460   5.624   3.022  11.330  1.1411  0.7986  1.3326
 5323TIP3    H237461   5.480   2.985  11.360  1.2446 -1.0220 -0.2676
 5324TIP3   OH237462   3.382   6.160   3.191  0.3292  0.5837  0.0001
 5324TIP3    H137463   3.327   6.224   3.235  1.2160  1.0032  0.5414
 5324TIP3    H237464   3.471   6.191   3.206  0.7145 -0.0665 -0.8651
 5325TIP3   OH237465   2.206   2.281  12.357  0.5152 -0.3063 -0.7238
 5325TIP3    H137466   2.174   2.193  12.337  1.3616 -0.8019  0.0133
 5325TIP3    H237467   2.137   2.320  12.411  0.1025 -0.4882 -1.1166
 5326TIP3   OH237468   1.721   6.336   0.368 -0.4557  0.4090  0.4417
 5326TIP3    H137469   1.753   6.248   0.343 -0.7540 -0.1414  1.9200
 5326TIP3    H237470   1.758   6.350   0.455 -0.1562  1.9097  0.0883
 5327TIP3   OH237471   0.160   2.795   3.491 -0.3053  0.3455 -0.3339
 5327TIP3    H137472   0.134   2.866   3.550 -0.5573 -0.6546  0.8109
 5327TIP3    H237473   0.083   2.778   3.438 -0.2438  0.9239 -0.6136
 5328TIP3   OH237474   1.286   1.525  14.267  0.0969  0.2494 -0.7572
 5328TIP3    H137475   1.211   1.575  14.298  0.8964  0.8116  0.3031
 5328TIP3    H237476   1.315   1.572  14.189 -0.3520  0.3002 -0.8988
 5329TIP3   OH237477   0.316   6.353  12.202  0.7166 -1.2392 -0.4932
 5329TIP3    H137478   0.314   6.395  12.116  0.0990  1.0846  0.5708
 5329TIP3    H237479   0.407   6.327  12.214  1.6833  1.8134 -0.3972
 5330TIP3   OH237480   5.618   2.045   3.389  0.0951  0.4222 -0.1445
 5330TIP3    H137481   5.561   2.103   3.440 -0.5548  0.8937 -1.3577
 5330TIP3    H237482   5.653   2.101   3.320  0.4282 -0.3448 -0.6086
 5331TIP3   OH237483   5.824   1.004   3.529 -0.5054 -0.0781 -0.7385
 5331TIP3    H137484   5.760   1.075   3.534 -1.8509 -1.2434 -0.6390
 5331TIP3    H237485   5.871   1.020   3.448  0.8838  2.2303  0.4096
 5332TIP3   OH237486   4.288   2.463   0.204  0.3491  0.9833  0.2023
 5332TIP3    H137487   4.292   2.550   0.164  1.7185 -0.1997 -2.4234
 5332TIP3    H237488   4.374   2.425   0.188 -0.6483 -1.3638  0.0899
 5333TIP3   OH237489   2.511   0.306  15.309 -0.4710 -0.4234 -0.0618
 5333TIP3    H137490   2.566   0.384  15.317 -1.6373  0.5745 -1.2210
 5333TIP3    H237491   2.446   0.316  15.379 -0.0221 -0.8649  0.4157
 5334TIP3   OH237492   4.510   4.924  16.785  0.1463  0.2626  0.1081
 5334TIP3    H137493   4.468   4.891  16.865  0.1004  1.1631  0.4703
 5334TIP3    H237494   4.603   4.934  16.809 -0.0148  1.3659  0.3451
 5335TIP3   OH237495   3.502   4.130   4.350  0.3159 -0.0120 -0.2724
 5335TIP3    H137496   3.468   4.090   4.269 -0.5424 -0.8913  0.4842
 5335TIP3    H237497   3.426   4.174   4.388  1.1458  2.0138 -0.8467
 5336TIP3   OH237498   3.767   3.793   3.660 -0.3101  0.3114 -0.1503
 5336TIP3    H137499   3.742   3.706   3.628  0.0910  0.7817 -1.8000
 5336TIP3    H237500   3.858   3.804   3.632 -1.0015  2.1182 -1.9361
 5337TIP3   OH237501   0.758   3.098  12.248  0.4140  0.2066 -0.0146
 5337TIP3    H137502   0.673   3.103  12.204  0.3161  1.0986  0.2392
 5337TIP3    H237503   0.743   3.141  12.333  0.3586 -2.2689  1.3046
 5338TIP3   OH237504   2.571   5.767   3.677  0.1551 -0.3394  0.7028
 5338TIP3    H137505   2.573   5.684   3.725  0.9751 -0.6180  0.2157
 5338TIP3    H237506   2.661   5.778   3.644  0.1136  0.8539  0.9427
 5339TIP3   OH237507   6.274   5.395  14.766  0.0330 -0.0688  0.3535
 5339TIP3    H137508   6.255   5.302  14.777 -0.4804 -0.0642 -0.3817
 5339TIP3    H237509   6.198   5.439  14.805  0.3558  0.0409  0.8514
 5340TIP3   OH237510   2.727   3.010   4.894  0.0053 -0.0053 -0.9953
 5340TIP3    H137511   2.734   3.099   4.928  0.3868 -0.4577  0.1282
 5340TIP3    H237512   2.633   2.995   4.887 -0.0972 -0.1045  0.4137
 5341TIP3   OH237513   4.081   3.706  12.634 -0.1224 -0.2367  0.3654
 5341TIP3    H137514   4.116   3.791  12.608  0.5219 -1.1063 -1.7946
 5341TIP3    H237515   3.999   3.698  12.586 -0.3105 -0.7263  0.7627
 5342TIP3   OH237516   6.145   2.796   3.562  0.5949  0.4019 -0.1505
 5342TIP3    H137517   6.139   2.874   3.616 -2.0881 -1.1938  2.0864
 5342TIP3    H237518   6.062   2.794   3.513 -0.0214 -1.6730  0.8760
 5343TIP3   OH237519   2.857   5.339   2.092  0.2581 -0.2488 -0.7097
 5343TIP3    H137520   2.866   5.312   2.183 -1.2122 -1.0744 -0.7740
 5343TIP3    H237521   2.847   5.434   2.096 -0.0910 -0.3095  0.0277
 5344TIP3   OH237522   0.789   3.531   3.399  0.4615  0.0737 -0.2789
 5344TIP3    H137523   0.823   3.610   3.355  0.2794 -0.6531 -1.8005
 5344TIP3    H237524   0.867   3.487   3.432  0.6076  0.6383  0.1429
 5345TIP3   OH237525   6.720   4.292   2.926  0.3099  0.1177  0.3411
 5345TIP3    H137526   6.686   4.210   2.888 -0.3477 -0.0719  1.3187
 5345TIP3    H237527   6.813   4.274   2.941  0.8325  0.5080 -1.9866
 5346TIP3   OH237528   4.757   5.267   1.639  0.3535 -0.1508 -0.3228
 5346TIP3    H137529   4.683   5.327   1.633  0.4412 -0.0395 -0.2920
 5346TIP3    H237530   4.742   5.217   1.719  0.4675  0.0811 -0.1534
 5347TIP3   OH237531   2.637   3.324   5.967 -0.3278  0.3836 -0.3689
 5347TIP3    H137532   2.653   3.398   6.026  0.6634 -0.0112 -0.1344
 5347TIP3    H237533   2.640   3.363   5.879  1.6342  0.4060 -0.3304
 5348TIP3   OH237534   5.466   1.535  15.886  0.3037 -0.3754  0.3412
 5348TIP3    H137535   5.413   1.573  15.817  2.0724 -0.3217 -1.0786
 5348TIP3    H237536   5.485   1.609  15.945 -0.8249 -0.3198  0.6604
 5349TIP3   OH237537   6.481   2.247   3.677  0.0118  0.2647 -0.2072
 5349TIP3    H137538   6.397   2.271   3.715  0.0987 -1.1960  1.0504
 5349TIP3    H237539   6.463   2.232   3.585 -1.0178  0.3611 -0.0295
 5350TIP3   OH237540   2.882   0.535  17.193 -0.1312 -0.1976 -0.0176
 5350TIP3    H137541   2.970   0.508  17.167  0.0372  1.4279 -1.2635
 5350TIP3    H237542   2.824   0.489  17.133 -0.1836 -1.4124  0.9211
 5351TIP3   OH237543   4.648   2.179   1.708 -0.0405  0.3211 -0.4577
 5351TIP3    H137544   4.738   2.150   1.695  0.5647  1.7501  0.3162
 5351TIP3    H237545   4.618   2.202   1.620  0.8607  1.2008 -0.5508
 5352TIP3   OH237546   3.550   1.925   6.518 -0.3212 -0.8448 -0.4689
 5352TIP3    H137547   3.526   1.886   6.602  0.7081  0.5241  0.5109
 5352TIP3    H237548   3.473   1.913   6.463 -1.8540  0.0764  1.3397
 5353TIP3   OH237549   1.959   1.721  12.315 -0.2473  0.1743  0.7932
 5353TIP3    H137550   1.966   1.740  12.221 -0.3941  1.0208  0.9418
 5353TIP3    H237551   1.968   1.626  12.321  1.1886  0.2352  0.0531
 5354TIP3   OH237552   0.377   2.480  14.745 -0.4183 -0.0561  0.0975
 5354TIP3    H137553   0.365   2.505  14.653 -0.2488 -1.5094 -0.3322
 5354TIP3    H237554   0.304   2.422  14.764 -0.5010  0.3005  0.9227
 5355TIP3   OH237555   2.963   2.139  14.346 -0.3015 -0.0556 -0.4356
 5355TIP3    H137556   3.054   2.126  14.373  0.0036  0.4843 -1.1804
 5355TIP3    H237557   2.965   2.218  14.293 -0.8054 -1.2660 -2.3499
 5356TIP3   OH237558   4.877   4.930  17.080 -0.4410  0.4037 -0.0866
 5356TIP3    H137559   4.828   4.938  17.162 -1.8083  2.1909 -0.9987
 5356TIP3    H237560   4.836   4.856  17.035 -1.0919  0.7217 -0.0343
 5357TIP3   OH237561   6.283   0.568   4.857  0.3479  0.3320 -0.1810
 5357TIP3    H137562   6.274   0.530   4.770 -0.5885 -0.6849  0.3491
 5357TIP3    H237563   6.203   0.619   4.870  0.7810  1.0331 -0.1530
 5358TIP3   OH237564   1.256   1.608   3.806  0.2002 -0.1878  0.4426
 5358TIP3    H137565   1.195   1.587   3.877 -0.8675  0.8979 -0.1213
 5358TIP3    H237566   1.343   1.591   3.843 -0.3805 -0.5812  1.6694
 5359TIP3   OH237567   0.078   3.287   5.977  0.1383 -0.0757 -0.0172
 5359TIP3    H137568  -0.007   3.281   5.933  0.1711  1.9360 -0.4383
 5359TIP3    H237569   0.056   3.290   6.070 -0.3105  0.9604 -0.1435
 5360TIP3   OH237570   1.126   3.361  15.412  0.3450 -0.0331 -0.5061
 5360TIP3    H137571   1.067   3.425  15.373  0.4465  0.6248  0.4027
 5360TIP3    H237572   1.079   3.277  15.403  0.8324 -0.1007 -2.9944
 5361TIP3   OH237573   4.961   0.480   4.822  0.5551 -0.0393  0.8978
 5361TIP3    H137574   4.963   0.572   4.797  1.5522 -0.4725 -0.8306
 5361TIP3    H237575   4.869   0.461   4.838 -0.1697  0.4760 -2.0925
 5362TIP3   OH237576   0.309   1.638  15.565 -0.2135  0.1007  0.4343
 5362TIP3    H137577   0.383   1.669  15.513 -0.4787 -1.0330 -0.6557
 5362TIP3    H237578   0.239   1.700  15.547 -0.1261  0.0447 -0.1014
 5363TIP3   OH237579   5.457   2.654   3.999 -0.1360  0.3946 -0.5747
 5363TIP3    H137580   5.488   2.577   3.951  1.3292  1.4620 -1.4245
 5363TIP3    H237581   5.404   2.702   3.935 -1.2481 -0.0093  0.0249
 5364TIP3   OH237582   5.501   1.627  12.718  0.4737 -0.3930 -1.1515
 5364TIP3    H137583   5.483   1.545  12.765 -1.9035  0.6174 -0.0883
 5364TIP3    H237584   5.439   1.627  12.646  0.9307  0.1572 -1.5530
 5365TIP3   OH237585   3.180   4.894  12.102 -0.0695 -0.1597  0.3919
 5365TIP3    H137586   3.271   4.909  12.077  0.4694 -2.4868  0.7054
 5365TIP3    H237587   3.184   4.874  12.196 -0.9654  0.1727  0.5063
 5366TIP3   OH237588   4.650   3.200  17.160  0.1262  0.5482 -0.0915
 5366TIP3    H137589   4.597   3.279  17.146  0.2837  0.8242  0.8212
 5366TIP3    H237590   4.740   3.232  17.162  0.1484  0.4557  0.9685
 5367TIP3   OH237591   1.113   3.361   1.645  0.1985  0.0297  0.3767
 5367TIP3    H137592   1.067   3.420   1.705 -2.3002 -1.1145 -0.2775
 5367TIP3    H237593   1.136   3.416   1.570 -1.8508  0.3274 -0.1041
 5368TIP3   OH237594   5.279   4.359  12.352  0.0239 -0.1392 -0.2844
 5368TIP3    H137595   5.241   4.287  12.402 -2.0693  1.3096  0.3206
 5368TIP3    H237596   5.361   4.323  12.317 -0.6442 -2.5876  0.4904
 5369TIP3   OH237597   0.506   5.237  10.748 -0.2984 -0.5494  0.0108
 5369TIP3    H137598   0.460   5.319  10.733 -1.8319 -1.6882 -1.9723
 5369TIP3    H237599   0.558   5.223  10.669  0.5382 -1.1464  0.6396
 5370TIP3   OH237600   4.586   6.480  14.235  0.0846 -0.2502  0.1146
 5370TIP3    H137601   4.515   6.416  14.223  0.3295 -0.3790 -0.6732
 5370TIP3    H237602   4.595   6.522  14.150  1.2089 -0.4977  0.0984
 5371TIP3   OH237603   1.780   4.394  13.095 -0.3878 -0.5589  0.2574
 5371TIP3    H137604   1.782   4.421  13.003 -1.4352  1.7220  0.8355
 5371TIP3    H237605   1.859   4.433  13.133 -1.1044  0.4290  0.7722
 5372TIP3   OH237606   2.073   4.236   4.473 -0.0316 -0.0481 -0.5417
 5372TIP3    H137607   2.164   4.266   4.469 -0.7083  2.2109 -0.6714
 5372TIP3    H237608   2.036   4.263   4.389 -0.2605 -3.2036 -1.5589
 5373TIP3   OH237609   0.605   3.000  14.909 -0.4200  0.0100  0.4048
 5373TIP3    H137610   0.556   2.964  14.835 -0.8135  0.5031  0.4173
 5373TIP3    H237611   0.548   2.987  14.984 -0.0197 -0.4911  0.6234
 5374TIP3   OH237612   1.847   0.013   2.192  0.0563  0.1587 -0.2496
 5374TIP3    H137613   1.892  -0.028   2.119 -2.0171 -2.6597 -0.1331
 5374TIP3    H237614   1.772   0.057   2.152  0.6526  1.3439 -0.0839
 5375TIP3   OH237615   5.536   1.296   1.150  0.3749  0.3849  0.1096
 5375TIP3    H137616   5.527   1.370   1.090  0.8205  1.5704  1.4479
 5375TIP3    H237617   5.574   1.227   1.097 -0.4613  0.9579 -1.2936
 5376TIP3   OH237618   0.913   0.069  17.098 -0.3406  0.1602 -0.2344
 5376TIP3    H137619   0.955  -0.017  17.102 -0.6286  0.0716  2.5036
 5376TIP3    H237620   0.829   0.057  17.142 -0.4985  1.7835 -0.0512
 5377TIP3   OH237621   1.180   4.260  13.746  0.3204 -0.8635 -0.2218
 5377TIP3    H137622   1.169   4.230  13.836  0.9863  1.2203  0.6092
 5377TIP3    H237623   1.108   4.323  13.733  0.8244 -0.3884 -0.7842
 5378TIP3   OH237624   2.520   4.642  12.385  0.1642  0.3600  0.0901
 5378TIP3    H137625   2.587   4.670  12.323  2.4471 -2.0305  1.2688
 5378TIP3    H237626   2.509   4.548  12.368 -0.7407  0.1098  1.8387
 5379TIP3   OH237627   4.140   4.058  15.509 -0.8201 -0.2286 -0.0277
 5379TIP3    H137628   4.183   4.056  15.594  0.7374  0.2615 -0.7645
 5379TIP3    H237629   4.145   3.968  15.476 -0.6446 -0.2404  0.0320
 5380TIP3   OH237630   2.429   4.846  12.758 -0.1504  0.2239  0.4066
 5380TIP3    H137631   2.439   4.763  12.712 -0.7790  0.9189 -1.0454
 5380TIP3    H237632   2.338   4.845  12.789 -0.4255  0.7212 -0.3634
 5381TIP3   OH237633   6.616   4.758  16.363 -0.2153 -0.1593  0.2464
 5381TIP3    H137634   6.647   4.825  16.302 -0.2025  0.8324  1.3245
 5381TIP3    H237635   6.538   4.796  16.402 -0.4549 -0.9579  0.5549
 5382TIP3   OH237636   3.747   4.804  10.755 -0.2958 -0.2482 -1.0075
 5382TIP3    H137637   3.816   4.854  10.711  1.7771 -1.2375  0.9637
 5382TIP3    H237638   3.793   4.740  10.809 -2.7181 -0.1691  1.3809
 5383TIP3   OH237639   1.157   6.364   1.561  0.1420 -0.0088 -0.3192
 5383TIP3    H137640   1.239   6.412   1.548  0.3812 -0.5694 -0.9536
 5383TIP3    H237641   1.177   6.301   1.630  0.0045  0.3875  0.0885
 5384TIP3   OH237642   0.758   4.132  15.147  0.4556 -0.0955  0.1387
 5384TIP3    H137643   0.732   4.156  15.058  0.1183 -0.7677  0.0534
 5384TIP3    H237644   0.676   4.121  15.194  0.6334  0.6100  0.6431
 5385TIP3   OH237645   4.557   2.263   4.155  0.2870  0.3055 -0.1096
 5385TIP3    H137646   4.574   2.348   4.115 -0.0543 -0.2881 -1.5749
 5385TIP3    H237647   4.617   2.203   4.110 -0.5947 -0.5091 -0.2325
 5386TIP3   OH237648   6.527   5.274   0.067  0.3918  0.3254 -0.5842
 5386TIP3    H137649   6.553   5.183   0.053 -1.5244 -0.5071  0.7672
 5386TIP3    H237650   6.509   5.308  -0.021 -1.4455 -1.4910 -0.9786
 5387TIP3   OH237651   0.359   1.250   5.072 -0.8140 -0.0641 -0.3539
 5387TIP3    H137652   0.447   1.248   5.108 -0.9552 -0.3281 -0.0237
 5387TIP3    H237653   0.348   1.340   5.041 -0.8693  0.2952  0.6882
 5388TIP3   OH237654   1.268   3.708  13.852 -0.1515 -0.3015 -0.4733
 5388TIP3    H137655   1.335   3.776  13.856 -1.1083  0.6679 -0.7112
 5388TIP3    H237656   1.236   3.710  13.762 -0.3236 -0.9493 -0.4361
 5389TIP3   OH237657   3.814   5.810  15.400  0.3542 -0.4412 -0.4805
 5389TIP3    H137658   3.897   5.844  15.434  1.1702 -0.5551 -2.2743
 5389TIP3    H237659   3.805   5.723  15.439 -0.1231  0.4594  1.5516
 5390TIP3   OH237660   3.846   3.612   5.947  0.1312  0.8584 -0.4549
 5390TIP3    H137661   3.911   3.661   5.998  0.1599 -0.1506  0.5291
 5390TIP3    H237662   3.790   3.679   5.909  0.7990  1.6927  0.0003
 5391TIP3   OH237663   5.057   1.612   3.826  0.1992  0.0659  0.0387
 5391TIP3    H137664   5.000   1.555   3.878 -1.0272 -0.0175 -1.3204
 5391TIP3    H237665   5.125   1.641   3.887 -1.3174  0.2097  1.7356
 5392TIP3   OH237666   4.164   1.010   5.891  0.3639 -0.1313 -0.1484
 5392TIP3    H137667   4.163   0.983   5.983  2.1693 -1.1138 -0.3766
 5392TIP3    H237668   4.173   1.105   5.893 -0.9903  0.0023  0.6685
 5393TIP3   OH237669   6.488   2.218   4.318 -0.0915 -0.0584 -0.4721
 5393TIP3    H137670   6.541   2.139   4.326 -0.2088 -0.2941 -1.7552
 5393TIP3    H237671   6.535   2.272   4.254  0.2953  1.1912  0.8069
 5394TIP3   OH237672   4.605   1.117   5.356 -0.0424  0.6440  0.2963
 5394TIP3    H137673   4.607   1.044   5.295 -0.4964  1.0485 -0.2158
 5394TIP3    H237674   4.697   1.130   5.381  0.2228  0.8357 -0.7481
 5395TIP3   OH237675   3.248   0.279   4.980 -0.0875 -0.7351 -0.6817
 5395TIP3    H137676   3.297   0.307   4.902 -0.8204 -0.9956 -1.2531
 5395TIP3    H237677   3.167   0.330   4.976  0.5252  0.4128  0.7829
 5396TIP3   OH237678   0.822   1.219  11.464 -0.6375 -0.2933  0.0456
 5396TIP3    H137679   0.812   1.188  11.374 -1.8773  0.6927 -0.1908
 5396TIP3    H237680   0.754   1.287  11.473  0.6484  0.9070  1.1395
 5397TIP3   OH237681   4.210   2.530  12.579  0.2656  0.1105  0.3814
 5397TIP3    H137682   4.211   2.446  12.626 -0.7465 -1.7807 -2.6085
 5397TIP3    H237683   4.302   2.550  12.564  0.5528  0.0667  1.9313
 5398TIP3   OH237684   3.251   5.614   1.631 -0.0704 -0.3653 -0.3966
 5398TIP3    H137685   3.232   5.569   1.549 -2.3082  1.0277 -0.7204
 5398TIP3    H237686   3.300   5.692   1.606 -2.3431  1.0556 -0.7393
 5399TIP3   OH237687   1.934   2.928  15.180  0.4131 -0.5591  0.2287
 5399TIP3    H137688   2.000   2.984  15.139 -0.0525 -0.3876 -0.2970
 5399TIP3    H237689   1.851   2.975  15.167 -0.1232 -1.8031 -1.0408
 5400TIP3   OH237690   2.110   1.130   1.004  0.4304 -0.2585  0.2496
 5400TIP3    H137691   2.148   1.053   0.963 -0.0304 -0.8608  0.9125
 5400TIP3    H237692   2.056   1.094   1.075  1.6430  0.7358  1.7599
 5401TIP3   OH237693   3.497   3.567  15.744 -0.0675  0.0778 -0.0863
 5401TIP3    H137694   3.515   3.490  15.690  0.8414  1.0626 -1.2260
 5401TIP3    H237695   3.450   3.626  15.686  0.1904  0.8230  0.4577
 5402TIP3   OH237696   1.677   4.316   4.500 -0.0293  0.1179  0.2756
 5402TIP3    H137697   1.639   4.232   4.473 -0.8350  0.3519  0.6398
 5402TIP3    H237698   1.647   4.327   4.590 -0.1178  0.9009  0.1496
 5403TIP3   OH237699   3.555   0.800   2.966  0.0011 -0.1556  0.1533
 5403TIP3    H137700   3.559   0.850   2.885  1.0817  1.1097  0.9446
 5403TIP3    H237701   3.642   0.760   2.974 -0.5494 -1.4358 -0.0048
 5404TIP3   OH237702   5.534   3.419  12.998 -0.1828  0.1856  0.0219
 5404TIP3    H137703   5.517   3.386  12.910 -0.4368 -1.6077  0.6874
 5404TIP3    H237704   5.468   3.487  13.012  0.3068  0.9980 -1.3914
 5405TIP3   OH237705   1.774   6.522   5.276 -0.0928  0.1700  0.5498
 5405TIP3    H137706   1.789   6.504   5.183 -1.2438  0.6062  0.2505
 5405TIP3    H237707   1.819   6.605   5.292 -0.4120  0.4130  0.2128
 5406TIP3   OH237708   1.025   3.602  15.151 -0.3546  0.2093 -0.2596
 5406TIP3    H137709   1.052   3.680  15.200 -0.2259 -0.6036  0.9899
 5406TIP3    H237710   0.935   3.585  15.180  0.1842 -1.0679  0.7653
 5407TIP3   OH237711   5.478   0.993  12.291 -0.2123  0.2564  0.9221
 5407TIP3    H137712   5.543   1.019  12.356 -1.2787 -1.1236  2.6418
 5407TIP3    H237713   5.514   0.913  12.251  0.5377  1.2138 -0.4069
 5408TIP3   OH237714   4.742   1.006   6.516  0.1914  0.2829  0.0669
 5408TIP3    H137715   4.759   1.050   6.433 -1.1503  0.9218  0.1104
 5408TIP3    H237716   4.754   0.913   6.496  3.0042  0.5845 -0.0366
 5409TIP3   OH237717   4.918   0.229  14.221  0.1409  0.3867  0.4072
 5409TIP3    H137718   4.924   0.320  14.250 -1.6829  0.4401  0.7413
 5409TIP3    H237719   4.928   0.233  14.126 -0.3747  1.0013  0.3732
 5410TIP3   OH237720   4.220   0.824   2.152 -0.2789  0.3269 -0.0582
 5410TIP3    H137721   4.212   0.753   2.088  0.1676  0.1843  0.0457
 5410TIP3    H237722   4.132   0.863   2.154  0.0007  1.1497 -1.6922
 5411TIP3   OH237723   4.818   6.228  11.068 -0.2868 -0.0317 -0.2203
 5411TIP3    H137724   4.770   6.146  11.071  0.1187 -0.2431  1.1669
 5411TIP3    H237725   4.795   6.267  10.983 -0.0434 -1.8209 -1.1475
 5412TIP3   OH237726   5.179   0.535  10.811 -0.5272 -0.3698 -0.4724
 5412TIP3    H137727   5.274   0.521  10.809 -0.2590  1.2902 -0.8510
 5412TIP3    H237728   5.142   0.456  10.771  0.6602 -1.2333  0.0838
 5413TIP3   OH237729   4.293   3.280   3.577  0.3990  0.5085 -0.0600
 5413TIP3    H137730   4.220   3.285   3.639  0.1297 -2.0554 -0.0376
 5413TIP3    H237731   4.300   3.187   3.557  2.9137  0.8320 -1.0158
 5414TIP3   OH237732   6.527   5.707  13.966  0.5721  0.1692  0.1359
 5414TIP3    H137733   6.574   5.788  13.985 -0.1503  0.6973 -0.2399
 5414TIP3    H237734   6.466   5.697  14.040  0.8673 -0.1976  0.3323
 5415TIP3   OH237735   6.219   3.683  11.046 -0.2119 -0.4593 -0.6001
 5415TIP3    H137736   6.253   3.668  11.134 -1.1211  2.6685  0.3999
 5415TIP3    H237737   6.298   3.692  10.992  0.4635  0.9102  0.5585
 5416TIP3   OH237738   3.736   2.744  13.988 -0.1136 -0.4529  0.1536
 5416TIP3    H137739   3.818   2.783  13.958  1.1558 -0.4017  3.2390
 5416TIP3    H237740   3.669   2.810  13.969  1.5705  2.3227  2.8346
 5417TIP3   OH237741   0.180   0.566   2.855 -0.0997  0.0356  0.4174
 5417TIP3    H137742   0.092   0.527   2.851 -0.3806  0.6634  0.3861
 5417TIP3    H237743   0.222   0.522   2.928 -0.8205  0.4896  1.1192
 5418TIP3   OH237744   1.966   5.420  16.674 -0.4225 -0.2016  0.0632
 5418TIP3    H137745   2.025   5.346  16.656  1.5577  1.5440 -1.0934
 5418TIP3    H237746   1.955   5.419  16.769 -1.5017 -2.6862 -0.0152
 5419TIP3   OH237747   5.077   2.067  13.195 -0.2774 -0.1230 -0.6640
 5419TIP3    H137748   4.991   2.104  13.173  0.4840  3.1559  1.3457
 5419TIP3    H237749   5.071   2.048  13.289  1.0881 -0.1834 -0.5782
 5420TIP3   OH237750   3.591   6.630   3.051 -0.6174  0.4890  0.2156
 5420TIP3    H137751   3.503   6.653   3.082 -0.8521 -0.7915  0.5678
 5420TIP3    H237752   3.581   6.544   3.010  0.3818  0.5541 -0.2037
 5421TIP3   OH237753   5.958   6.730   1.356 -0.2395  0.3568  0.3048
 5421TIP3    H137754   5.887   6.706   1.415 -1.6655 -1.5180 -1.9831
 5421TIP3    H237755   5.920   6.792   1.294  0.4142  0.1926 -0.2874
 5422TIP3   OH237756   6.492   5.339   3.905  0.4927 -0.1638 -0.0459
 5422TIP3    H137757   6.573   5.366   3.861  0.0472  0.9544 -0.2085
 5422TIP3    H237758   6.422   5.383   3.858 -0.2885 -1.5587 -0.2493
 5423TIP3   OH237759   6.431   4.141   5.803  0.9558  0.8446  0.6557
 5423TIP3    H137760   6.502   4.205   5.810 -0.2488  2.3667 -0.3127
 5423TIP3    H237761   6.374   4.161   5.877  0.7882  0.5968  0.5923
 5424TIP3   OH237762   4.530   4.515  15.535  0.0938  0.8133  0.2835
 5424TIP3    H137763   4.596   4.446  15.536 -1.4296 -0.7370 -0.4412
 5424TIP3    H237764   4.532   4.549  15.445 -1.4421 -0.7065 -0.3982
 5425TIP3   OH237765   4.024   3.825  15.222  0.4042 -0.0095 -0.2840
 5425TIP3    H137766   3.963   3.869  15.163  0.1264 -0.4997 -0.3664
 5425TIP3    H237767   3.986   3.836  15.309  0.3185 -0.1089 -0.3079
 5426TIP3   OH237768   3.344   5.195  11.382 -0.2202 -0.0870 -0.5504
 5426TIP3    H137769   3.263   5.214  11.334  0.3304 -1.5427 -2.1381
 5426TIP3    H237770   3.315   5.177  11.471 -1.6031 -0.1969 -0.9979
 5427TIP3   OH237771   5.059   3.807  15.949  0.0301  0.5608  0.1174
 5427TIP3    H137772   5.092   3.722  15.920  0.3386 -0.0155  2.0243
 5427TIP3    H237773   5.016   3.789  16.032  1.5590  2.4781  1.4182
 5428TIP3   OH237774   6.569   1.801   4.322 -0.1600 -0.4145 -0.3177
 5428TIP3    H137775   6.626   1.853   4.265  0.4378  0.9874  1.4722
 5428TIP3    H237776   6.499   1.770   4.264  0.2861  1.1495 -1.7598
 5429TIP3   OH237777   4.651   6.704   3.617 -0.5196 -0.1513  0.5813
 5429TIP3    H137778   4.694   6.789   3.612  1.3658 -1.0636  0.3965
 5429TIP3    H237779   4.712   6.643   3.574 -2.1673 -1.4777 -0.0070
 5430TIP3   OH237780   0.723   0.325   3.352 -0.2116 -0.1331  0.9388
 5430TIP3    H137781   0.753   0.416   3.360  0.3517  0.1057 -2.4636
 5430TIP3    H237782   0.657   0.328   3.282 -2.2879 -1.9646  2.6772
 5431TIP3   OH237783   1.391   5.262  11.304 -0.2794 -0.4665  0.1105
 5431TIP3    H137784   1.381   5.232  11.214  0.8520  0.5847 -0.3970
 5431TIP3    H237785   1.363   5.353  11.302  0.0823 -0.3344  0.7429
 5432TIP3   OH237786   5.575   2.346  10.863  0.0601  0.1287  0.3736
 5432TIP3    H137787   5.509   2.397  10.815 -0.8623 -1.0456  0.3657
 5432TIP3    H237788   5.551   2.255  10.848  1.6624 -0.3299  0.4250
 5433TIP3   OH237789   0.050   1.525   3.349 -0.4088  0.4688 -0.1356
 5433TIP3    H137790   0.062   1.444   3.400 -1.0331  1.0007  0.8879
 5433TIP3    H237791  -0.040   1.552   3.369 -0.7859  0.5289 -1.7919
 5434TIP3   OH237792   1.011   6.623  16.114  0.7665 -0.4376  0.0525
 5434TIP3    H137793   0.976   6.662  16.194  1.8142 -1.0568  0.8348
 5434TIP3    H237794   1.059   6.694  16.072  2.1438 -0.6658  1.1556
 5435TIP3   OH237795   0.774   2.030  16.923 -0.5506 -0.0052  0.3508
 5435TIP3    H137796   0.866   2.040  16.945 -0.2265 -1.4580 -0.2288
 5435TIP3    H237797   0.773   1.963  16.854 -1.9604  0.6264 -0.2894
 5436TIP3   OH237798   5.265   3.675  14.058 -0.1984 -0.6536  0.0415
 5436TIP3    H137799   5.241   3.767  14.043 -0.2587 -0.7757 -0.6273
 5436TIP3    H237800   5.273   3.638  13.970 -0.0821 -1.2675  0.3093
 5437TIP3   OH237801   6.220   6.546  15.521  0.1409  0.3338 -0.2358
 5437TIP3    H137802   6.139   6.503  15.547 -0.5739  0.9086 -1.4302
 5437TIP3    H237803   6.240   6.605  15.593 -0.8148  0.6063 -0.1864
 5438TIP3   OH237804   4.755   1.564  16.709  0.0773  0.8645 -0.2625
 5438TIP3    H137805   4.685   1.609  16.662  1.3971  0.4688 -2.8032
 5438TIP3    H237806   4.738   1.471  16.694  0.4641  0.7290  0.1279
 5439TIP3   OH237807   5.625   1.106   4.694  0.6238  0.9929  0.2538
 5439TIP3    H137808   5.665   1.035   4.642  0.2939  0.2700  0.9628
 5439TIP3    H237809   5.593   1.062   4.773  1.9022  2.2022  1.4976
 5440TIP3   OH237810   2.239   2.482   4.627  0.3110 -0.2151  0.0482
 5440TIP3    H137811   2.181   2.498   4.701  0.0413  1.1741 -0.4266
 5440TIP3    H237812   2.194   2.415   4.575  0.5776 -1.3206  1.1791
 5441TIP3   OH237813   5.667   2.486   6.335 -0.1853  1.0540  0.8978
 5441TIP3    H137814   5.742   2.461   6.389 -1.1956 -3.3702  0.6821
 5441TIP3    H237815   5.693   2.460   6.246 -0.5129  3.3882  0.0555
 5442TIP3   OH237816   3.495   1.500   4.600  0.1261  0.2439  0.6452
 5442TIP3    H137817   3.448   1.486   4.683  0.4072  1.0653  0.9597
 5442TIP3    H237818   3.463   1.585   4.569  2.3238  1.5030  1.5592
 5443TIP3   OH237819   4.733   2.144   0.460  0.7665 -0.5669 -0.1761
 5443TIP3    H137820   4.654   2.198   0.457 -1.5596 -3.6990 -0.9656
 5443TIP3    H237821   4.765   2.153   0.550  0.2578  1.7014 -0.1759
 5444TIP3   OH237822   2.112   0.007  12.599 -0.0956  0.0507 -0.1334
 5444TIP3    H137823   2.163  -0.072  12.581  1.1237  0.9183 -0.6523
 5444TIP3    H237824   2.146   0.072  12.537 -2.5884  0.4082 -1.2607
 5445TIP3   OH237825   2.594   1.961  16.332  0.2221 -0.0340 -0.2548
 5445TIP3    H137826   2.500   1.968  16.314  0.0788 -0.0336  0.4709
 5445TIP3    H237827   2.634   1.951  16.246 -0.3645  0.8492 -0.6417
 5446TIP3   OH237828   1.235   5.148  15.672 -0.0513 -0.1953  0.8355
 5446TIP3    H137829   1.257   5.192  15.590 -3.4238  0.4262  0.1485
 5446TIP3    H237830   1.252   5.213  15.739 -0.2758  0.3988  0.3244
 5447TIP3   OH237831   4.237   3.054   0.189 -0.4946 -0.2808 -0.4046
 5447TIP3    H137832   4.182   3.039   0.266 -1.0301  1.6770 -0.3573
 5447TIP3    H237833   4.320   3.086   0.224 -0.3547 -0.4257 -0.5991
 5448TIP3   OH237834   0.524   3.660   2.362  0.3820  0.5159  0.3825
 5448TIP3    H137835   0.560   3.747   2.345 -1.0840  0.9277 -0.7851
 5448TIP3    H237836   0.522   3.617   2.277  1.7903 -0.9866  1.0521
 5449TIP3   OH237837   3.298   2.909   0.208  0.2580  0.1347  0.5540
 5449TIP3    H137838   3.314   2.828   0.257 -1.1665 -0.5809 -0.1048
 5449TIP3    H237839   3.240   2.960   0.264  1.2914  0.8053  1.0439
 5450TIP3   OH237840   5.275   2.081   2.840  0.2710 -0.3592  0.0747
 5450TIP3    H137841   5.318   2.099   2.924 -0.0057 -0.6942  0.2909
 5450TIP3    H237842   5.345   2.087   2.775  0.5391 -0.3713  0.3610
 5451TIP3   OH237843   1.858   1.791  13.553  0.3154 -0.0032  0.1828
 5451TIP3    H137844   1.927   1.758  13.610  1.6363 -3.0442 -2.8447
 5451TIP3    H237845   1.778   1.752  13.588  0.9126 -0.8724  0.6145
 5452TIP3   OH237846   1.454   2.085   4.638 -0.5664  0.8159 -0.0113
 5452TIP3    H137847   1.383   2.033   4.600 -0.2719  1.1271 -1.0124
 5452TIP3    H237848   1.411   2.139   4.705 -0.7443 -1.3312  1.7101
 5453TIP3   OH237849   0.812   2.292   2.435 -0.9501  0.5527 -0.1273
 5453TIP3    H137850   0.765   2.308   2.517  0.4423  0.7812  0.6498
 5453TIP3    H237851   0.902   2.320   2.452 -0.4776  0.0163 -1.5384
 5454TIP3   OH237852   3.591   1.851  12.931 -0.0015  0.5685  1.1449
 5454TIP3    H137853   3.660   1.796  12.894  0.6400  0.7924  1.9648
 5454TIP3    H237854   3.538   1.878  12.856 -0.8474 -1.8401  0.8036
 5455TIP3   OH237855   2.323   3.284   0.563  0.7715  0.4934 -0.0922
 5455TIP3    H137856   2.279   3.369   0.556 -0.1439  0.1235  0.8872
 5455TIP3    H237857   2.316   3.246   0.476 -1.1298  0.3308  0.0923
 5456TIP3   OH237858   3.437   5.597   2.120  0.9548 -0.2068  0.5635
 5456TIP3    H137859   3.381   5.550   2.059 -0.0548  0.3563  1.0346
 5456TIP3    H237860   3.497   5.531   2.154  0.3087 -0.9040  0.3552
 5457TIP3   OH237861   0.069   3.418   2.019 -0.0383  0.1203  0.5043
 5457TIP3    H137862   0.083   3.462   1.935  1.3943  0.0739  0.6817
 5457TIP3    H237863   0.096   3.482   2.085  1.6109 -0.7963  0.7824
 5458TIP3   OH237864   6.700   4.823   5.460  0.1252 -0.0116  0.3953
 5458TIP3    H137865   6.737   4.871   5.386 -0.2979  0.9513  0.7918
 5458TIP3    H237866   6.746   4.739   5.460  1.5935  0.7582  0.2595
 5459TIP3   OH237867   1.952   3.308   0.386 -0.3383  0.4511  0.2691
 5459TIP3    H137868   1.930   3.355   0.467 -1.0957  1.1029 -0.2990
 5459TIP3    H237869   1.939   3.216   0.408  1.1911  0.4545  1.4138
 5460TIP3   OH237870   4.145   2.189   0.861  0.2108 -0.2237  0.6137
 5460TIP3    H137871   4.125   2.188   0.767 -1.3168  0.4390  0.9083
 5460TIP3    H237872   4.156   2.281   0.882  2.7013 -0.4647  0.7083
 5461TIP3   OH237873   3.204   5.031   0.202  0.2580 -0.3540 -0.3926
 5461TIP3    H137874   3.276   5.024   0.139  0.8718  1.4982  0.0324
 5461TIP3    H237875   3.125   5.034   0.149  0.5416 -1.4157 -0.9142
 5462TIP3   OH237876   5.834   0.724  14.996  0.2656 -0.0058  0.0437
 5462TIP3    H137877   5.863   0.799  15.047  0.6636 -0.3023  0.2632
 5462TIP3    H237878   5.912   0.669  14.988 -0.2127 -0.7819  0.5822
 5463TIP3   OH237879   5.242   5.078   1.824  0.7490 -0.2401  0.2876
 5463TIP3    H137880   5.146   5.083   1.816  0.4843  0.7949  3.1120
 5463TIP3    H237881   5.272   5.165   1.797  0.8779 -0.4535 -0.2648
 5464TIP3   OH237882   2.556   1.617   3.681 -0.3317 -0.0048 -0.3030
 5464TIP3    H137883   2.527   1.673   3.753  1.6145  0.6284  0.0441
 5464TIP3    H237884   2.552   1.673   3.604 -2.8162 -0.7998 -0.8619
 5465TIP3   OH237885   6.664   1.076   1.062  0.1241  0.2836  0.1748
 5465TIP3    H137886   6.653   1.138   1.134  0.4241 -0.4129  0.8394
 5465TIP3    H237887   6.628   0.994   1.096 -1.1727  0.3064 -1.0363
 5466TIP3   OH237888   2.266   0.213  15.957  0.0492 -0.3159 -0.8185
 5466TIP3    H137889   2.184   0.169  15.980 -0.5188  1.1122  0.0592
 5466TIP3    H237890   2.317   0.146  15.912 -0.5048 -2.0319  0.9387
 5467TIP3   OH237891   6.412   6.142   1.848 -0.6426 -0.2798  0.5563
 5467TIP3    H137892   6.371   6.102   1.925 -2.6901  0.8705  0.1266
 5467TIP3    H237893   6.342   6.193   1.807  1.6097  3.2872  0.7340
 5468TIP3   OH237894   5.695   6.535   2.922 -0.5334 -0.4359 -0.2092
 5468TIP3    H137895   5.776   6.500   2.960  0.3371  0.8581 -0.7851
 5468TIP3    H237896   5.630   6.527   2.992  0.5294  0.0765  0.8699
 5469TIP3   OH237897   5.336   2.006   4.147 -0.2358  0.0615  0.4970
 5469TIP3    H137898   5.312   1.915   4.163  0.6865  0.0495  1.9292
 5469TIP3    H237899   5.415   2.020   4.199 -0.0229  1.5154 -0.1745
 5470TIP3   OH237900   2.390   2.647   0.124 -0.7527 -0.2767 -0.0344
 5470TIP3    H137901   2.397   2.726   0.072  2.4848 -0.6041 -0.3060
 5470TIP3    H237902   2.393   2.575   0.060  1.4566 -0.6399  0.3926
 5471TIP3   OH237903   3.484   2.879  14.690 -0.5896 -0.2140 -1.0339
 5471TIP3    H137904   3.514   2.883  14.781 -0.5043 -1.3010 -0.9995
 5471TIP3    H237905   3.564   2.891  14.638 -0.7292  1.0315 -0.9829
 5472TIP3   OH237906   4.230   6.330   0.359  0.0280  0.1928  0.1126
 5472TIP3    H137907   4.196   6.241   0.372  0.3928 -0.5473 -3.0963
 5472TIP3    H237908   4.152   6.383   0.341 -0.0855  0.2817  0.8411
 5473TIP3   OH237909   6.555   1.030  16.989 -0.2120 -0.1002  0.7607
 5473TIP3    H137910   6.637   1.025  17.038 -0.1089 -0.6887  0.5353
 5473TIP3    H237911   6.487   1.016  17.055 -0.2652  2.1934  1.2964
 5474TIP3   OH237912   3.245   3.116  17.063  0.0781  0.0589 -0.3620
 5474TIP3    H137913   3.277   3.029  17.039 -0.3667  0.0233 -0.8538
 5474TIP3    H237914   3.150   3.111  17.048 -0.1171  0.2619  0.7191
 5475TIP3   OH237915   1.365   3.160   5.142  0.0530 -0.3608 -0.1678
 5475TIP3    H137916   1.284   3.108   5.137 -1.0817  1.3597 -0.8177
 5475TIP3    H237917   1.341   3.244   5.102  2.4260 -0.1015 -1.2022
 5476TIP3   OH237918   0.817   6.198  11.123 -0.1486  0.2026 -0.3150
 5476TIP3    H137919   0.786   6.119  11.078 -1.3809  0.7434 -0.4684
 5476TIP3    H237920   0.895   6.171  11.170 -0.7486 -1.1927 -0.0963
 5477TIP3   OH237921   0.527   5.765  13.081 -0.1202 -0.3353 -0.3696
 5477TIP3    H137922   0.446   5.723  13.052  0.8667 -1.1719 -2.0714
 5477TIP3    H237923   0.596   5.725  13.027  1.4803  0.1487  1.1922
 5478TIP3   OH237924   5.724   6.445   3.896  0.6600 -0.0112  0.2613
 5478TIP3    H137925   5.709   6.352   3.879 -2.7018  0.2876  0.7697
 5478TIP3    H237926   5.718   6.454   3.991 -3.3126  1.1066  0.0892
 5479TIP3   OH237927   6.315   6.806  10.718 -0.0734  0.1811  0.1721
 5479TIP3    H137928   6.223   6.800  10.692  0.1019 -0.2811 -0.3434
 5479TIP3    H237929   6.328   6.733  10.779  0.0875 -0.0857 -0.1766
 5480TIP3   OH237930   6.166   6.397   6.256  0.1993 -0.7786  0.3173
 5480TIP3    H137931   6.158   6.480   6.304  1.1556 -0.6617  0.2983
 5480TIP3    H237932   6.147   6.330   6.321 -1.7547 -0.5391  0.0644
 5481TIP3   OH237933   6.153   5.492  14.297  0.2144 -0.1445 -0.6588
 5481TIP3    H137934   6.058   5.479  14.296  0.2118 -0.1833  0.0824
 5481TIP3    H237935   6.171   5.533  14.381  0.8233  0.1454 -0.9213
 5482TIP3   OH237936   6.540   4.767   4.309 -0.3034 -0.5989 -0.0279
 5482TIP3    H137937   6.565   4.701   4.374 -1.2680 -1.6224 -0.6876
 5482TIP3    H237938   6.606   4.836   4.320 -0.9798 -0.2754  2.7098
 5483TIP3   OH237939   0.037   6.153  16.330 -0.1084  0.0606  0.1165
 5483TIP3    H137940   0.006   6.149  16.420 -2.2859  1.4777 -0.4742
 5483TIP3    H237941   0.061   6.244  16.316  0.8851 -0.2886 -0.5345
 5484TIP3   OH237942   1.662   0.257  12.355 -0.0431 -0.0727 -0.5259
 5484TIP3    H137943   1.686   0.238  12.264  1.5481  1.1745 -0.4102
 5484TIP3    H237944   1.640   0.350  12.354 -1.8103 -0.4592  0.0392
 5485TIP3   OH237945   6.397   4.389  12.673  0.6123 -0.4060 -0.2409
 5485TIP3    H137946   6.432   4.457  12.731 -0.9177 -0.0925  0.3427
 5485TIP3    H237947   6.450   4.312  12.693  2.9324  0.7397 -1.4914
 5486TIP3   OH237948   3.302   4.383   0.505 -0.4870  0.0808  0.0558
 5486TIP3    H137949   3.326   4.462   0.554 -0.4603 -0.6120  1.2074
 5486TIP3    H237950   3.317   4.406   0.413  0.7386  0.9984  0.4529
 5487TIP3   OH237951   0.762   1.357   5.605  0.1299 -0.1094  0.3686
 5487TIP3    H137952   0.822   1.431   5.597 -0.0742  0.0764  0.5463
 5487TIP3    H237953   0.747   1.348   5.699  0.4930 -0.6516  0.3801
 5488TIP3   OH237954   2.448   3.608   0.410 -0.3257 -0.1628  0.3012
 5488TIP3    H137955   2.386   3.557   0.359 -0.1773 -0.3441  0.3010
 5488TIP3    H237956   2.533   3.567   0.395  0.1382  1.2487 -1.2571
 5489TIP3   OH237957   0.524   0.441   1.114  0.3078  0.3312  0.1843
 5489TIP3    H137958   0.611   0.450   1.076  0.7181 -1.9989  0.4339
 5489TIP3    H237959   0.532   0.371   1.179 -1.7026  0.1164  0.2937
 5490TIP3   OH237960   3.160   6.478   3.780 -0.7885  0.1855 -0.1910
 5490TIP3    H137961   3.237   6.524   3.747 -1.6900  1.9520  0.0540
 5490TIP3    H237962   3.166   6.488   3.875 -0.1824 -1.6289  0.0066
 5491TIP3   OH237963   3.748   2.576  15.161 -0.5373  0.2318 -0.2302
 5491TIP3    H137964   3.821   2.537  15.210  1.0887  0.6283 -2.1949
 5491TIP3    H237965   3.692   2.502  15.139 -0.0708 -0.2807  0.2717
 5492TIP3   OH237966   3.927   4.671  11.385  0.4038 -1.0116  0.3591
 5492TIP3    H137967   3.923   4.741  11.450 -2.1056 -1.4795  0.8216
 5492TIP3    H237968   3.904   4.713  11.302 -0.0103 -1.0661  0.4431
 5493TIP3   OH237969   6.425   1.650   0.751 -0.8154  0.0125  0.9881
 5493TIP3    H137970   6.445   1.568   0.796 -1.5358 -0.9582 -0.3813
 5493TIP3    H237971   6.333   1.641   0.725 -0.2379  0.1505 -1.3460
 5494TIP3   OH237972   0.506   6.382   3.739  0.5206  0.4563 -0.6219
 5494TIP3    H137973   0.507   6.478   3.745 -0.7213  0.4212  0.7304
 5494TIP3    H237974   0.464   6.353   3.820 -0.4181 -1.1580 -1.6154
 5495TIP3   OH237975   1.015   0.301   2.004 -0.0231  0.2303 -0.5016
 5495TIP3    H137976   0.951   0.371   2.019  0.1031  0.7556 -2.2237
 5495TIP3    H237977   0.963   0.221   2.008 -0.8100  0.6399 -1.7241
 5496TIP3   OH237978   4.763   4.883   0.082  0.6000 -0.1133 -0.4077
 5496TIP3    H137979   4.759   4.798   0.039  2.3575 -0.1217 -0.6220
 5496TIP3    H237980   4.675   4.895   0.120  1.0067 -3.2346  1.9385
 5497TIP3   OH237981   5.794   3.360   5.342  0.2165 -0.4430 -0.1705
 5497TIP3    H137982   5.792   3.264   5.346  0.4508 -0.4068  0.8469
 5497TIP3    H237983   5.702   3.385   5.334  0.0274 -0.7086  0.9849
 5498TIP3   OH237984   4.386   4.779   3.472  0.0662 -0.9260 -0.1023
 5498TIP3    H137985   4.394   4.843   3.542 -0.9066  0.4148 -1.1696
 5498TIP3    H237986   4.466   4.788   3.421 -0.0048 -0.6758 -0.1671
 5499TIP3   OH237987   0.352   0.412  10.947  0.0767 -0.1163  0.7396
 5499TIP3    H137988   0.308   0.333  10.917 -0.4131  0.2057  0.5944
 5499TIP3    H237989   0.371   0.461  10.867  0.9787 -0.3860  0.7725
 5500TIP3   OH237990   6.628   4.391   5.278 -0.1022 -0.3487  0.4448
 5500TIP3    H137991   6.624   4.296   5.276 -1.3269 -0.3617  2.1728
 5500TIP3    H237992   6.537   4.420   5.275  0.1292  0.6794  2.1551
 5501TIP3   OH237993   6.590   5.307  14.878  0.2385 -0.2311 -0.0880
 5501TIP3    H137994   6.584   5.214  14.860  1.7618 -0.7353  1.7265
 5501TIP3    H237995   6.670   5.317  14.931 -0.3146  1.9724  0.4517
 5502TIP3   OH237996   6.626   4.107   2.315 -0.0384  0.3959 -0.1930
 5502TIP3    H137997   6.629   4.188   2.367  0.2590 -0.1890  0.7182
 5502TIP3    H237998   6.545   4.064   2.342 -0.4276  0.5995 -1.0128
 5503TIP3   OH237999   1.318   2.406  14.606 -0.1165  0.1474 -0.3727
 5503TIP3    H138000   1.260   2.422  14.681  3.0163 -1.0109  2.5483
 5503TIP3    H238001   1.351   2.492  14.581  0.7943  0.3556  1.4068
 5504TIP3   OH238002   6.070   0.480  17.136 -0.1285 -0.4655  0.8858
 5504TIP3    H138003   6.088   0.572  17.156 -1.3557  0.1911 -0.7868
 5504TIP3    H238004   5.998   0.457  17.193 -1.6470  0.4933 -0.5475
 5505TIP3   OH238005   5.309   6.316   4.974  0.0116  0.2076 -0.5785
 5505TIP3    H138006   5.215   6.302   4.973 -0.1077  0.9822 -1.3004
 5505TIP3    H238007   5.337   6.288   5.061 -0.7171 -1.0173 -0.7128
 5506TIP3   OH238008   3.395   3.459   4.254  0.0597 -0.1074  0.4104
 5506TIP3    H138009   3.326   3.471   4.318 -2.0489 -0.9500 -1.5766
 5506TIP3    H238010   3.448   3.387   4.289  0.1888  0.7681  2.1163
 5507TIP3   OH238011   1.496   1.619   0.966  0.0787 -0.2760 -0.9534
 5507TIP3    H138012   1.591   1.626   0.961  0.0248  0.5530 -0.8674
 5507TIP3    H238013   1.464   1.707   0.947 -0.7220 -0.7930 -2.1176
 5508TIP3   OH238014   3.423   2.826  13.360  0.7876 -0.3593  0.1815
 5508TIP3    H138015   3.435   2.732  13.370 -0.6975 -0.6367 -0.4331
 5508TIP3    H238016   3.475   2.848  13.283  2.8908 -0.2430  1.5377
 5509TIP3   OH238017   3.978   3.565  15.313  0.2657  0.2179  0.0270
 5509TIP3    H138018   3.987   3.660  15.305 -0.0224  0.1263 -1.9144
 5509TIP3    H238019   3.984   3.533  15.223  1.2812 -1.7028  0.7076
 5510TIP3   OH238020   4.670   3.179   1.503  0.5313  0.5486 -0.3121
 5510TIP3    H138021   4.620   3.117   1.555  2.0373  1.9898  3.1241
 5510TIP3    H238022   4.622   3.261   1.510  0.4001  0.6431 -1.8933
 5511TIP3   OH238023   1.767   5.180   5.805 -0.7635 -0.2862  0.2627
 5511TIP3    H138024   1.774   5.184   5.900 -1.2885 -0.7381  0.3266
 5511TIP3    H238025   1.745   5.269   5.778 -1.3619 -0.3132  0.6358
 5512TIP3   OH238026   4.987   4.464  14.416  0.6975 -0.0042 -0.8314
 5512TIP3    H138027   4.925   4.512  14.360 -0.9976 -0.8621  0.2329
 5512TIP3    H238028   4.939   4.386  14.442  1.2621  0.5268  2.1305
 5513TIP3   OH238029   5.003   3.211  16.608  0.2734  0.2653 -0.2877
 5513TIP3    H138030   4.980   3.154  16.534 -0.9999 -0.6543  0.7537
 5513TIP3    H238031   5.074   3.266  16.576  1.7020 -2.0446 -1.3045
 5514TIP3   OH238032   6.079   3.936   5.026 -0.5529  0.2241  0.0094
 5514TIP3    H138033   6.024   3.868   5.064 -1.0732  1.3108  1.2783
 5514TIP3    H238034   6.142   3.958   5.095  2.0363 -1.4865 -1.6415
 5515TIP3   OH238035   6.022   1.369  14.960  0.0126  0.2082 -0.1853
 5515TIP3    H138036   5.961   1.301  14.986  0.7819 -1.0404 -1.4878
 5515TIP3    H238037   5.978   1.417  14.889 -0.6119  1.2448  0.8679
 5516TIP3   OH238038   4.390   5.583  14.641 -0.1315  0.4225  0.0469
 5516TIP3    H138039   4.365   5.538  14.721 -2.2093 -2.0785 -1.8547
 5516TIP3    H238040   4.308   5.620  14.607  0.0381 -1.2420 -2.4220
 5517TIP3   OH238041   1.650   6.269   4.973 -0.4964 -0.2103  0.6723
 5517TIP3    H138042   1.680   6.353   5.007  1.3435 -0.9648  1.0564
 5517TIP3    H238043   1.690   6.261   4.887 -0.6846 -0.6708  0.6200
 5518TIP3   OH238044   5.679   0.187  12.739 -0.5371  0.0477 -0.0701
 5518TIP3    H138045   5.642   0.140  12.814  0.6442 -0.5111  0.1924
 5518TIP3    H238046   5.706   0.271  12.775  0.7219 -0.5070  0.3363
 5519TIP3   OH238047   5.866   5.491   1.678 -0.1752  0.4615  0.6383
 5519TIP3    H138048   5.817   5.434   1.620 -0.6711  0.4179  1.0924
 5519TIP3    H238049   5.953   5.451   1.684  0.6786  1.6961 -1.8953
 5520TIP3   OH238050   3.922   4.296   5.089  0.4376 -0.1860 -0.4560
 5520TIP3    H138051   4.014   4.321   5.100  0.2558  0.3760 -0.1912
 5520TIP3    H238052   3.881   4.372   5.048  0.6767 -1.4724 -3.3108
 5521TIP3   OH238053   0.929   1.194  10.900 -0.5887  0.2212  0.1931
 5521TIP3    H138054   1.015   1.166  10.929 -1.1995 -2.0252  0.0112
 5521TIP3    H238055   0.943   1.222  10.809 -0.0344 -0.1000  0.1729
 5522TIP3   OH238056   5.441   6.165  14.963 -0.0431 -0.1547 -0.3224
 5522TIP3    H138057   5.474   6.095  14.907  2.1600  1.2138 -0.8237
 5522TIP3    H238058   5.510   6.178  15.028  0.0821  2.2066 -0.8414
 5523TIP3   OH238059   3.611   1.534   0.007 -0.4009  0.5584  0.0082
 5523TIP3    H138060   3.699   1.507   0.031 -0.1197 -0.2445 -1.7232
 5523TIP3    H238061   3.621   1.576  -0.078 -1.8307 -0.9970 -1.0018
 5524TIP3   OH238062   0.260   5.675  12.985  0.1155  0.5688 -0.2715
 5524TIP3    H138063   0.230   5.740  13.049  2.7022 -0.4386  2.1224
 5524TIP3    H238064   0.198   5.603  12.994  0.6427  0.2909  1.4331
 5525TIP3   OH238065   6.793   0.048  16.103  0.0981  0.3304  0.7310
 5525TIP3    H138066   6.867   0.072  16.159  1.1415 -0.7067 -0.1626
 5525TIP3    H238067   6.818  -0.036  16.065 -1.4860  0.0301  0.2984
 5526TIP3   OH238068   3.480   5.364   1.231 -0.0015  0.4698 -0.0231
 5526TIP3    H138069   3.463   5.310   1.154  1.2216  0.2244 -0.1463
 5526TIP3    H238070   3.449   5.312   1.305  3.6302 -1.7656  0.1639
 5527TIP3   OH238071   0.870   4.064   0.468  0.5970  1.0116  0.0268
 5527TIP3    H138072   0.788   4.022   0.443  1.0573  0.1027 -0.0398
 5527TIP3    H238073   0.849   4.156   0.477 -0.3713  0.8272 -0.2386
 5528TIP3   OH238074   0.541   5.899  16.470  0.1727  0.3727  0.4133
 5528TIP3    H138075   0.533   5.946  16.386 -0.4610 -0.6497 -0.1257
 5528TIP3    H238076   0.634   5.882  16.479  0.0724 -1.2984 -1.1323
 5529TIP3   OH238077   2.615   5.387   2.671  0.1384 -0.4830  0.0402
 5529TIP3    H138078   2.576   5.421   2.590  0.7577  0.5160  0.1420
 5529TIP3    H238079   2.548   5.329   2.708  0.1562 -1.6010 -1.5874
 5530TIP3   OH238080   0.687   2.500   4.221  0.7647 -0.7842  0.1821
 5530TIP3    H138081   0.762   2.560   4.227  1.6742 -1.9682  1.5892
 5530TIP3    H238082   0.695   2.445   4.299 -1.2443 -1.3626  0.0305
 5531TIP3   OH238083   1.447   1.197   3.279 -0.0967  0.5518 -0.0179
 5531TIP3    H138084   1.446   1.102   3.271 -0.8721  0.5929 -0.5103
 5531TIP3    H238085   1.355   1.223   3.275  0.1037  1.3210  0.1182
 5532TIP3   OH238086   3.497   3.770   0.264 -0.3769  0.8848  0.2021
 5532TIP3    H138087   3.572   3.813   0.223 -0.2204  0.6956  0.2899
 5532TIP3    H238088   3.532   3.689   0.300 -0.7316  0.5228 -0.2503
 5533TIP3   OH238089   4.214   3.697  13.147 -0.5296 -0.3428 -0.3740
 5533TIP3    H138090   4.229   3.792  13.139 -0.3691 -0.2203  1.1098
 5533TIP3    H238091   4.120   3.687  13.132 -0.3314 -0.1363 -1.8997
 5534TIP3   OH238092   3.417   2.616   0.131  0.3309 -0.0799 -0.0314
 5534TIP3    H138093   3.372   2.554   0.074 -0.4354 -0.6701  1.1906
 5534TIP3    H238094   3.349   2.645   0.192  0.4918  2.4298 -0.9089
 5535TIP3   OH238095   4.206   6.528   2.073  0.3539  0.2150  0.1076
 5535TIP3    H138096   4.133   6.535   2.135 -1.4027  1.4785 -1.9329
 5535TIP3    H238097   4.281   6.565   2.119 -1.2080  2.3888  1.0612
 5536TIP3   OH238098   0.696   2.318   1.318  0.6716  0.0875 -0.5034
 5536TIP3    H138099   0.756   2.387   1.347 -0.9397  0.7680  1.4500
 5536TIP3    H238100   0.749   2.238   1.318  1.5278  0.5853  1.5662
 5537TIP3   OH238101   3.440   4.222  16.058 -0.6089  0.3509 -0.3087
 5537TIP3    H138102   3.451   4.140  16.106 -1.8084 -0.1754 -0.8915
 5537TIP3    H238103   3.468   4.290  16.120  1.3521 -0.5377 -0.1669
 5538TIP3   OH238104   0.613   4.268  13.393 -0.5383 -0.4203  0.0893
 5538TIP3    H138105   0.553   4.321  13.446  1.2674  0.7353  1.0732
 5538TIP3    H238106   0.630   4.321  13.316 -0.0462 -0.3008  0.2746
 5539TIP3   OH238107   6.042   5.456  16.265  0.0743 -0.2124 -0.4582
 5539TIP3    H138108   5.999   5.391  16.209 -2.4460  0.4338  0.5711
 5539TIP3    H238109   5.997   5.538  16.244  0.4881  0.4262  1.0469
 5540TIP3   OH238110   1.265   3.501  11.606  0.7690  0.0596  0.7674
 5540TIP3    H138111   1.262   3.583  11.655  0.4342  0.2948  0.3655
 5540TIP3    H238112   1.294   3.527  11.518 -0.4009 -0.0864  0.3223
 5541TIP3   OH238113   0.077   4.490  14.835  0.2468  0.0536 -0.4631
 5541TIP3    H138114   0.050   4.464  14.923 -1.0120 -1.0720 -1.1567
 5541TIP3    H238115   0.119   4.412  14.799 -1.7824 -0.4546 -1.8545
 5542TIP3   OH238116   1.426   1.007  16.720  0.4268  0.3044  0.6191
 5542TIP3    H138117   1.383   0.934  16.675  0.2377  0.2258  0.9257
 5542TIP3    H238118   1.354   1.054  16.762  0.4302  1.1922 -0.3119
 5543TIP3   OH238119   5.349   0.450   1.135  1.0097 -0.2687 -0.0993
 5543TIP3    H138120   5.279   0.504   1.170  1.2655  0.7212 -1.0526
 5543TIP3    H238121   5.304   0.386   1.080  0.8682  1.0854 -1.6451
 5544TIP3   OH238122   2.571   4.484   4.252 -0.0535  0.0891 -0.3165
 5544TIP3    H138123   2.509   4.513   4.319  0.6167 -2.8106  1.7285
 5544TIP3    H238124   2.655   4.520   4.279  0.3160 -1.5177  0.7943
 5545TIP3   OH238125   2.446   0.648  12.180 -0.4276  0.1551  0.7936
 5545TIP3    H138126   2.478   0.725  12.132 -0.0473 -1.5709 -1.9542
 5545TIP3    H238127   2.351   0.663  12.188 -0.3276  1.0108  0.5059
 5546TIP3   OH238128   3.165   3.604  11.760  0.2507 -0.3278 -0.7552
 5546TIP3    H138129   3.225   3.587  11.688  0.2215  3.3662 -1.8728
 5546TIP3    H238130   3.217   3.653  11.824 -0.2279 -1.8771  0.9060
 5547TIP3   OH238131   1.517   1.127   3.530 -0.1088 -1.0084  0.5798
 5547TIP3    H138132   1.495   1.145   3.439  1.2045 -0.8782  0.2762
 5547TIP3    H238133   1.494   1.207   3.577 -1.4096 -1.3027  0.5018
 5548TIP3   OH238134   5.343   5.394   1.215  0.5295 -0.5892 -0.0685
 5548TIP3    H138135   5.259   5.384   1.260 -0.1460 -0.0719 -1.1897
 5548TIP3    H238136   5.371   5.483   1.236  0.0281 -0.2132 -0.9614
 5549TIP3   OH238137   6.494   2.604   1.972 -0.5564  0.0662  0.0078
 5549TIP3    H138138   6.528   2.666   1.907  0.6398  0.3377  0.8531
 5549TIP3    H238139   6.422   2.650   2.015  0.4269  0.9716  0.7439
 5550TIP3   OH238140   1.481   6.570  12.550 -0.0450  0.5084  0.0111
 5550TIP3    H138141   1.386   6.581  12.551 -0.6075 -3.2115  1.3422
 5550TIP3    H238142   1.516   6.659  12.554 -3.3906  2.1193 -2.3871
 5551TIP3   OH238143   2.731   2.751   5.185  0.2359  0.2224 -0.0927
 5551TIP3    H138144   2.686   2.759   5.101 -0.5506  1.6487  0.4187
 5551TIP3    H238145   2.660   2.750   5.250  0.7836 -1.5496  0.5622
 5552TIP3   OH238146   0.229   4.942  11.049  0.1751  0.1316 -0.2605
 5552TIP3    H138147   0.244   4.847  11.040 -0.6537 -0.1547  1.0823
 5552TIP3    H238148   0.279   4.981  10.978  1.0320 -1.2794 -0.4684
 5553TIP3   OH238149   1.115   4.193  16.155  0.5740  0.1989 -0.0041
 5553TIP3    H138150   1.102   4.118  16.097 -1.2573 -0.7745  1.5585
 5553TIP3    H238151   1.131   4.266  16.095  1.2814 -1.2102 -1.6146
 5554TIP3   OH238152   4.965   1.257   0.571 -0.6591  0.0765  0.0294
 5554TIP3    H138153   5.023   1.191   0.609 -0.2974 -0.3772 -1.2751
 5554TIP3    H238154   4.910   1.285   0.644  0.9080  0.2153  1.2042
 5555TIP3   OH238155   4.303   3.881  13.475  0.0985 -0.6523  0.1590
 5555TIP3    H138156   4.324   3.798  13.519  0.5332 -1.4337 -1.4368
 5555TIP3    H238157   4.210   3.873  13.453  0.1268 -0.7002  0.0550
 5556TIP3   OH238158   6.336   3.291   4.734  0.0139 -0.2692 -0.2681
 5556TIP3    H138159   6.355   3.241   4.814  0.6371 -0.2480 -0.3999
 5556TIP3    H238160   6.242   3.307   4.738  0.3120  1.3512  1.4068
 5557TIP3   OH238161   2.619   5.119   4.398  0.3878 -0.4132  0.3007
 5557TIP3    H138162   2.626   5.154   4.487  0.5103  0.0573  0.1084
 5557TIP3    H238163   2.582   5.032   4.410 -2.0067  0.5834  0.6224
 5558TIP3   OH238164   3.445   0.092   1.959 -0.2941  0.5777  0.2344
 5558TIP3    H138165   3.536   0.110   1.935  0.2243 -1.0745  0.8286
 5558TIP3    H238166   3.409   0.048   1.881  0.4898 -1.9432  1.1708
 5559TIP3   OH238167   0.005   1.954   2.236  0.0902 -0.2010  0.3368
 5559TIP3    H138168   0.037   2.019   2.299 -0.4993  0.0728  0.3670
 5559TIP3    H238169   0.028   1.991   2.151 -0.5643  0.2382  0.3401
 5560TIP3   OH238170   0.744   0.996  12.284 -0.0077  0.1115  0.3377
 5560TIP3    H138171   0.652   0.976  12.269  0.0346  0.1840 -0.0411
 5560TIP3    H238172   0.758   1.079  12.240  0.4426 -0.3230 -0.3670
 5561TIP3   OH238173   6.497   5.456  16.066  0.6137  0.2175  0.1460
 5561TIP3    H138174   6.526   5.510  15.993 -0.4127  0.3810 -0.1565
 5561TIP3    H238175   6.406   5.434  16.045  0.2122  0.4971  1.5006
 5562TIP3   OH238176   6.344   2.517  14.446  0.2552  0.0873 -0.1441
 5562TIP3    H138177   6.413   2.452  14.463  1.2144  0.9598 -0.6261
 5562TIP3    H238178   6.329   2.512  14.351  0.6627  0.8829 -0.2567
 5563TIP3   OH238179   0.031   2.163  10.830  0.4201 -0.1871  0.7168
 5563TIP3    H138180  -0.054   2.133  10.799 -0.7962  1.8061  1.9159
 5563TIP3    H238181   0.061   2.093  10.888 -1.4699  0.0317  2.0391
 5564TIP3   OH238182   4.660   3.867  11.070 -0.1905  0.0201  0.3443
 5564TIP3    H138183   4.645   3.874  11.164  1.4466  3.0275  0.4876
 5564TIP3    H238184   4.622   3.947  11.034 -1.4970 -1.4413 -1.7264
 5565TIP3   OH238185   2.141   6.360  16.608 -0.3060 -0.0740 -0.5379
 5565TIP3    H138186   2.157   6.355  16.514 -0.1982  0.2205 -0.5374
 5565TIP3    H238187   2.227   6.381  16.646 -0.3832 -0.0172 -0.3909
 5566TIP3   OH238188   3.836   3.857   4.853  0.0361  0.8087  0.2380
 5566TIP3    H138189   3.836   3.768   4.888  0.1445  0.4405 -0.6753
 5566TIP3    H238190   3.824   3.846   4.758 -0.9562  1.8176  0.2292
 5567TIP3   OH238191   3.027   1.686  12.222 -0.3344 -0.6795  0.1101
 5567TIP3    H138192   2.991   1.774  12.209 -1.1099 -0.9888  0.1212
 5567TIP3    H238193   2.953   1.633  12.250  0.2399 -1.2181  0.6679
 5568TIP3   OH238194   3.265   5.448   2.672 -0.0323 -0.1648 -0.4875
 5568TIP3    H138195   3.242   5.393   2.598 -1.1507 -0.7500  0.2719
 5568TIP3    H238196   3.190   5.443   2.731  0.6814  0.5623  0.5312
 5569TIP3   OH238197   1.462   2.613  15.037 -0.1361  0.7552  0.0107
 5569TIP3    H138198   1.452   2.523  15.006 -0.6594  0.7837  0.0724
 5569TIP3    H238199   1.537   2.648  14.989  1.7511 -0.5105  1.8542
 5570TIP3   OH238200   0.655   5.553  16.418 -0.9488 -0.2086  0.5950
 5570TIP3    H138201   0.635   5.564  16.325  2.9463 -2.9386 -0.8379
 5570TIP3    H238202   0.581   5.501  16.452 -1.3879 -1.1558 -1.6098
 5571TIP3   OH238203   1.068   5.853   2.393 -0.4267 -0.1361  0.1166
 5571TIP3    H138204   1.031   5.808   2.317 -0.1086  0.2184 -0.2499
 5571TIP3    H238205   1.073   5.785   2.460 -4.1929  0.3328  1.0710
 5572TIP3   OH238206   4.240   6.128  14.023  0.0533  0.6011  0.1359
 5572TIP3    H138207   4.272   6.218  14.021 -0.5141  0.7926 -0.4564
 5572TIP3    H238208   4.157   6.130  13.976 -0.7745  0.0710  1.5096
 5573TIP3   OH238209   5.768   2.917  16.403  0.0674  1.3688  0.4450
 5573TIP3    H138210   5.778   2.896  16.310  2.2983 -1.8541  1.2419
 5573TIP3    H238211   5.836   2.983  16.420  1.7240 -0.2357  0.3087
 5574TIP3   OH238212   2.663   4.011   5.421  0.1529 -0.3306 -0.1555
 5574TIP3    H138213   2.737   3.952   5.426  0.4954 -0.0834 -1.8704
 5574TIP3    H238214   2.641   4.016   5.328  0.1659  2.2438 -0.1001
 5575TIP3   OH238215   0.226   4.099   3.084  0.0708 -0.1797  0.0431
 5575TIP3    H138216   0.293   4.042   3.122  0.5617 -0.5622 -1.3526
 5575TIP3    H238217   0.153   4.095   3.146  0.3631 -1.7566  0.3162
 5576TIP3   OH238218   5.228   0.565   0.462 -0.2743 -0.3517 -0.8680
 5576TIP3    H138219   5.195   0.527   0.543 -0.3687  0.4187 -0.5291
 5576TIP3    H238220   5.318   0.589   0.481  0.0703 -1.2277 -1.3673
 5577TIP3   OH238221   6.053   4.370   3.895 -0.1116 -0.0351 -0.3032
 5577TIP3    H138222   6.087   4.314   3.965  1.1290 -2.1340 -2.4446
 5577TIP3    H238223   6.127   4.424   3.869 -0.2065 -0.1421 -0.8042
 5578TIP3   OH238224   6.509   0.988  16.259 -0.7283 -0.3406  0.1936
 5578TIP3    H138225   6.477   0.961  16.345 -0.6692 -1.1999 -0.0407
 5578TIP3    H238226   6.602   0.965  16.260 -0.0766  2.0503  0.8380
 5579TIP3   OH238227   2.851   5.315  11.278 -0.0600 -0.6202 -0.8625
 5579TIP3    H138228   2.885   5.402  11.302 -2.9123  0.4418 -0.2762
 5579TIP3    H238229   2.861   5.311  11.183 -0.1596  0.5239 -0.9431
 5580TIP3   OH238230   6.810   2.881  11.859 -0.1127 -0.2855 -0.3950
 5580TIP3    H138231   6.736   2.855  11.914 -0.7654  1.3159 -0.4513
 5580TIP3    H238232   6.831   2.970  11.888  0.2406  0.1880 -1.9918
 5581TIP3   OH238233   4.737   3.311  14.171  0.1103  0.0260 -0.4894
 5581TIP3    H138234   4.657   3.299  14.119 -0.8116 -2.2930  1.2819
 5581TIP3    H238235   4.712   3.371  14.241  0.3982  0.5728 -0.8530
 5582TIP3   OH238236   3.743   0.850  13.698  0.5477  0.4393  0.0870
 5582TIP3    H138237   3.665   0.816  13.742 -0.1473  0.7901 -0.8340
 5582TIP3    H238238   3.708   0.906  13.628  1.6441  1.1954  0.1304
 5583TIP3   OH238239   0.077   3.177  14.043  0.4423 -0.0603 -0.0105
 5583TIP3    H138240   0.008   3.225  13.997  1.2317  1.1164 -0.0109
 5583TIP3    H238241   0.090   3.225  14.125  1.6669  0.1130 -0.2801
 5584TIP3   OH238242   4.884   1.709   2.658 -0.2511 -0.4571  0.2528
 5584TIP3    H138243   4.954   1.672   2.711 -1.1845 -0.7697  1.3074
 5584TIP3    H238244   4.929   1.768   2.597  0.9934 -1.2924  0.3268
 5585TIP3   OH238245   0.603   2.949   2.712  0.3715  0.8609  1.0840
 5585TIP3    H138246   0.678   2.913   2.758  0.4363  0.3208  0.5653
 5585TIP3    H238247   0.541   2.876   2.706 -0.0072  1.1770  1.1134
 5586TIP3   OH238248   5.022   3.804  17.015 -0.2669 -0.5475  0.2317
 5586TIP3    H138249   5.045   3.792  17.107  1.2598 -2.4127 -0.3334
 5586TIP3    H238250   4.961   3.878  17.015  1.5396  1.0865  2.4770
 5587TIP3   OH238251   0.599   0.413   2.406  0.6528  0.3733 -0.4707
 5587TIP3    H138252   0.669   0.460   2.361  0.6833  1.5938  0.8021
 5587TIP3    H238253   0.543   0.482   2.441  0.5372 -0.5459  1.2263
 5588TIP3   OH238254   2.371   4.598  13.812 -0.6753 -0.6714 -0.2364
 5588TIP3    H138255   2.461   4.624  13.835 -1.1156  0.2746  0.4628
 5588TIP3    H238256   2.361   4.511  13.850  0.8787 -2.0877 -2.7391
 5589TIP3   OH238257   6.625   0.160   3.740 -0.0822 -0.5340 -0.3031
 5589TIP3    H138258   6.625   0.107   3.660  1.4824  0.6166 -1.1210
 5589TIP3    H238259   6.688   0.230   3.722 -0.9598  0.7341  1.3118
 5590TIP3   OH238260   5.880   2.032  12.306  0.0365 -0.1754 -0.3475
 5590TIP3    H138261   5.894   2.081  12.387 -0.4992 -1.3061  0.4649
 5590TIP3    H238262   5.793   2.060  12.276 -0.3419 -0.7411  0.2066
 5591TIP3   OH238263   3.857   5.507   3.300 -0.0525  0.2049  0.2480
 5591TIP3    H138264   3.841   5.536   3.211 -2.6896 -1.1646  0.1758
 5591TIP3    H238265   3.901   5.423   3.290 -0.1296  0.1662  0.2323
 5592TIP3   OH238266   4.933   4.954  16.749  0.1038 -0.4388  0.0412
 5592TIP3    H138267   4.917   5.023  16.684 -0.6343 -1.4545 -0.8850
 5592TIP3    H238268   5.000   4.991  16.806 -1.4950  1.7426  0.6302
 5593TIP3   OH238269   6.668   6.452   4.786  0.1915 -0.2303  0.5311
 5593TIP3    H138270   6.675   6.496   4.871  0.1752  0.8736 -0.0216
 5593TIP3    H238271   6.758   6.439   4.758  0.1896  0.3247  0.2609
 5594TIP3   OH238272   2.755   1.760   4.272  0.4348 -0.3530 -0.4809
 5594TIP3    H138273   2.759   1.735   4.364 -0.9456 -0.6336 -0.4783
 5594TIP3    H238274   2.788   1.684   4.225 -1.1537 -1.1769 -0.3259
 5595TIP3   OH238275   4.532   5.255  11.961 -0.5566  0.0381 -1.0629
 5595TIP3    H138276   4.541   5.258  11.866 -0.7277 -0.8234 -1.1160
 5595TIP3    H238277   4.605   5.200  11.990 -0.8483 -0.1900 -0.7548
 5596TIP3   OH238278   2.671   4.952  15.859 -0.8312  0.3280  0.2717
 5596TIP3    H138279   2.666   5.046  15.878 -2.8632  0.2937  0.1181
 5596TIP3    H238280   2.712   4.914  15.938 -0.3299  1.2760  0.4844
 5597TIP3   OH238281   0.943   0.558   0.718 -0.1865 -0.1286 -1.0942
 5597TIP3    H138282   1.017   0.539   0.777 -0.7252 -1.5823 -0.8488
 5597TIP3    H238283   0.971   0.524   0.633 -0.7474 -1.1488 -0.8884
 5598TIP3   OH238284   3.336   4.746  12.874  0.0011 -0.1527  0.3805
 5598TIP3    H138285   3.288   4.818  12.834 -0.6639  0.7149  2.5736
 5598TIP3    H238286   3.279   4.715  12.945  2.0329 -0.0394  2.1629
 5599TIP3   OH238287   2.117   1.872   2.973  0.3754 -0.2100 -0.0311
 5599TIP3    H138288   2.168   1.940   3.018 -0.5064  1.1196 -0.9710
 5599TIP3    H238289   2.174   1.841   2.903  0.4753  0.1525 -0.1106
 5600TIP3   OH238290   2.065   0.741   3.806  0.1229  0.1700  0.0654
 5600TIP3    H138291   2.153   0.716   3.778  0.2669  0.4400  0.2702
 5600TIP3    H238292   2.073   0.833   3.832 -0.2757  0.2688 -0.1542
 5601TIP3   OH238293   1.171   2.519  13.619  0.1612 -0.3179 -0.7339
 5601TIP3    H138294   1.209   2.467  13.690 -1.1509  0.5310  0.6711
 5601TIP3    H238295   1.232   2.593  13.608  0.8279 -0.9154 -1.1336
 5602TIP3   OH238296   0.653   3.346   6.159 -0.2643 -0.2404  0.6558
 5602TIP3    H138297   0.733   3.395   6.141  0.6634 -0.0430  4.5214
 5602TIP3    H238298   0.663   3.265   6.108  1.2489  0.7961 -0.7902
 5603TIP3   OH238299   0.896   6.728   5.876 -0.0886  0.2652  0.7413
 5603TIP3    H138300   0.876   6.644   5.917 -0.8395  0.3044  0.4741
 5603TIP3    H238301   0.829   6.788   5.910 -0.4285  0.4121 -0.1443
 5604TIP3   OH238302   0.637   5.377  15.055 -0.1562  0.3741 -0.1921
 5604TIP3    H138303   0.680   5.434  15.119 -0.8668  1.1796 -0.4183
 5604TIP3    H238304   0.557   5.349  15.099 -0.3121  0.3801 -0.4773
 5605TIP3   OH238305   2.766   3.276   2.484  0.4943 -0.0144 -0.0012
 5605TIP3    H138306   2.748   3.187   2.514 -0.3658  0.0116 -0.4111
 5605TIP3    H238307   2.851   3.298   2.522  0.0741 -0.4958  1.2777
 5606TIP3   OH238308   1.129   3.060   5.141 -0.4600 -0.1349  0.6270
 5606TIP3    H138309   1.111   3.042   5.233 -0.1746  0.1660  0.7439
 5606TIP3    H238310   1.071   3.001   5.093 -1.0150  0.1075  0.9991
 5607TIP3   OH238311   5.194   2.057   5.422  0.4815 -0.4059 -0.5024
 5607TIP3    H138312   5.271   2.114   5.420 -0.2228  0.5497 -0.5945
 5607TIP3    H238313   5.220   1.981   5.369  1.2203  0.0797 -0.8595
 5608TIP3   OH238314   2.143   0.720  14.336  0.2819 -0.5031 -0.1146
 5608TIP3    H138315   2.157   0.803  14.381  0.1632 -0.8123  0.5005
 5608TIP3    H238316   2.217   0.713  14.274  0.0870  0.2279 -0.4381
 5609TIP3   OH238317   3.428   6.292   6.215 -0.7491 -0.3564  0.3821
 5609TIP3    H138318   3.485   6.223   6.179 -0.7479  1.0807 -2.6710
 5609TIP3    H238319   3.485   6.369   6.222 -1.6166  0.3119  0.1668
 5610TIP3   OH238320   1.325   0.468  16.061 -0.7057  0.1135 -0.5001
 5610TIP3    H138321   1.230   0.476  16.055 -0.9395 -0.1034  1.8912
 5610TIP3    H238322   1.340   0.378  16.093  0.3706 -0.1753 -1.7321
 5611TIP3   OH238323   0.004   2.518  12.099 -0.2361 -0.0164  0.3965
 5611TIP3    H138324  -0.072   2.511  12.041 -0.1702 -1.7538  0.4794
 5611TIP3    H238325  -0.015   2.594  12.154 -0.7215  1.1363 -1.2590
 5612TIP3   OH238326   0.934   0.697   3.589  0.0570  0.0352 -0.4935
 5612TIP3    H138327   0.867   0.733   3.646 -0.8669 -1.3662 -0.6424
 5612TIP3    H238328   1.008   0.679   3.647  0.5852  2.1612 -0.4298
 5613TIP3   OH238329   1.526   3.439   6.578  0.2805  0.4404 -0.4576
 5613TIP3    H138330   1.596   3.417   6.516  0.7383  0.9613 -0.1398
 5613TIP3    H238331   1.483   3.356   6.597  0.3323  0.2324 -1.2410
 5614TIP3   OH238332   2.436   5.408  15.242  0.2341  0.7371  0.0594
 5614TIP3    H138333   2.423   5.497  15.275 -2.4162  0.7569 -0.7330
 5614TIP3    H238334   2.501   5.369  15.300  0.5976  2.8286  1.1344
 5615TIP3   OH238335   0.002   0.330  16.707 -0.1972  0.0346 -0.2332
 5615TIP3    H138336   0.092   0.348  16.734 -1.3237  0.8156  3.7204
 5615TIP3    H238337   0.001   0.236  16.687  1.4430 -0.0140 -0.2111
 5616TIP3   OH238338   0.026   5.389  12.001  0.0438  0.6351  0.3011
 5616TIP3    H138339  -0.011   5.304  11.976  1.4845  0.0990 -0.1421
 5616TIP3    H238340  -0.038   5.453  11.970  0.1208 -0.1744 -1.6806
 5617TIP3   OH238341   6.018   6.390   4.709 -0.5439 -0.3086 -0.2809
 5617TIP3    H138342   5.928   6.405   4.739 -0.2561 -0.1305  0.5093
 5617TIP3    H238343   6.041   6.304   4.744 -1.3762 -1.6963 -2.8673
 5618TIP3   OH238344   0.078   4.058  13.967  0.2324 -0.2610  0.7481
 5618TIP3    H138345   0.070   4.068  13.872  0.8189  0.3325  0.7568
 5618TIP3    H238346   0.159   4.104  13.989 -0.6256  0.7988  1.7256
 5619TIP3   OH238347   6.045   1.477   0.072 -0.3543  0.1136 -0.0195
 5619TIP3    H138348   5.959   1.435   0.063 -0.2196 -0.2247  0.2214
 5619TIP3    H238349   6.093   1.449  -0.005 -1.2266  2.2312 -1.4252
 5620TIP3   OH238350   2.338   5.585   1.971 -0.0914  0.1852  0.3529
 5620TIP3    H138351   2.254   5.545   1.993  0.8612 -0.8657  2.4609
 5620TIP3    H238352   2.366   5.542   1.890 -1.4563  0.3802 -0.2347
 5621TIP3   OH238353   5.722   4.760  11.836  1.3147 -0.3960 -0.3231
 5621TIP3    H138354   5.665   4.829  11.870  0.8322 -2.1332  2.7738
 5621TIP3    H238355   5.809   4.782  11.870  0.9531 -1.7955  1.6706
 5622TIP3   OH238356   0.247   2.965   1.270  0.4790  0.1634 -0.0793
 5622TIP3    H138357   0.210   2.916   1.344 -0.1791  0.4549 -0.2052
 5622TIP3    H238358   0.226   3.056   1.288 -0.2871  0.1771 -0.9439
 5623TIP3   OH238359   2.165   0.696  12.123 -0.8194  0.1529  0.4252
 5623TIP3    H138360   2.115   0.728  12.198 -1.2783 -0.8617  0.5647
 5623TIP3    H238361   2.124   0.739  12.047  0.8148  2.6715  0.8183
 5624TIP3   OH238362   3.075   1.962   5.938 -0.2951 -0.2606  0.0078
 5624TIP3    H138363   3.118   1.887   5.898 -0.6482 -0.9898  0.9531
 5624TIP3    H238364   2.988   1.931   5.961 -0.2241  0.2132  1.0166
 5625TIP3   OH238365   6.267   4.925   2.826  0.2470  0.2509  0.2756
 5625TIP3    H138366   6.330   4.968   2.768 -1.5552 -0.5558 -2.4533
 5625TIP3    H238367   6.320   4.860   2.873  1.6589  0.2802 -1.1717
 5626TIP3   OH238368   2.084   1.956   1.791 -0.1842  0.1545  0.3216
 5626TIP3    H138369   2.031   2.014   1.737  1.5555  0.9889 -0.5797
 5626TIP3    H238370   2.109   2.009   1.867  0.6670  0.3319 -0.0628
 5627TIP3   OH238371   2.694   6.782   1.351  0.4637 -0.1513 -0.6778
 5627TIP3    H138372   2.758   6.851   1.338  0.8453 -0.4925 -0.6461
 5627TIP3    H238373   2.619   6.825   1.391  1.2112  0.0200  0.5855
 5628TIP3   OH238374   2.537   6.554  10.921  0.3422 -0.3115 -0.1927
 5628TIP3    H138375   2.517   6.623  10.858  0.5453 -1.4578 -1.5635
 5628TIP3    H238376   2.470   6.563  10.989  0.6055  1.4569 -0.1277
 5629TIP3   OH238377   3.007   0.070  14.402  0.1231  0.0780  0.0356
 5629TIP3    H138378   2.999   0.085  14.496  1.0156 -0.8730  0.2773
 5629TIP3    H238379   2.997   0.157  14.363 -1.6102  0.3055  0.8951
 5630TIP3   OH238380   6.379   4.770   0.685 -0.3007  0.3905  0.0446
 5630TIP3    H138381   6.370   4.842   0.748  3.3380  1.6441 -0.6645
 5630TIP3    H238382   6.300   4.776   0.631 -1.6606  1.7077  2.0409
 5631TIP3   OH238383   1.383   3.275  12.932  0.3048 -0.1536  0.7008
 5631TIP3    H138384   1.345   3.354  12.895 -1.0052 -0.3431  1.5549
 5631TIP3    H238385   1.464   3.261  12.884 -0.1433  0.9357 -0.3935
 5632TIP3   OH238386   3.950   0.219   0.381  0.1092  0.2977  0.5088
 5632TIP3    H138387   3.940   0.244   0.473 -2.7216 -1.7336  0.9026
 5632TIP3    H238388   3.864   0.236   0.342  0.7694 -0.3715 -1.3755
 5633TIP3   OH238389   0.419   2.912  14.745  0.3691  0.3336  0.0837
 5633TIP3    H138390   0.327   2.899  14.766  1.0135 -0.3732  2.7961
 5633TIP3    H238391   0.431   2.866  14.661 -1.2942 -1.4313  0.7371
 5634TIP3   OH238392   0.430   0.972  10.986 -0.3534 -0.0830  0.3231
 5634TIP3    H138393   0.499   0.978  10.919  1.4573 -4.4743  1.4477
 5634TIP3    H238394   0.349   0.959  10.936  0.7107 -1.5550 -1.1391
 5635TIP3   OH238395   0.743   6.070  10.741 -0.4089  0.0596 -0.2298
 5635TIP3    H138396   0.763   6.146  10.796  0.8998 -0.4134 -0.0138
 5635TIP3    H238397   0.817   6.065  10.681  0.9935 -2.6345  1.5345
 5636TIP3   OH238398   0.015   3.513  12.022  0.5126 -0.5783  0.3353
 5636TIP3    H138399  -0.047   3.569  11.974  0.6766  0.9795  1.8414
 5636TIP3    H238400  -0.041   3.459  12.078  0.4448  0.8407  1.7075
 5637TIP3   OH238401   5.063   6.263   4.561 -0.3466 -0.4826  0.4841
 5637TIP3    H138402   5.026   6.207   4.493 -2.3436  0.5660  0.6225
 5637TIP3    H238403   5.036   6.221   4.643 -0.6829 -0.0530  0.5955
 5638TIP3   OH238404   1.218   5.176  11.528 -0.1148  0.1007  0.2375
 5638TIP3    H138405   1.131   5.136  11.527 -0.6834  1.1972  1.5319
 5638TIP3    H238406   1.231   5.210  11.440 -0.0525 -1.9544 -0.5853
 5639TIP3   OH238407   1.874   1.998  10.541 -0.2473 -0.0886  0.0227
 5639TIP3    H138408   1.929   2.059  10.492 -0.3545  0.1004  0.1368
 5639TIP3    H238409   1.857   1.926  10.479  1.5776 -1.0175  0.5410
 5640TIP3   OH238410   3.359   3.633   3.287 -0.0658 -0.0785 -0.0065
 5640TIP3    H138411   3.437   3.672   3.326  1.8338 -0.4684 -3.1001
 5640TIP3    H238412   3.299   3.707   3.277  1.2981  0.9923 -0.7346
 5641TIP3   OH238413   4.094   2.251   2.743  0.1020 -0.3943  0.1730
 5641TIP3    H138414   4.179   2.235   2.703  0.6747 -1.3253  1.6831
 5641TIP3    H238415   4.032   2.245   2.670  1.4036  1.6485 -1.1967
 5642TIP3   OH238416   1.371   2.786  17.132 -0.0116 -0.0270 -0.4058
 5642TIP3    H138417   1.439   2.824  17.076  0.3020  1.4491  0.9366
 5642TIP3    H238418   1.404   2.797  17.221 -1.7952  0.2613  0.2510
 5643TIP3   OH238419   5.297   1.425  16.890 -0.3796 -0.3683  0.1764
 5643TIP3    H138420   5.237   1.407  16.963 -1.8104 -1.2662 -1.1451
 5643TIP3    H238421   5.247   1.401  16.812  1.0511  0.6971 -1.1259
 5644TIP3   OH238422   1.422   1.302  14.206 -0.3719 -0.3832  0.1407
 5644TIP3    H138423   1.351   1.251  14.167 -0.0214 -0.1509 -0.8209
 5644TIP3    H238424   1.381   1.382  14.236 -0.3365  0.3232 -1.5630
 5645TIP3   OH238425   3.891   3.462   5.719 -0.1050 -0.0547  0.4041
 5645TIP3    H138426   3.959   3.530   5.714 -1.8760  1.8364  0.9720
 5645TIP3    H238427   3.863   3.463   5.810 -1.9181  0.2551 -0.1300
 5646TIP3   OH238428   1.784   6.645  11.903  0.0492  0.9519  0.2049
 5646TIP3    H138429   1.823   6.639  11.990 -0.8453  2.6736  0.7629
 5646TIP3    H238430   1.797   6.736  11.877 -1.3959  0.9401 -0.6455
 5647TIP3   OH238431   6.673   3.626  17.116 -0.4319 -0.2868 -0.2501
 5647TIP3    H138432   6.638   3.595  17.199 -0.2507 -1.2769 -0.5253
 5647TIP3    H238433   6.701   3.546  17.071 -0.6861  0.2146 -1.3294
 5648TIP3   OH238434   3.415   0.350  12.597 -0.0973 -0.0703  0.3010
 5648TIP3    H138435   3.491   0.301  12.629  0.9745  0.9874 -0.5173
 5648TIP3    H238436   3.442   0.383  12.512 -0.4433  2.5404  1.1068
 5649TIP3   OH238437   5.038   3.884   0.034 -0.1352 -0.0617 -0.0238
 5649TIP3    H138438   5.094   3.955   0.066 -1.2200  0.6075  0.4816
 5649TIP3    H238439   5.044   3.817   0.102 -0.9573  0.5684  0.7059
 5650TIP3   OH238440   6.150   6.099   2.986  0.2202 -0.0041 -0.3256
 5650TIP3    H138441   6.154   6.178   2.932  2.0918 -0.4226 -0.8559
 5650TIP3    H238442   6.168   6.028   2.925 -1.2144 -0.8550  0.1964
 5651TIP3   OH238443   0.645   0.268  11.272  0.2895 -0.4760  0.0059
 5651TIP3    H138444   0.558   0.250  11.238 -0.4006 -0.4844  1.7164
 5651TIP3    H238445   0.648   0.363  11.282  0.3024 -0.5175  0.4033
 5652TIP3   OH238446   6.204   2.889   2.838 -0.1888  0.4361  0.1965
 5652TIP3    H138447   6.129   2.868   2.892 -0.5411  0.9074 -0.1069
 5652TIP3    H238448   6.173   2.955   2.776  0.7301  1.3882  0.7139
 5653TIP3   OH238449   6.700   2.988  17.078 -0.1745 -0.1181  0.0248
 5653TIP3    H138450   6.624   3.039  17.106 -0.0269  0.3696 -0.4657
 5653TIP3    H238451   6.665   2.900  17.061 -0.3026 -0.4145  1.5950
 5654TIP3   OH238452   3.815   3.503   2.134 -0.5144 -0.1023  0.2243
 5654TIP3    H138453   3.810   3.408   2.126 -1.3043  0.0628 -2.0203
 5654TIP3    H238454   3.816   3.519   2.228  1.3836 -2.3784  0.7053
 5655TIP3   OH238455   0.833   2.110   5.731 -0.4773 -0.4719 -0.4069
 5655TIP3    H138456   0.833   2.185   5.671 -0.8378  0.9165  1.2613
 5655TIP3    H238457   0.900   2.131   5.796 -0.9346 -1.3628  0.3858
 5656TIP3   OH238458   0.922   6.514   2.166  0.5792 -0.7783 -0.0662
 5656TIP3    H138459   0.956   6.449   2.105 -0.0646 -0.0322 -1.2665
 5656TIP3    H238460   0.975   6.592   2.150 -0.8009  0.0138 -1.0826
 5657TIP3   OH238461   3.617   1.046   1.840  0.0703  0.3855  0.0341
 5657TIP3    H138462   3.660   1.111   1.895 -0.0508 -0.9846  1.8587
 5657TIP3    H238463   3.684   1.019   1.777  0.5208  1.3368  0.0958
 5658TIP3   OH238464   5.080   2.224   2.731  0.3133  0.2327  0.4305
 5658TIP3    H138465   5.139   2.275   2.676  0.9508 -1.5256 -0.6015
 5658TIP3    H238466   5.138   2.172   2.787 -0.3205  1.9956  2.8808
 5659TIP3   OH238467   5.066   6.242   0.722 -0.1423  0.0115 -0.1985
 5659TIP3    H138468   5.070   6.165   0.665 -0.2513  0.2397 -0.5202
 5659TIP3    H238469   5.019   6.212   0.800 -0.8297 -0.0655 -0.6331
 5660TIP3   OH238470   0.555   3.004   0.077  0.0079  0.5726  0.2106
 5660TIP3    H138471   0.521   3.086   0.111  0.9666  0.8884  0.4352
 5660TIP3    H238472   0.615   3.029   0.007  1.8122  0.1974  1.5597
 5661TIP3   OH238473   6.042   4.069  13.889  0.4338  0.2831  0.1795
 5661TIP3    H138474   6.077   4.145  13.935  0.1793  0.5458 -0.0598
 5661TIP3    H238475   5.948   4.084  13.886  0.4183  0.1272 -0.1756
 5662TIP3   OH238476   3.174   4.723  17.059  0.5035 -0.3713 -0.1579
 5662TIP3    H138477   3.116   4.725  17.135  1.8522 -0.1066  0.9174
 5662TIP3    H238478   3.119   4.749  16.985 -0.6848  0.0475  0.8471
 5663TIP3   OH238479   2.069   6.720   5.491  0.1265  0.2087  0.4924
 5663TIP3    H138480   2.146   6.753   5.537  0.5722 -2.0013  1.4823
 5663TIP3    H238481   2.104   6.673   5.416 -0.2938 -0.1611  0.5254
 5664TIP3   OH238482   6.267   3.160  12.370 -0.0526 -0.5801  0.4754
 5664TIP3    H138483   6.262   3.092  12.437 -0.6954 -0.7986  0.2087
 5664TIP3    H238484   6.231   3.238  12.412 -0.7273 -0.7899  0.2973
 5665TIP3   OH238485   3.510   4.179   2.228 -0.2523  0.2914  0.4930
 5665TIP3    H138486   3.552   4.220   2.304 -0.1539  2.0030 -0.4426
 5665TIP3    H238487   3.476   4.252   2.177 -0.9737 -0.8702 -0.7465
 5666TIP3   OH238488   3.157   0.650  14.838 -0.0835  0.1248 -0.2339
 5666TIP3    H138489   3.166   0.737  14.800 -3.2524  0.3015 -0.8230
 5666TIP3    H238490   3.114   0.599  14.769 -0.2933 -1.3107  0.9164
 5667TIP3   OH238491   0.069   3.893   2.692  0.1421  0.5570 -0.0616
 5667TIP3    H138492   0.072   3.986   2.717  0.1054  0.8181 -0.9660
 5667TIP3    H238493  -0.018   3.864   2.719 -0.5703  1.3074 -1.4269
 5668TIP3   OH238494   3.771   3.540   0.427 -0.1707  0.0364  0.6032
 5668TIP3    H138495   3.828   3.572   0.497  0.9273  0.7101 -0.5480
 5668TIP3    H238496   3.810   3.575   0.347 -1.7206 -0.2209 -0.3097
 5669TIP3   OH238497   1.032   2.140  14.569 -0.0789 -0.0330 -0.6748
 5669TIP3    H138498   0.984   2.184  14.640 -0.1461 -0.3067 -0.5507
 5669TIP3    H238499   0.966   2.126  14.501 -0.2150 -0.5505 -0.4404
 5670TIP3   OH238500   3.824   4.832   1.684 -0.2200  0.1055  0.4322
 5670TIP3    H138501   3.777   4.851   1.603 -1.3809 -1.3792  0.7105
 5670TIP3    H238502   3.911   4.871   1.671 -0.7681  0.9209 -1.0303
 5671TIP3   OH238503   0.041   5.325  14.940  0.3189 -0.5188  0.0528
 5671TIP3    H138504   0.041   5.349  14.847  2.0969 -0.3761  0.0570
 5671TIP3    H238505   0.065   5.233  14.941 -1.1695 -0.9254  0.3188
 5672TIP3   OH238506   6.717   2.165  16.426 -0.2568 -0.2112  0.0096
 5672TIP3    H138507   6.673   2.189  16.508  0.5668  0.9216  0.1287
 5672TIP3    H238508   6.648   2.123  16.374 -0.5604 -1.8923  1.6550
 5673TIP3   OH238509   0.737   4.410  10.571  0.3670  0.5719  0.4742
 5673TIP3    H138510   0.724   4.455  10.654  0.3154  1.5826 -0.0696
 5673TIP3    H238511   0.772   4.477  10.512 -0.7537  0.1963 -0.6673
 5674TIP3   OH238512   2.339   3.054  14.098  0.1173 -0.7219 -0.3792
 5674TIP3    H138513   2.298   3.001  14.030  0.2331 -0.2390 -0.8343
 5674TIP3    H238514   2.332   3.144  14.066  0.9825 -0.5733 -0.1783
 5675TIP3   OH238515   0.248   5.375  17.084  0.4061 -0.0113 -0.1062
 5675TIP3    H138516   0.295   5.444  17.130  1.4028 -0.7111 -0.0435
 5675TIP3    H238517   0.229   5.411  16.998  1.1654  0.2477 -0.1706
 5676TIP3   OH238518   5.652   3.781  14.031 -0.3926  0.2196  0.1227
 5676TIP3    H138519   5.617   3.752  14.115  2.1213 -0.6983  0.9339
 5676TIP3    H238520   5.617   3.870  14.021 -1.6994 -0.0803  1.5220
 5677TIP3   OH238521   6.800   6.787   2.468 -0.0975 -0.4701  0.0897
 5677TIP3    H138522   6.732   6.728   2.436  0.4043 -2.1788  1.9585
 5677TIP3    H238523   6.878   6.733   2.475  0.5824  0.5871  1.1734
 5678TIP3   OH238524   5.049   3.862   4.498  0.1700  0.2327  0.6220
 5678TIP3    H138525   4.989   3.802   4.541  1.7372 -0.1149  2.4356
 5678TIP3    H238526   4.996   3.904   4.430 -1.7940 -0.8710  1.3925
 5679TIP3   OH238527   2.453   2.840   3.534 -0.2415  0.3409 -0.0525
 5679TIP3    H138528   2.358   2.847   3.532 -0.3049 -0.5227 -0.5796
 5679TIP3    H238529   2.471   2.750   3.507  0.5512 -0.8098  3.7055
 5680TIP3   OH238530   1.217   5.955   0.626  0.2382 -0.0593 -0.0390
 5680TIP3    H138531   1.196   5.870   0.665  1.2583 -0.1826  0.2744
 5680TIP3    H238532   1.312   5.963   0.635  0.2574  0.7616 -0.7982
 5681TIP3   OH238533   3.401   2.111   1.103  0.7513 -0.3864  0.6922
 5681TIP3    H138534   3.315   2.146   1.123 -0.0655 -1.6990 -0.3185
 5681TIP3    H238535   3.460   2.186   1.106 -1.0128  1.2835 -2.1745
 5682TIP3   OH238536   5.578   3.933   1.751 -0.2912  0.0870 -0.8111
 5682TIP3    H138537   5.636   3.936   1.675  1.0265 -3.1832 -0.0995
 5682TIP3    H238538   5.556   3.841   1.761 -1.8118  0.6326  1.7970
 5683TIP3   OH238539   1.524   0.097  11.381  0.1860 -0.1255 -0.0268
 5683TIP3    H138540   1.608   0.052  11.378  0.7198  0.8790 -2.1472
 5683TIP3    H238541   1.473   0.049  11.446  1.8750 -1.6639  0.2396
 5684TIP3   OH238542   2.643   5.266   1.950  0.1435 -0.1588 -0.5862
 5684TIP3    H138543   2.651   5.314   1.867  0.9380  0.7227 -0.0155
 5684TIP3    H238544   2.718   5.295   2.002 -0.0133 -1.1510  0.2266
 5685TIP3   OH238545   4.758   3.889   0.087  0.1304  0.1164  0.0242
 5685TIP3    H138546   4.729   3.950   0.020  0.2441  1.4593  1.1371
 5685TIP3    H238547   4.853   3.892   0.083  0.1797 -1.8252 -1.4734
 5686TIP3   OH238548   2.094   1.715   0.889 -0.1870 -0.2417 -0.2688
 5686TIP3    H138549   2.140   1.633   0.903  0.8970  0.3280 -0.4069
 5686TIP3    H238550   2.140   1.779   0.943  0.6742  0.8293 -2.1502
 5687TIP3   OH238551   3.379   6.087   5.889 -0.2479 -0.3793 -0.2194
 5687TIP3    H138552   3.371   6.177   5.858  0.6764 -0.6851 -1.4285
 5687TIP3    H238553   3.289   6.056   5.898 -0.6268  1.0061  1.3691
 5688TIP3   OH238554   5.046   0.201   1.657  0.3879  0.1546  0.4691
 5688TIP3    H138555   5.090   0.285   1.643 -1.8685  2.1248  3.5790
 5688TIP3    H238556   5.115   0.135   1.648  1.9106  2.0030 -3.9884
 5689TIP3   OH238557   5.200   1.287  15.353 -0.4170 -0.4439  0.0034
 5689TIP3    H138558   5.219   1.276  15.446 -1.3447 -2.2353  0.0339
 5689TIP3    H238559   5.264   1.231  15.309 -1.3903 -1.3725 -0.2706
 5690TIP3   OH238560   3.424   2.198   0.144 -0.5976 -0.1507  0.2225
 5690TIP3    H138561   3.350   2.176   0.088 -1.2224 -0.1585  1.0431
 5690TIP3    H238562   3.468   2.115   0.160 -0.4909 -0.1672 -0.1529
 5691TIP3   OH238563   3.640   6.769   1.554 -0.5728 -0.3853 -0.6554
 5691TIP3    H138564   3.735   6.762   1.555 -0.6488 -1.7694  0.2184
 5691TIP3    H238565   3.617   6.805   1.639 -0.8433 -0.3991 -0.7202
 5692TIP3   OH238566   3.563   1.479  13.313 -0.6784 -0.2867 -0.1917
 5692TIP3    H138567   3.634   1.532  13.276  1.8560 -3.5582 -0.5671
 5692TIP3    H238568   3.515   1.446  13.237 -3.1600  2.3698  0.0767
 5693TIP3   OH238569   6.302   5.057  13.527 -0.2827 -0.1470  0.0397
 5693TIP3    H138570   6.256   5.044  13.444  0.0424  0.9376 -0.3376
 5693TIP3    H238571   6.347   4.974  13.544 -0.4768 -0.4301 -0.7919
 5694TIP3   OH238572   0.551   6.606   1.639 -0.2373 -0.4052  0.1845
 5694TIP3    H138573   0.471   6.641   1.600 -0.5592 -0.2144  0.9870
 5694TIP3    H238574   0.612   6.598   1.566 -1.5460 -2.2538 -0.7826
 5695TIP3   OH238575   4.923   3.313   5.376 -0.0406 -0.3964  0.1521
 5695TIP3    H138576   5.017   3.319   5.357  0.1078 -0.9881  0.6826
 5695TIP3    H238577   4.884   3.278   5.295  0.1005  0.4577 -0.2950
 5696TIP3   OH238578   3.603   6.176  10.787  0.1579 -0.1804  0.1569
 5696TIP3    H138579   3.683   6.138  10.823  1.1082  2.2998  0.8468
 5696TIP3    H238580   3.608   6.158  10.693  0.7440 -1.3340  0.3837
 5697TIP3   OH238581   5.389   5.183  11.705  0.0573  0.3944  0.2309
 5697TIP3    H138582   5.348   5.115  11.759  0.8407 -0.2323  0.0485
 5697TIP3    H238583   5.342   5.263  11.729  0.4323  0.1632  1.9188
 5698TIP3   OH238584   3.500   6.070   2.256 -0.0762 -0.0716 -0.3777
 5698TIP3    H138585   3.455   5.987   2.236 -1.3196  0.4689  0.0871
 5698TIP3    H238586   3.494   6.078   2.351 -0.4687  0.8230 -0.4694
 5699TIP3   OH238587   6.585   2.019  12.347 -0.0795  0.1578  0.1798
 5699TIP3    H138588   6.630   1.936  12.361  1.6058  1.0928  0.6837
 5699TIP3    H238589   6.598   2.038  12.253 -0.7386 -0.2812 -0.0055
 5700TIP3   OH238590   0.229   0.946  13.715 -0.2745  0.5487 -0.4587
 5700TIP3    H138591   0.263   0.976  13.799  2.2901  0.5555 -1.4205
 5700TIP3    H238592   0.209   0.853  13.730  1.0946  0.2928 -0.0655
 5701TIP3   OH238593   1.747   6.374  12.844  0.3395  0.4716  1.0035
 5701TIP3    H138594   1.737   6.455  12.894  2.5807  1.4902 -0.0580
 5701TIP3    H238595   1.833   6.381  12.804 -0.7279 -0.9175 -1.8634
 5702TIP3   OH238596   3.052   5.602  11.697  0.0416  0.2537  0.0255
 5702TIP3    H138597   3.082   5.511  11.694 -0.3449  0.0734  1.1445
 5702TIP3    H238598   3.121   5.649  11.744  0.3796  0.6060 -0.8106
 5703TIP3   OH238599   5.402   6.339  11.713 -0.3746  0.3441  0.1512
 5703TIP3    H138600   5.326   6.346  11.655  0.4199 -3.3757 -1.6465
 5703TIP3    H238601   5.377   6.272  11.776  1.7371 -1.9968 -1.3288
 5704TIP3   OH238602   0.749   5.124   5.420  0.0966  0.2854 -0.0956
 5704TIP3    H138603   0.814   5.191   5.439  0.0147 -0.4036  3.1254
 5704TIP3    H238604   0.800   5.051   5.384  0.7978  0.5314  0.3842
 5705TIP3   OH238605   4.724   1.874  16.461 -0.3508 -0.2097 -0.0338
 5705TIP3    H138606   4.803   1.872  16.515  0.2069  1.4854 -0.7022
 5705TIP3    H238607   4.748   1.828  16.381 -0.6762 -1.3516  0.5042
 5706TIP3   OH238608   5.012   3.710  16.604  0.0859  0.4695  0.0465
 5706TIP3    H138609   5.009   3.640  16.539 -0.8447  0.6177 -0.0789
 5706TIP3    H238610   5.001   3.791  16.553 -1.7336  0.5225  0.4869
 5707TIP3   OH238611   2.031   3.659   4.085 -0.8016 -0.0239 -0.4433
 5707TIP3    H138612   2.085   3.733   4.058 -0.8105 -0.0853 -0.6282
 5707TIP3    H238613   1.985   3.690   4.163  0.0982 -0.2336  0.1939
 5708TIP3   OH238614   4.920   0.143  13.942  0.0683  0.1279 -0.2987
 5708TIP3    H138615   4.904   0.049  13.948  0.7994 -0.0590 -1.0709
 5708TIP3    H238616   4.843   0.177  13.896 -0.0900 -0.1200 -0.2214
 5709TIP3   OH238617   6.636   2.655   2.206 -0.4882 -0.0153 -0.1392
 5709TIP3    H138618   6.614   2.631   2.116 -1.2427 -2.2330  0.5663
 5709TIP3    H238619   6.552   2.674   2.248 -0.3911 -1.1824  0.6426
 5710TIP3   OH238620   5.165   4.930  13.878  0.3106  0.2887 -0.5909
 5710TIP3    H138621   5.085   4.888  13.847  1.2865 -1.3706 -0.9335
 5710TIP3    H238622   5.148   5.024  13.867 -0.6235 -0.0998 -3.0686
 5711TIP3   OH238623   4.979   1.209   5.173  0.0722  0.0913 -0.2010
 5711TIP3    H138624   4.938   1.127   5.144 -1.3920  0.4493  0.7373
 5711TIP3    H238625   4.942   1.224   5.260  0.6571  1.5323 -0.1845
 5712TIP3   OH238626   3.110   2.677  15.400  0.1418 -0.3851  0.4222
 5712TIP3    H138627   3.035   2.649  15.453 -0.1773  0.2470  0.3134
 5712TIP3    H238628   3.117   2.610  15.332  0.5156 -1.1705  1.2172
 5713TIP3   OH238629   1.702   5.637  17.017 -0.3167 -0.1585 -0.5480
 5713TIP3    H138630   1.703   5.542  17.030  0.6965 -0.1235 -0.2524
 5713TIP3    H238631   1.631   5.668  17.072 -0.3397 -0.7016 -0.2655
 5714TIP3   OH238632   4.388   1.084   0.545 -0.0052 -0.4308 -0.2681
 5714TIP3    H138633   4.380   1.178   0.528  0.8468 -0.2907  0.0462
 5714TIP3    H238634   4.460   1.056   0.490  1.1994 -0.4490  1.2363
 5715TIP3   OH238635   1.743   3.808  14.737  0.5227  0.0239 -0.2951
 5715TIP3    H138636   1.790   3.852  14.667  1.0135  0.3726  0.2532
 5715TIP3    H238637   1.661   3.856  14.745  0.7154  0.3430 -0.2383
 5716TIP3   OH238638   2.381   6.218  16.101  0.6529  0.5343  0.1790
 5716TIP3    H138639   2.294   6.178  16.104  1.0208 -0.4284 -1.0964
 5716TIP3    H238640   2.438   6.154  16.144  0.6339  1.5191  1.7355
 5717TIP3   OH238641   6.207   2.127   2.987 -0.0098 -0.2589  0.5779
 5717TIP3    H138642   6.250   2.042   2.975  1.4630  0.1653  2.2557
 5717TIP3    H238643   6.136   2.109   3.049 -0.5663 -0.4882 -0.1162
 5718TIP3   OH238644   2.240   1.844   5.887 -0.1218 -0.3324 -0.5879
 5718TIP3    H138645   2.275   1.921   5.933 -0.6466 -0.4421  0.0186
 5718TIP3    H238646   2.146   1.847   5.904 -0.1391 -1.1530 -0.4801
 5719TIP3   OH238647   4.127   0.766  13.839  0.0518 -0.2851 -0.2674
 5719TIP3    H138648   4.177   0.734  13.914 -0.2126 -0.3832 -0.1332
 5719TIP3    H238649   4.063   0.827  13.877  1.2592  1.2852 -0.6228
 5720TIP3   OH238650   4.909   1.246   2.726 -0.0623  0.6395 -0.0249
 5720TIP3    H138651   4.927   1.155   2.702 -0.0875  0.6260  0.0078
 5720TIP3    H238652   4.815   1.257   2.715 -0.3871  0.0992  1.8409
 5721TIP3   OH238653   1.686   5.680  12.993  0.2975 -0.7491  0.4971
 5721TIP3    H138654   1.736   5.678  12.911  1.6382 -0.2307  1.2729
 5721TIP3    H238655   1.742   5.727  13.054 -1.5296  0.6331  1.1796
 5722TIP3   OH238656   4.007   5.676  15.165 -0.1457  0.1039 -0.2577
 5722TIP3    H138657   3.972   5.763  15.182 -0.8808  0.0899 -1.5457
 5722TIP3    H238658   3.930   5.619  15.162  0.3443 -0.6332  0.7767
 5723TIP3   OH238659   6.201   2.161  14.671  0.2069  0.1964 -0.8062
 5723TIP3    H138660   6.211   2.185  14.763  1.3538 -1.1703 -0.5357
 5723TIP3    H238661   6.106   2.159  14.657 -0.1710 -2.4442  1.2181
 5724TIP3   OH238662   4.060   0.254   3.678 -0.3641 -0.2819  0.5588
 5724TIP3    H138663   3.988   0.209   3.635 -1.0656  1.3610 -0.0608
 5724TIP3    H238664   4.026   0.277   3.765 -0.5315  0.3133  0.3412
 5725TIP3   OH238665   2.660   4.785   2.123 -0.3362  0.8372  0.4687
 5725TIP3    H138666   2.565   4.784   2.132 -0.3713 -0.1810  0.0842
 5725TIP3    H238667   2.690   4.709   2.174  0.4869  2.4871  2.6155
 5726TIP3   OH238668   5.122   5.475   0.311  0.1730 -0.3742 -0.0049
 5726TIP3    H138669   5.069   5.486   0.232  0.7978 -0.0525 -0.3812
 5726TIP3    H238670   5.120   5.560   0.354  1.8940  0.1967 -0.9771
 5727TIP3   OH238671   3.702   3.536  14.970  0.1548 -0.3701  0.4137
 5727TIP3    H138672   3.664   3.486  14.897  0.2322 -0.4384  0.4201
 5727TIP3    H238673   3.705   3.474  15.042  2.2780 -1.0315 -0.1738
 5728TIP3   OH238674   6.425   4.895  16.509  0.1802 -0.4071 -0.6339
 5728TIP3    H138675   6.462   4.954  16.574 -1.9097  0.9090 -0.5558
 5728TIP3    H238676   6.348   4.857  16.552  1.1564 -2.8362 -0.8760
 5729TIP3   OH238677   2.532   3.841  13.433  0.0123 -0.8062  0.0653
 5729TIP3    H138678   2.514   3.792  13.353 -2.9084  1.1834 -0.6751
 5729TIP3    H238679   2.472   3.803  13.498 -0.2598 -0.1016  0.2432
 5730TIP3   OH238680   1.678   5.858   0.842  0.2230 -0.3033  0.5536
 5730TIP3    H138681   1.621   5.935   0.841 -1.3997 -1.4347 -0.5488
 5730TIP3    H238682   1.622   5.787   0.872  1.2056 -1.3838 -0.0792
 5731TIP3   OH238683   1.089   1.494  13.023 -0.5916  0.2038 -0.0247
 5731TIP3    H138684   1.019   1.512  12.961  0.1821  0.3687 -0.8612
 5731TIP3    H238685   1.147   1.433  12.977  0.3951  0.9323  0.2370
 5732TIP3   OH238686   1.408   2.979   3.944 -0.3867 -0.4038 -0.1848
 5732TIP3    H138687   1.451   2.895   3.961  0.7187  0.4871  1.8196
 5732TIP3    H238688   1.315   2.961   3.954 -0.1640 -1.4067  0.2087
 5733TIP3   OH238689   6.686   0.243   6.298 -0.4563 -0.3795  0.3211
 5733TIP3    H138690   6.746   0.272   6.366  1.5054 -0.2887 -1.3617
 5733TIP3    H238691   6.627   0.317   6.285 -0.0915  0.0508  1.0630
 5734TIP3   OH238692   2.074   1.573   2.030  0.5002  0.1357  0.9248
 5734TIP3    H138693   2.124   1.625   2.092 -0.4798 -0.8199  2.5789
 5734TIP3    H238694   2.118   1.488   2.029  0.1415 -0.0496  0.7828
 5735TIP3   OH238695   1.341   5.794  12.641 -0.1265  0.1003 -0.1249
 5735TIP3    H138696   1.374   5.736  12.709  0.1010  0.3296 -0.0388
 5735TIP3    H238697   1.264   5.749  12.606  0.5440 -0.6668 -0.6500
 5736TIP3   OH238698   1.064   1.633  16.397 -0.3609  0.2860 -0.4963
 5736TIP3    H138699   0.973   1.614  16.373 -0.6573 -0.8522  1.2835
 5736TIP3    H238700   1.063   1.726  16.419 -1.3147  0.1204  0.2633
 5737TIP3   OH238701   2.186   1.763  11.170 -0.2300  0.7455 -0.0868
 5737TIP3    H138702   2.134   1.767  11.089  1.6341  0.5997 -1.3644
 5737TIP3    H238703   2.173   1.848  11.211 -0.3497  1.2578 -1.1364
 5738TIP3   OH238704   1.563   0.489  14.249 -0.0942  0.0366  0.7130
 5738TIP3    H138705   1.605   0.572  14.270  1.0897 -0.4323  0.2438
 5738TIP3    H238706   1.478   0.514  14.212  0.3412  1.0486  0.3634
 5739TIP3   OH238707   0.713   6.729  14.884  0.1278 -0.6640 -0.3255
 5739TIP3    H138708   0.734   6.642  14.850  0.3247 -0.0631 -1.8417
 5739TIP3    H238709   0.782   6.785  14.849 -0.0931  0.1448  0.4944
 5740TIP3   OH238710   4.610   6.815   4.139  0.3146 -0.2152 -0.7220
 5740TIP3    H138711   4.570   6.902   4.129 -3.2683 -1.3213  1.6984
 5740TIP3    H238712   4.557   6.758   4.083  1.1342 -1.2059 -0.5173
 5741TIP3   OH238713   1.949   5.260  12.932 -0.1229  0.5583  0.0623
 5741TIP3    H138714   1.885   5.290  12.996 -0.0105 -2.3611  1.7035
 5741TIP3    H238715   1.900   5.198  12.877  0.4791  0.9140 -0.8908
 5742TIP3   OH238716   1.324   3.256   1.095  0.2526 -0.3106  0.0777
 5742TIP3    H138717   1.260   3.260   1.024 -1.3889  0.2393  1.5457
 5742TIP3    H238718   1.402   3.299   1.059 -0.7768  0.5957 -1.1560
 5743TIP3   OH238719   3.507   0.459  10.520  0.4916  0.0934 -0.4466
 5743TIP3    H138720   3.518   0.506  10.437  0.6214 -1.3761 -1.2951
 5743TIP3    H238721   3.534   0.370  10.501 -0.3699 -0.5051  0.9422
 5744TIP3   OH238722   1.148   4.198  14.061 -0.0110  0.4991 -0.4666
 5744TIP3    H138723   1.132   4.210  14.154 -0.9762  4.1578 -0.9370
 5744TIP3    H238724   1.233   4.238  14.046  0.2379 -0.2592 -1.1466
 5745TIP3   OH238725   3.833   2.808   4.347  0.1112 -0.1950 -0.2731
 5745TIP3    H138726   3.785   2.750   4.406 -1.4466  2.5633  1.3841
 5745TIP3    H238727   3.826   2.767   4.261 -1.6429 -1.9923  0.6634
 5746TIP3   OH238728   4.733   4.113  14.814 -0.1135  1.1084 -0.0198
 5746TIP3    H138729   4.650   4.152  14.786  0.0270  1.2493 -0.2462
 5746TIP3    H238730   4.779   4.184  14.860 -0.4023  0.8370  0.6951
 5747TIP3   OH238731   0.765   4.000   3.993 -0.0686  0.1863 -0.3214
 5747TIP3    H138732   0.824   3.943   4.043 -0.5376  0.4352  0.5477
 5747TIP3    H238733   0.722   4.053   4.060 -1.0596  0.2142 -0.9677
 5748TIP3   OH238734   0.811   3.320  12.452  0.3666 -0.4214 -0.2506
 5748TIP3    H138735   0.862   3.386  12.405 -1.5306  0.5043 -1.1209
 5748TIP3    H238736   0.876   3.257  12.484  2.0496  0.8689 -0.9993
 5749TIP3   OH238737   0.305   3.353   3.228  0.4142 -0.1757 -0.5113
 5749TIP3    H138738   0.305   3.312   3.142  0.4792  0.1306 -0.6572
 5749TIP3    H238739   0.397   3.367   3.248  0.3875 -0.0223 -0.4979
 5750TIP3   OH238740   0.396   0.457  11.800  0.3169  0.1740  0.3707
 5750TIP3    H138741   0.338   0.533  11.792 -0.5369 -0.5153 -0.1040
 5750TIP3    H238742   0.405   0.424  11.711  0.0044 -0.7723  0.6778
 5751TIP3   OH238743   4.158   4.037   4.357  0.2620 -0.0649  0.1027
 5751TIP3    H138744   4.157   4.086   4.439  1.0805 -0.3788  0.3053
 5751TIP3    H238745   4.082   4.071   4.308 -0.9489 -0.7221  1.4689
 5752TIP3   OH238746   0.220   2.323  16.870  0.0816 -0.4654  0.4274
 5752TIP3    H138747   0.138   2.372  16.871  0.7515  0.8703 -2.0481
 5752TIP3    H238748   0.199   2.242  16.824  0.2055  0.0613 -0.5834
 5753TIP3   OH238749   5.659   6.690  12.295  0.8659 -0.0236 -0.4716
 5753TIP3    H138750   5.657   6.596  12.311 -0.9255  0.1604  0.6100
 5753TIP3    H238751   5.690   6.728  12.377 -0.0006  0.4065 -0.3298
 5754TIP3   OH238752   4.827   6.519  16.310  0.4169  0.0962  0.2566
 5754TIP3    H138753   4.764   6.554  16.372 -1.6985 -0.7266 -1.3268
 5754TIP3    H238754   4.853   6.595  16.257  1.0173  0.4916  1.0943
 5755TIP3   OH238755   0.139   5.060   5.365  0.5159  0.1783 -0.4881
 5755TIP3    H138756   0.120   4.966   5.370  0.8040 -0.1258 -3.3730
 5755TIP3    H238757   0.226   5.065   5.325 -0.2318  1.6295 -2.0707
 5756TIP3   OH238758   3.777   2.812   1.883 -1.3286  0.1193 -0.2634
 5756TIP3    H138759   3.844   2.746   1.869 -1.6818 -0.7175  1.6682
 5756TIP3    H238760   3.821   2.895   1.862  0.2839 -0.4100  0.8065
 5757TIP3   OH238761   2.254   6.599  14.334  0.2136  0.2821  0.2229
 5757TIP3    H138762   2.174   6.556  14.302 -0.0546  1.5257 -0.8751
 5757TIP3    H238763   2.244   6.601  14.429 -0.7194 -0.2444  0.1475
 5758TIP3   OH238764   0.396   1.396  15.507  0.2137  0.4477 -0.0733
 5758TIP3    H138765   0.308   1.358  15.497 -0.2657  0.7628  2.4654
 5758TIP3    H238766   0.381   1.487  15.531  1.3045  1.0117 -1.3866
 5759TIP3   OH238767   2.170   1.577   3.242  0.2855  0.2013  0.1101
 5759TIP3    H138768   2.101   1.586   3.307  0.5966 -0.9635  0.6232
 5759TIP3    H238769   2.248   1.611   3.286 -0.2947  3.7426 -1.2489
 5760TIP3   OH238770   0.878   1.287  13.507  0.1529  0.1298 -0.3066
 5760TIP3    H138771   0.828   1.315  13.430  1.6301  1.1079 -0.9856
 5760TIP3    H238772   0.911   1.369  13.544  1.4046 -0.4719 -0.0416
 5761TIP3   OH238773   0.098   1.629   0.848 -0.6235 -0.3938 -0.4877
 5761TIP3    H138774   0.018   1.611   0.800 -1.0117 -0.7160  0.2700
 5761TIP3    H238775   0.081   1.712   0.894 -0.8007 -0.8415  0.2619
 5762TIP3   OH238776   3.126   3.603  14.379  0.6654 -0.3714  0.1387
 5762TIP3    H138777   3.109   3.606  14.285  0.6295  1.1199  0.1703
 5762TIP3    H238778   3.045   3.635  14.420  0.2916 -1.9955  0.7564
 5763TIP3   OH238779   1.899   5.851   2.170  0.5648 -0.7501 -0.6129
 5763TIP3    H138780   1.953   5.781   2.135  2.3423 -1.0509  2.3869
 5763TIP3    H238781   1.961   5.916   2.203 -0.9436  0.2558  0.4230
 5764TIP3   OH238782   5.919   5.214  13.894 -0.1296  0.5418  0.2989
 5764TIP3    H138783   5.973   5.208  13.972  4.2295  2.4119 -2.1732
 5764TIP3    H238784   5.970   5.169  13.826 -2.0907  1.7034 -2.1081
 5765TIP3   OH238785   3.137   4.093   4.738 -0.9616 -0.4334 -0.3501
 5765TIP3    H138786   3.167   4.018   4.789 -0.5397  0.6740  1.0812
 5765TIP3    H238787   3.213   4.120   4.687 -0.5399  0.1849  0.5888
 5766TIP3   OH238788   3.080   4.345   3.234  0.0545  0.1500 -0.5348
 5766TIP3    H138789   3.110   4.263   3.274  0.7311  0.5757 -0.1461
 5766TIP3    H238790   2.997   4.323   3.193 -1.2437 -0.0681  2.0069
 5767TIP3   OH238791   0.023   2.461  10.414 -0.5107  0.2190 -0.2590
 5767TIP3    H138792  -0.043   2.464  10.483 -0.3206  2.9501 -0.0886
 5767TIP3    H238793   0.008   2.540  10.362  1.2548 -0.2105 -1.5433
 5768TIP3   OH238794   2.970   4.296   1.645 -0.6993  0.0533  0.9852
 5768TIP3    H138795   2.996   4.324   1.557  1.3004 -3.8482  0.1131
 5768TIP3    H238796   3.037   4.233   1.671 -3.1772 -1.6918  3.8031
 5769TIP3   OH238797   0.661   3.607  11.065 -0.1530 -0.1959 -0.5806
 5769TIP3    H138798   0.753   3.579  11.058  0.1683  0.5471  0.5986
 5769TIP3    H238799   0.616   3.530  11.100  0.0308 -0.5260 -1.0515
 5770TIP3   OH238800   6.591   1.737   0.939  0.4299  0.2118 -0.1046
 5770TIP3    H138801   6.533   1.762   0.867 -0.4215 -0.0336  0.4848
 5770TIP3    H238802   6.561   1.649   0.964  2.3417 -0.8077 -1.0996
 5771TIP3   OH238803   4.619   1.346   1.663  0.4702  0.2496  0.2018
 5771TIP3    H138804   4.660   1.342   1.577 -1.2060 -0.0412 -0.6330
 5771TIP3    H238805   4.658   1.274   1.712  1.0260  0.0527 -0.5156
 5772TIP3   OH238806   4.421   1.713  16.173 -0.3943 -0.4289  0.0197
 5772TIP3    H138807   4.494   1.719  16.111  0.1832  0.3417  0.7394
 5772TIP3    H238808   4.377   1.631  16.151  0.5768 -0.8137 -0.5476
 5773TIP3   OH238809   3.402   1.101  10.212  0.2756 -0.1240 -0.1001
 5773TIP3    H138810   3.410   1.181  10.265 -0.6275 -0.2300  0.2233
 5773TIP3    H238811   3.308   1.085  10.208  0.2899  0.1402 -2.1742
 5774TIP3   OH238812   1.328   1.296   0.409  0.4469 -0.2390 -0.0216
 5774TIP3    H138813   1.259   1.345   0.452 -0.9996 -1.2645 -1.0738
 5774TIP3    H238814   1.403   1.301   0.469 -0.0171  2.1780  0.4382
 5775TIP3   OH238815   0.337   1.598   5.908 -0.1351  0.4962 -0.6074
 5775TIP3    H138816   0.360   1.586   6.000 -1.9791 -0.5022 -0.2192
 5775TIP3    H238817   0.369   1.519   5.864 -0.0737  0.5467 -0.6541
 5776TIP3   OH238818   0.653   0.252  13.609  0.1919  0.4765 -0.0651
 5776TIP3    H138819   0.724   0.247  13.673  0.7491 -1.0584 -0.7638
 5776TIP3    H238820   0.609   0.167  13.616 -0.1304  0.5315 -1.2706
 5777TIP3   OH238821   6.601   1.911   5.990  0.2387 -0.0612 -0.6340
 5777TIP3    H138822   6.550   1.910   6.071  0.9562 -0.2981 -0.1802
 5777TIP3    H238823   6.538   1.938   5.923  0.1683  2.4151  0.3415
 5778TIP3   OH238824   1.084   3.878  13.389 -0.4212 -0.0857  0.6772
 5778TIP3    H138825   1.051   3.964  13.415  0.3836  0.7478 -0.9237
 5778TIP3    H238826   1.172   3.895  13.356 -1.3191 -1.0128 -2.5007
 5779TIP3   OH238827   6.146   0.542   0.807 -0.5854  0.1482  0.1916
 5779TIP3    H138828   6.056   0.516   0.792 -1.2751  1.6187  1.4227
 5779TIP3    H238829   6.155   0.543   0.903  1.1579 -1.2520  0.0913
 5780TIP3   OH238830   6.747   0.051  13.146 -0.3412  0.0027 -0.6402
 5780TIP3    H138831   6.697  -0.031  13.142  1.1192 -1.0768  1.5553
 5780TIP3    H238832   6.825   0.029  13.197  0.4678  2.5991 -0.6466
 5781TIP3   OH238833   6.052   2.969   0.952 -0.7650  0.1019  0.0021
 5781TIP3    H138834   6.057   3.019   0.870  1.2052  0.2884  0.1863
 5781TIP3    H238835   6.072   3.034   1.019 -1.4331 -0.2622  0.5591
 5782TIP3   OH238836   1.881   1.589   3.507  0.2350  0.0002 -0.8691
 5782TIP3    H138837   1.804   1.619   3.459 -1.2623 -2.4260 -0.1815
 5782TIP3    H238838   1.850   1.515   3.558  2.1641  1.2640  2.4452
 5783TIP3   OH238839   6.019   3.009   5.863  0.5505 -0.5519 -0.2439
 5783TIP3    H138840   6.055   3.082   5.913  0.6258 -1.0052  0.3748
 5783TIP3    H238841   6.092   2.976   5.812  0.3553  0.2320 -1.0610
 5784TIP3   OH238842   6.710   0.995  12.190 -0.2783 -0.5185 -0.1406
 5784TIP3    H138843   6.681   0.947  12.112 -2.5413 -0.2853  0.4802
 5784TIP3    H238844   6.685   1.085  12.172  0.0038 -0.3110  0.5024
 5785TIP3   OH238845   2.579   2.479   2.894 -0.0151  0.2681 -0.3170
 5785TIP3    H138846   2.669   2.508   2.877  0.7537 -2.2258 -1.0606
 5785TIP3    H238847   2.589   2.388   2.922 -2.2942  0.1634  0.3624
 5786TIP3   OH238848   0.841   1.164   3.651 -0.2013  0.1300 -0.1166
 5786TIP3    H138849   0.841   1.216   3.571 -0.2388 -0.6662 -0.6436
 5786TIP3    H238850   0.921   1.112   3.646 -0.5316 -0.4019  0.0463
 5787TIP3   OH238851   0.780   1.788  13.977 -0.7140  0.1157 -0.4184
 5787TIP3    H138852   0.703   1.797  13.921 -2.7137 -2.7660  1.5885
 5787TIP3    H238853   0.837   1.726  13.931  0.5714  2.2697 -1.9161
 5788TIP3   OH238854   1.933   2.210   1.021  0.3351  0.2600  0.5474
 5788TIP3    H138855   1.983   2.179   0.946 -0.1516 -0.6531  0.5860
 5788TIP3    H238856   1.976   2.170   1.097  0.2049  0.3623  0.6758
 5789TIP3   OH238857   5.969   1.492  11.655 -0.8965 -0.1344 -0.5320
 5789TIP3    H138858   5.900   1.553  11.627 -0.3239  0.6528 -0.2598
 5789TIP3    H238859   6.050   1.532  11.624 -0.5623 -1.1341 -0.9977
 5790TIP3   OH238860   2.786   0.776   3.515 -0.3790 -0.2789 -0.0744
 5790TIP3    H138861   2.715   0.817   3.565  1.2412  2.1174  0.4529
 5790TIP3    H238862   2.752   0.771   3.425 -1.0132  1.4895  0.0271
 5791TIP3   OH238863   5.281   2.976  13.309 -0.1615 -0.2285  0.6637
 5791TIP3    H138864   5.227   2.904  13.277 -0.7366 -0.0339  1.1686
 5791TIP3    H238865   5.286   3.038  13.236  1.4941 -1.3907 -0.2689
 5792TIP3   OH238866   5.705   2.050  12.695 -0.2118  0.2274 -0.0291
 5792TIP3    H138867   5.678   2.021  12.608  1.6327  0.0148 -0.5535
 5792TIP3    H238868   5.704   1.971  12.748  2.9478 -0.6093 -0.9934
 5793TIP3   OH238869   6.110   4.094   3.501 -0.2573 -0.2542  0.2426
 5793TIP3    H138870   6.104   4.009   3.545 -1.3178  0.5167  1.6706
 5793TIP3    H238871   6.056   4.083   3.423 -0.6389 -0.8135  0.5728
 5794TIP3   OH238872   2.236   4.602  15.826  0.4285 -0.1295  0.3235
 5794TIP3    H138873   2.261   4.694  15.839  2.1776 -0.8722  3.2461
 5794TIP3    H238874   2.252   4.561  15.911  1.8500 -3.5987 -1.3997
 5795TIP3   OH238875   5.450   2.908   1.953  0.1456  0.2956 -0.5705
 5795TIP3    H138876   5.418   2.918   2.043 -0.5662  3.3355 -1.0500
 5795TIP3    H238877   5.370   2.903   1.900  0.4762  1.9172 -1.2748
 5796TIP3   OH238878   4.731   4.153  15.759 -0.6219  0.2232  0.5764
 5796TIP3    H138879   4.686   4.124  15.839  1.2025  0.3316  1.6958
 5796TIP3    H238880   4.813   4.191  15.790  0.6631 -0.7333 -1.4347
 5797TIP3   OH238881   4.144   1.076   2.825  0.2718 -0.7530 -0.3006
 5797TIP3    H138882   4.167   1.024   2.902 -1.0574  0.7275  1.1781
 5797TIP3    H238883   4.227   1.113   2.796  0.4987  2.0723  3.0984
 5798TIP3   OH238884   5.120   4.260   1.909 -0.1845  0.7292 -0.0267
 5798TIP3    H138885   5.208   4.291   1.926 -0.8223  1.3714  2.5378
 5798TIP3    H238886   5.118   4.172   1.947 -0.5174  0.5053 -0.5472
 5799TIP3   OH238887   0.488   0.475   1.544 -0.1800 -0.1092 -0.2663
 5799TIP3    H138888   0.555   0.484   1.612 -0.3798 -0.3178 -0.0404
 5799TIP3    H238889   0.525   0.413   1.482  0.9802  1.7743 -1.5567
 5800TIP3   OH238890   5.691   5.855  12.695 -1.0531 -0.4253  0.0880
 5800TIP3    H138891   5.752   5.854  12.768 -1.9572  0.2013  0.8768
 5800TIP3    H238892   5.727   5.921  12.635 -0.6747 -0.4382  0.2959
 5801TIP3   OH238893   6.226   0.163   1.361 -0.2364  0.1610  0.2426
 5801TIP3    H138894   6.272   0.094   1.410 -0.1066  0.9505  1.2704
 5801TIP3    H238895   6.180   0.212   1.428 -1.5486  0.1815 -0.6416
 5802TIP3   OH238896   2.649   3.661  10.366 -0.4674  0.0357 -0.2371
 5802TIP3    H138897   2.742   3.683  10.357 -0.7749  1.8740  0.6510
 5802TIP3    H238898   2.609   3.739  10.405 -2.0620 -1.4039  1.1813
 5803TIP3   OH238899   6.706   3.961   1.183 -0.2288 -0.2045  0.3648
 5803TIP3    H138900   6.782   3.905   1.168 -1.2262 -1.9516  1.5225
 5803TIP3    H238901   6.683   3.947   1.275 -0.7012  1.9382  0.6417
 5804TIP3   OH238902   1.607   5.374   0.125  0.6333 -0.1261 -0.0122
 5804TIP3    H138903   1.667   5.402   0.195  1.3663 -1.0093 -0.2643
 5804TIP3    H238904   1.659   5.313   0.073 -0.6103 -1.2462  0.0074
 5805TIP3   OH238905   3.273   0.095   1.733 -0.2296 -0.1394  0.4293
 5805TIP3    H138906   3.268   0.083   1.638 -2.0967  1.2577  0.2995
 5805TIP3    H238907   3.201   0.155   1.754  0.3460 -0.1397  2.6928
 5806TIP3   OH238908   5.980   0.545  10.708 -0.2540  0.6570  0.0241
 5806TIP3    H138909   5.975   0.450  10.716 -0.2562  0.6322 -0.2757
 5806TIP3    H238910   5.928   0.566  10.630 -0.2631  0.9046  0.0949
 5807TIP3   OH238911   4.607   2.900  15.779 -0.6720  0.1552  0.7143
 5807TIP3    H138912   4.527   2.882  15.730 -0.5493 -0.2613  0.6640
 5807TIP3    H238913   4.675   2.907  15.712 -0.7995  1.3678  0.6790
 5808TIP3   OH238914   1.197   0.277  13.818  0.5221 -0.3322 -0.5898
 5808TIP3    H138915   1.241   0.199  13.783  1.8445  0.2994 -0.4209
 5808TIP3    H238916   1.194   0.338  13.745 -0.1843 -0.3967 -0.6223
 5809TIP3   OH238917   0.757   3.256  11.056  0.3961 -0.0402 -0.2470
 5809TIP3    H138918   0.779   3.267  11.149  1.9348 -0.6665 -0.5032
 5809TIP3    H238919   0.669   3.221  11.057  0.1785  0.4564  0.9563
 5810TIP3   OH238920   0.564   6.008   2.296 -0.3317  0.4188  0.0049
 5810TIP3    H138921   0.620   6.018   2.373 -1.1480  1.5191  0.4863
 5810TIP3    H238922   0.512   5.929   2.314 -0.8372  0.9189  0.8071
 5811TIP3   OH238923   0.052   2.216   1.413  0.5811 -0.1875 -0.5215
 5811TIP3    H138924   0.017   2.227   1.501 -0.6638  0.8705 -1.1011
 5811TIP3    H238925   0.095   2.131   1.414  2.2237  0.6023  1.6089
 5812TIP3   OH238926   4.276   1.094   3.464 -0.1246 -1.1565 -0.1096
 5812TIP3    H138927   4.237   1.121   3.547  1.2868 -0.1155  0.2636
 5812TIP3    H238928   4.369   1.082   3.484  0.7731  1.5757 -1.9685
 5813TIP3   OH238929   0.819   3.141   4.278  0.0749  0.0620 -0.5598
 5813TIP3    H138930   0.885   3.078   4.307  1.4501  0.6080 -2.3279
 5813TIP3    H238931   0.806   3.121   4.186 -0.5324  1.4438 -0.7978
 5814TIP3   OH238932   1.573   4.605  15.175 -0.1955  0.3459 -0.0783
 5814TIP3    H138933   1.509   4.663  15.136 -2.0746 -0.4663  1.5878
 5814TIP3    H238934   1.527   4.521  15.183  1.5633 -0.6708 -0.0813
 5815TIP3   OH238935   5.032   5.973   5.296  0.4873 -0.2887  0.4563
 5815TIP3    H138936   5.052   6.062   5.269 -0.6740 -0.3018 -0.5321
 5815TIP3    H238937   5.087   5.958   5.373  0.3169  1.4491  0.9521
 5816TIP3   OH238938   5.022   1.872  13.581 -0.2387 -0.0645 -0.2309
 5816TIP3    H138939   4.937   1.878  13.537 -0.2529 -1.6526 -0.5016
 5816TIP3    H238940   5.086   1.865  13.510 -0.1715 -1.6424 -0.0604
 5817TIP3   OH238941   5.040   2.929  17.026 -0.2225  0.2538 -0.1464
 5817TIP3    H138942   5.029   2.835  17.012 -1.7266  0.6022 -1.6023
 5817TIP3    H238943   5.010   2.945  17.115 -0.4479 -0.5820 -0.0708
 5818TIP3   OH238944   0.414   5.492  10.715  0.1744 -0.4835 -0.5542
 5818TIP3    H138945   0.425   5.539  10.632 -0.9951 -0.7403 -0.8684
 5818TIP3    H238946   0.360   5.550  10.768 -1.0295 -1.3021 -0.8362
 5819TIP3   OH238947   2.543   6.246   1.559 -0.1723  0.5116 -0.5180
 5819TIP3    H138948   2.453   6.246   1.526  0.4285  1.4799 -2.2473
 5819TIP3    H238949   2.548   6.326   1.612 -0.0325  1.0790 -1.3625
 5820TIP3   OH238950   5.929   5.535   2.441  0.3413 -0.0618  0.0305
 5820TIP3    H138951   5.975   5.462   2.482 -0.1883 -0.0437  0.6796
 5820TIP3    H238952   5.985   5.611   2.458  0.1914 -0.0771  0.6223
 5821TIP3   OH238953   1.857   6.296  11.913  0.1954  0.0674 -0.3327
 5821TIP3    H138954   1.918   6.276  11.984  1.6759  1.6709 -1.0646
 5821TIP3    H238955   1.817   6.212  11.891  1.4328 -0.8704  0.8359
 5822TIP3   OH238956   4.601   3.611   1.389  0.1108 -0.1587  1.1339
 5822TIP3    H138957   4.571   3.645   1.305  0.7738 -0.3586  0.8134
 5822TIP3    H238958   4.695   3.596   1.377 -0.3635 -3.5839  0.7223
 5823TIP3   OH238959   4.672   5.009   5.617  0.4347  0.6649  0.1925
 5823TIP3    H138960   4.736   5.065   5.573 -0.4131  1.9889  0.5910
 5823TIP3    H238961   4.587   5.039   5.584  0.0189 -2.2292 -1.6857
 5824TIP3   OH238962   0.727   3.857   3.753  0.1164  0.0253  0.4726
 5824TIP3    H138963   0.638   3.823   3.755  0.7502 -1.7037  1.3650
 5824TIP3    H238964   0.735   3.907   3.834  0.3778 -1.0781  1.1593
 5825TIP3   OH238965   1.361   6.276   1.335 -0.1374  0.2617 -0.2109
 5825TIP3    H138966   1.290   6.233   1.286 -0.4913 -0.0946  0.5984
 5825TIP3    H238967   1.420   6.204   1.359  0.4389  0.5399 -0.7677
 5826TIP3   OH238968   3.090   1.292   6.014 -0.1123 -0.0980 -0.5997
 5826TIP3    H138969   3.152   1.326   5.948 -1.1643  2.1247 -0.5511
 5826TIP3    H238970   3.130   1.316   6.098 -0.8215  0.9985 -0.5607
 5827TIP3   OH238971   6.437   4.114   0.540 -0.1562 -0.1154 -0.0636
 5827TIP3    H138972   6.488   4.035   0.522 -1.1932 -0.4172 -2.0501
 5827TIP3    H238973   6.433   4.119   0.635  0.6835 -1.9690  0.1152
 5828TIP3   OH238974   6.213   2.220  11.603  0.1885 -0.2953 -0.2935
 5828TIP3    H138975   6.271   2.270  11.660 -0.5834 -1.8028  1.9221
 5828TIP3    H238976   6.136   2.276  11.591  1.1536  0.8325 -1.5259
 5829TIP3   OH238977   1.149   1.743   0.868 -0.3605 -0.0710 -0.1325
 5829TIP3    H138978   1.161   1.682   0.941  1.1292 -0.9788 -1.0825
 5829TIP3    H238979   1.224   1.802   0.875 -0.0123 -0.3808 -1.1020
 5830TIP3   OH238980   3.654   1.434   1.935  0.5461  0.2601  0.3018
 5830TIP3    H138981   3.669   1.486   1.855  0.5021  0.5566  0.4857
 5830TIP3    H238982   3.560   1.418   1.935  0.1617  2.1550  1.4379
 5831TIP3   OH238983   2.718   0.034   1.818 -0.7091 -0.3962 -0.4667
 5831TIP3    H138984   2.724   0.038   1.914 -4.0367  0.9096 -0.1935
 5831TIP3    H238985   2.648  -0.029   1.802 -1.4537  0.7600 -1.9360
 5832TIP3   OH238986   5.177   6.339  11.562  0.4205  0.5061  0.4428
 5832TIP3    H138987   5.107   6.396  11.595 -1.6044 -1.0737 -0.8704
 5832TIP3    H238988   5.146   6.310  11.476  0.5403 -3.7073  1.5841
 5833TIP3   OH238989   3.811   5.459  10.482  0.0466  0.1975  0.0434
 5833TIP3    H138990   3.839   5.432  10.570  0.9440  0.3471 -0.1904
 5833TIP3    H238991   3.769   5.381  10.446 -2.6242  0.8258  1.4986
 5834TIP3   OH238992   4.641   4.527   2.730 -0.1979 -0.0520 -0.2277
 5834TIP3    H138993   4.566   4.516   2.671 -0.9299  1.1355  0.4434
 5834TIP3    H238994   4.604   4.517   2.818  0.7536 -1.1126  0.0725
 5835TIP3   OH238995   5.744   6.429   5.092 -0.8257 -0.4454 -0.4922
 5835TIP3    H138996   5.681   6.462   5.156 -3.8409 -2.7067 -2.0205
 5835TIP3    H238997   5.789   6.357   5.138  0.2303  0.7343  0.3875
 5836TIP3   OH238998   4.519   2.362  15.562  0.2176  0.0299 -0.2390
 5836TIP3    H138999   4.554   2.283  15.520 -1.0878 -1.6623  1.7033
 5836TIP3    H239000   4.557   2.361  15.650 -0.0026  1.4719 -0.1097
 5837TIP3   OH239001   2.582   6.141   2.381 -0.3027 -0.0220  0.0455
 5837TIP3    H139002   2.525   6.215   2.402  0.7738  1.0498 -0.6911
 5837TIP3    H239003   2.566   6.078   2.451 -3.0137 -0.1517 -0.5930
 5838TIP3   OH239004   4.755   4.227   0.805  0.5630  0.7141 -0.7189
 5838TIP3    H139005   4.725   4.158   0.864 -0.3192  1.1809 -0.6158
 5838TIP3    H239006   4.843   4.199   0.779  0.4362 -0.1640 -0.2381
 5839TIP3   OH239007   6.785   2.676  15.508 -0.0344  0.0680  0.7038
 5839TIP3    H139008   6.861   2.660  15.563  0.0267 -1.4987  0.2183
 5839TIP3    H239009   6.739   2.592  15.507  0.1604 -0.0782 -1.9166
 5840TIP3   OH239010   2.738   5.713  13.715 -0.0772 -0.2198  0.3521
 5840TIP3    H139011   2.828   5.725  13.685  0.1455 -0.9078  0.7060
 5840TIP3    H239012   2.746   5.700  13.810 -0.7861  2.2559  0.8363
 5841TIP3   OH239013   0.906   0.311  15.107  0.2441  0.0973 -0.2224
 5841TIP3    H139014   0.856   0.364  15.045  1.2750  0.3135 -0.9095
 5841TIP3    H239015   0.893   0.354  15.192 -1.4335 -0.3839 -0.2014
 5842TIP3   OH239016   4.174   4.237  11.343 -0.2583 -0.0032 -0.3030
 5842TIP3    H139017   4.155   4.232  11.437  0.8752 -0.0096 -0.0618
 5842TIP3    H239018   4.100   4.194  11.302 -1.3044  0.9462  0.5194
 5843TIP3   OH239019   4.402   0.858   1.410  0.8064  0.7504  0.5461
 5843TIP3    H139020   4.403   0.931   1.471 -1.5315  2.4321 -1.2393
 5843TIP3    H239021   4.309   0.845   1.389  1.2726 -1.7831 -0.3468
 5844TIP3   OH239022   0.931   2.098   4.932 -0.1215  0.0351 -0.2148
 5844TIP3    H139023   0.856   2.069   4.983  0.0072 -1.8947 -1.0283
 5844TIP3    H239024   0.981   2.018   4.916 -0.3289  0.4498 -3.6315
 5845TIP3   OH239025   0.402   4.707   3.463  0.0551 -0.2335  0.3535
 5845TIP3    H139026   0.339   4.636   3.470 -0.1431 -0.1466 -0.4777
 5845TIP3    H239027   0.350   4.787   3.470 -0.2104 -0.1242 -2.0404
 5846TIP3   OH239028   5.433   0.543   2.552  0.2647  0.1338  0.0740
 5846TIP3    H139029   5.370   0.612   2.571 -0.0312 -0.0244 -0.3080
 5846TIP3    H239030   5.518   0.580   2.576  0.1002  0.6016 -0.0593
 5847TIP3   OH239031   0.890   6.573  14.034  0.1521  0.0702  0.2308
 5847TIP3    H139032   0.978   6.610  14.024 -0.1019  0.4054 -0.9419
 5847TIP3    H239033   0.833   6.650  14.042 -0.1725 -0.1043 -0.3471
 5848TIP3   OH239034   6.603   0.194  16.426 -0.5437 -0.3209 -0.3661
 5848TIP3    H139035   6.643   0.137  16.492  0.5139  0.5810 -0.2075
 5848TIP3    H239036   6.519   0.220  16.465  1.2498  2.5120  2.0082
 5849TIP3   OH239037   3.027   6.456  16.069 -0.1174  0.0731 -0.0013
 5849TIP3    H139038   2.951   6.411  16.032 -0.9932  1.2827  0.2887
 5849TIP3    H239039   3.080   6.386  16.106 -1.0996 -0.7916 -0.1842
 5850TIP3   OH239040   0.552   4.080  13.070  0.0422  0.1189  0.1300
 5850TIP3    H139041   0.604   4.035  13.004 -1.0319 -0.6459 -0.2330
 5850TIP3    H239042   0.572   4.173  13.058  0.1508 -0.0415 -1.0215
 5851TIP3   OH239043   5.268   1.111  14.951 -0.2712  0.8852  0.0824
 5851TIP3    H139044   5.191   1.156  14.988  1.6727  2.6659  2.3010
 5851TIP3    H239045   5.301   1.172  14.885 -0.0552  0.7217  0.0406
 5852TIP3   OH239046   1.771   4.779   5.954 -0.1174 -0.4652  0.1281
 5852TIP3    H139047   1.782   4.868   5.988 -2.0249  0.1130 -0.6073
 5852TIP3    H239048   1.727   4.732   6.025 -1.0820 -0.1863 -0.2662
 5853TIP3   OH239049   4.981   6.794  15.162  0.0707 -0.7205 -0.2608
 5853TIP3    H139050   4.966   6.832  15.076  0.9891 -2.4094 -1.2059
 5853TIP3    H239051   4.893   6.771  15.193 -0.1256 -2.3853 -1.8711
 5854TIP3   OH239052   0.694   4.958  15.016 -0.1338  0.0419 -0.5084
 5854TIP3    H139053   0.689   5.011  15.096 -0.2222  1.0949 -1.2010
 5854TIP3    H239054   0.646   5.009  14.950 -1.0643 -1.3529 -0.9537
 5855TIP3   OH239055   4.700   6.084  12.779 -0.5095 -0.1273  0.2414
 5855TIP3    H139056   4.662   6.045  12.858  1.0484 -0.5291  0.8374
 5855TIP3    H239057   4.713   6.011  12.719 -1.3554  0.1230 -0.2603
 5856TIP3   OH239058   2.661   0.829  13.528 -0.7386  0.9507 -0.0759
 5856TIP3    H139059   2.619   0.743  13.537 -0.0896  0.4383 -1.5450
 5856TIP3    H239060   2.742   0.821  13.578 -1.0070  0.9382  0.3568
 5857TIP3   OH239061   4.933   4.276   0.045 -0.7104  0.0635  0.4645
 5857TIP3    H139062   4.964   4.366   0.055  0.3277 -0.3666  1.2434
 5857TIP3    H239063   4.967   4.230   0.121  0.7128 -1.5200 -1.0386
 5858TIP3   OH239064   0.532   1.206  14.098 -0.4603  0.4523  0.3701
 5858TIP3    H139065   0.494   1.130  14.143  1.0119 -0.4816  0.1021
 5858TIP3    H239066   0.609   1.171  14.054 -0.5629  1.8274 -0.9677
 5859TIP3   OH239067   2.287   0.977  15.512 -0.3638 -0.6600  0.0377
 5859TIP3    H139068   2.276   0.885  15.487 -3.2216  0.0615 -2.0130
 5859TIP3    H239069   2.237   0.986  15.593 -0.8091 -0.7861 -0.2152
 5860TIP3   OH239070   5.374   5.454   4.641 -0.0303  0.2075  0.2346
 5860TIP3    H139071   5.343   5.431   4.553  2.2962  0.4233 -0.7428
 5860TIP3    H239072   5.343   5.384   4.697  0.2235 -1.0970 -1.1820
 5861TIP3   OH239073   5.020   2.206   2.468  0.7149  0.4495  0.0701
 5861TIP3    H139074   5.105   2.247   2.454  0.0581  3.0502  2.7260
 5861TIP3    H239075   5.020   2.181   2.560 -1.3708  0.5251  0.1385
 5862TIP3   OH239076   4.292   5.519   1.542  0.3366 -0.7848  0.6990
 5862TIP3    H139077   4.223   5.458   1.517  0.2160  0.1004 -1.3984
 5862TIP3    H239078   4.266   5.554   1.626 -2.7570  0.8149 -0.7717
 5863TIP3   OH239079   5.759   3.820   0.985  0.3931 -0.2578  0.0419
 5863TIP3    H139080   5.851   3.797   0.970  0.0796 -0.9807 -0.8248
 5863TIP3    H239081   5.754   3.913   0.963  1.1739  0.1170  1.3166
 5864TIP3   OH239082   3.963   3.877   0.486  0.4524 -0.0666  0.0094
 5864TIP3    H139083   4.028   3.817   0.450  0.5444 -0.3534  0.6403
 5864TIP3    H239084   3.881   3.853   0.443  0.8748  0.7682 -1.3347
 5865TIP3   OH239085   1.663   4.489   3.024 -0.1022  0.2954 -0.7049
 5865TIP3    H139086   1.684   4.507   2.933 -1.3046 -0.2910 -1.1219
 5865TIP3    H239087   1.575   4.452   3.022 -1.0645  2.2767  0.8902
 5866TIP3   OH239088   3.931   0.933  14.974 -0.0776  0.1433  0.5519
 5866TIP3    H139089   3.942   0.851  14.926  0.8544  0.4458  0.2351
 5866TIP3    H239090   3.852   0.919  15.026 -0.6627 -0.4765 -0.4643
 5867TIP3   OH239091   0.115   4.244   0.371 -0.5517  0.1947  0.8186
 5867TIP3    H139092   0.184   4.181   0.393 -1.7794 -1.2992  0.5967
 5867TIP3    H239093   0.099   4.291   0.453  0.6494  0.5068  0.8928
 5868TIP3   OH239094   1.454   0.947  14.333 -0.2339 -0.6000 -0.3078
 5868TIP3    H139095   1.424   1.028  14.372 -1.2349 -0.2197 -1.7911
 5868TIP3    H239096   1.423   0.878  14.393  2.0167  0.0871  1.8420
 5869TIP3   OH239097   3.292   0.002   1.024 -0.5790 -0.6373 -0.0671
 5869TIP3    H139098   3.293  -0.002   0.929  0.7149 -1.2055 -0.0579
 5869TIP3    H239099   3.231   0.072   1.045 -1.5902 -1.1166 -1.2766
 5870TIP3   OH239100   0.409   2.786   5.271 -0.7953  0.3880 -0.3053
 5870TIP3    H139101   0.398   2.861   5.330  1.1996  0.5586 -0.0931
 5870TIP3    H239102   0.497   2.753   5.289 -1.3495 -1.5946 -0.8980
 5871TIP3   OH239103   3.773   6.636   3.868  0.1714  0.2706  0.9357
 5871TIP3    H139104   3.701   6.671   3.816  1.8545  2.7507  0.0818
 5871TIP3    H239105   3.781   6.696   3.942  0.7051 -0.6084  1.6184
 5872TIP3   OH239106   6.224   3.134  12.819  0.0317  0.3086 -0.1454
 5872TIP3    H139107   6.199   3.085  12.740  1.3536 -3.3014  1.4594
 5872TIP3    H239108   6.145   3.182  12.843 -0.6962  0.8008 -3.0939
 5873TIP3   OH239109   4.180   5.004   5.130  0.0011  0.0919  0.0679
 5873TIP3    H139110   4.125   4.988   5.207  0.4095 -0.1210  0.3138
 5873TIP3    H239111   4.158   4.933   5.070  0.3498 -0.2639  0.3562
 5874TIP3   OH239112   1.666   0.990   5.209  0.0419 -0.5390 -0.8656
 5874TIP3    H139113   1.683   0.958   5.298  1.5170 -4.0603 -2.2113
 5874TIP3    H239114   1.581   1.033   5.215  0.5759  0.3422  2.4269
 5875TIP3   OH239115   3.992   6.271  15.745 -0.2076 -0.0608  0.3596
 5875TIP3    H139116   3.996   6.367  15.745  0.2055 -0.0639 -0.8313
 5875TIP3    H239117   3.899   6.251  15.734 -0.4123  0.1800  1.4693
 5876TIP3   OH239118   0.641   1.247   4.738 -0.3653  0.1269  0.1976
 5876TIP3    H139119   0.692   1.190   4.795 -1.0780  0.1940  0.9175
 5876TIP3    H239120   0.701   1.270   4.667 -0.0750 -1.6071 -0.1830
 5877TIP3   OH239121   0.626   4.359  12.729 -0.2102 -0.2990 -0.2458
 5877TIP3    H139122   0.631   4.454  12.742  1.2981 -0.2240 -1.0927
 5877TIP3    H239123   0.560   4.347  12.661  0.0804  0.2185 -0.6272
 5878TIP3   OH239124   2.430   4.498  16.116  0.5023 -0.0898 -0.0625
 5878TIP3    H139125   2.341   4.484  16.084  1.0760  0.8234 -2.2549
 5878TIP3    H239126   2.419   4.532  16.205 -1.4455  1.7283 -0.9139
 5879TIP3   OH239127   3.565   2.812  14.970  0.1044  0.8032  0.2269
 5879TIP3    H139128   3.482   2.814  15.018 -0.3536  0.6990 -0.5342
 5879TIP3    H239129   3.618   2.881  15.010 -0.0932  0.4143  1.1693
 5880TIP3   OH239130   0.414   5.435  12.560 -0.0890 -0.0544  0.5148
 5880TIP3    H139131   0.391   5.342  12.552  0.6436 -0.2739  0.8350
 5880TIP3    H239132   0.510   5.436  12.555 -0.1372  0.8180 -0.7282
 5881TIP3   OH239133   3.664   4.769  16.741  0.0074 -0.2595  0.2130
 5881TIP3    H139134   3.756   4.751  16.720  0.3713 -1.5419  2.5302
 5881TIP3    H239135   3.664   4.860  16.773  1.0612 -1.0906  2.8105
 5882TIP3   OH239136   1.206   1.923   3.954  0.4945 -0.3694 -0.4859
 5882TIP3    H139137   1.116   1.894   3.970  0.7979 -1.4508 -0.7033
 5882TIP3    H239138   1.258   1.875   4.018  0.9180  0.3471 -0.2780
 5883TIP3   OH239139   5.474   4.152  12.337 -0.2456 -0.4130  0.4166
 5883TIP3    H139140   5.548   4.098  12.365 -1.3424 -2.1693  0.1177
 5883TIP3    H239141   5.404   4.131  12.399 -0.8403  0.3229  0.0073
 5884TIP3   OH239142   3.854   5.378   4.556 -0.0574  0.0194  0.0148
 5884TIP3    H139143   3.785   5.441   4.538 -0.6645 -0.6115  0.1022
 5884TIP3    H239144   3.868   5.385   4.650  0.0431  0.1882 -0.0115
 5885TIP3   OH239145   2.793   6.562   4.715  0.0425  0.0067 -0.4435
 5885TIP3    H139146   2.725   6.616   4.674  1.7365  2.5381 -0.1962
 5885TIP3    H239147   2.866   6.622   4.727  1.4008 -1.9218  1.7203
 5886TIP3   OH239148   1.172   0.448  14.441  0.2472 -0.2831  0.8497
 5886TIP3    H139149   1.259   0.442  14.403  0.7219 -1.4674  2.0201
 5886TIP3    H239150   1.165   0.539  14.471  1.1491 -0.2208  0.8910
 5887TIP3   OH239151   2.156   5.238   3.280  0.0330  0.3933  0.3662
 5887TIP3    H139152   2.108   5.313   3.314 -0.3434  1.4697 -2.3034
 5887TIP3    H239153   2.242   5.272   3.258 -0.5178  0.4298 -1.9761
 5888TIP3   OH239154   5.203   3.588   5.659 -0.1407  0.1400 -0.7747
 5888TIP3    H139155   5.129   3.584   5.720 -0.0569  0.7370 -0.6221
 5888TIP3    H239156   5.164   3.574   5.573 -0.0774 -2.0405 -0.4886
 5889TIP3   OH239157   4.681   6.494   2.194 -0.4313 -0.8470  0.0216
 5889TIP3    H139158   4.693   6.479   2.288 -2.8656  2.3198  1.0193
 5889TIP3    H239159   4.596   6.455   2.173 -0.8779  0.2514 -0.3096
 5890TIP3   OH239160   3.755   2.190  15.722  0.0222 -0.4131 -0.1621
 5890TIP3    H139161   3.700   2.112  15.729  0.1904 -0.4804  0.5086
 5890TIP3    H239162   3.836   2.166  15.766 -0.0060  0.2174  0.2461
 5891TIP3   OH239163   4.681   2.724   3.399 -0.9966  0.7316  0.5872
 5891TIP3    H139164   4.682   2.660   3.327 -0.5858 -0.9901  2.0609
 5891TIP3    H239165   4.666   2.672   3.477  2.7774  1.9122  2.3289
 5892TIP3   OH239166   0.308   3.790   1.746  0.6521 -0.4951 -0.2866
 5892TIP3    H139167   0.297   3.803   1.652  1.0605 -0.4136 -0.3243
 5892TIP3    H239168   0.348   3.871   1.777 -0.7542  0.0570  0.2028
 5893TIP3   OH239169   4.714   5.002  14.819  0.5648 -0.1527 -0.4351
 5893TIP3    H139170   4.740   4.933  14.879  0.0713  0.0331  0.0041
 5893TIP3    H239171   4.718   5.082  14.870 -0.6744 -0.0956 -0.3812
 5894TIP3   OH239172   1.411   0.688   4.998  0.1193 -0.4899  0.6632
 5894TIP3    H139173   1.378   0.634   5.071  2.2470 -1.5729  0.8988
 5894TIP3    H239174   1.419   0.627   4.925  0.0779  0.1153  0.1448
 5895TIP3   OH239175   0.792   0.188  16.455  0.2768  0.3208 -0.1896
 5895TIP3    H139176   0.756   0.274  16.435 -2.4158 -0.5749  0.4608
 5895TIP3    H239177   0.812   0.192  16.549  0.5834  0.3653 -0.2552
 5896TIP3   OH239178   3.254   4.919  14.646  0.5803 -0.1718  0.1356
 5896TIP3    H139179   3.202   4.983  14.693 -0.8613 -1.7059  0.7371
 5896TIP3    H239180   3.311   4.880  14.713 -0.4184 -1.3220  0.3427
 5897TIP3   OH239181   3.936   0.840   2.230  0.0216  0.6437 -0.1993
 5897TIP3    H139182   3.941   0.792   2.313 -0.5892  0.8654 -0.0302
 5897TIP3    H239183   3.923   0.772   2.164  4.1146  0.0415 -0.6348
 5898TIP3   OH239184   2.285   1.528  13.296  0.3736 -0.3383  0.1862
 5898TIP3    H139185   2.379   1.527  13.311  0.3642  1.7265  0.7291
 5898TIP3    H239186   2.275   1.503  13.204  1.0784 -4.5769  1.0645
 5899TIP3   OH239187   3.168   3.409   5.818  0.5040  0.3857 -0.7421
 5899TIP3    H139188   3.193   3.330   5.770 -2.8110 -0.8086 -0.7197
 5899TIP3    H239189   3.073   3.407   5.821  0.3449  1.2534  4.3732
 5900TIP3   OH239190   0.851   4.395   0.842  0.1443 -0.8448  0.9110
 5900TIP3    H139191   0.926   4.383   0.900 -0.2936 -1.9425  1.2867
 5900TIP3    H239192   0.775   4.379   0.899 -0.5105  2.3706  1.0852
 5901TIP3   OH239193   4.441   6.705   0.640  0.2494 -0.9878  0.8040
 5901TIP3    H139194   4.386   6.628   0.621 -0.7904 -0.1189  0.1252
 5901TIP3    H239195   4.515   6.696   0.580 -0.5308 -0.8210 -0.2343
 5902TIP3   OH239196   0.511   2.939   5.043  0.5420 -0.2979 -0.5445
 5902TIP3    H139197   0.487   2.869   5.104  0.7329 -0.7275 -0.9545
 5902TIP3    H239198   0.477   3.019   5.084  1.7769 -0.3994  0.7745
 5903TIP3   OH239199   5.534   3.269   5.579 -0.3326 -0.3162 -0.4288
 5903TIP3    H139200   5.614   3.222   5.600 -0.2965 -0.3327 -0.6018
 5903TIP3    H239201   5.560   3.361   5.573 -0.1823 -0.3955 -1.1810
 5904TIP3   OH239202   1.458   1.574  13.170 -0.1033 -0.0232  0.3352
 5904TIP3    H139203   1.524   1.628  13.214  0.2079  0.4397 -0.6677
 5904TIP3    H239204   1.380   1.628  13.168 -0.2989 -0.2776  0.8389
 5905TIP3   OH239205   3.696   1.495   5.139 -0.9512  0.3297 -0.4028
 5905TIP3    H139206   3.700   1.401   5.124  0.7467  0.4592 -1.0260
 5905TIP3    H239207   3.603   1.515   5.150 -1.2886 -1.4815  0.2285
 5906TIP3   OH239208   0.059   5.255   1.508 -0.3288 -0.7458  0.1997
 5906TIP3    H139209   0.144   5.222   1.477 -0.4548 -3.6095  2.4532
 5906TIP3    H239210  -0.002   5.232   1.438  0.6502  1.3215 -1.4420
 5907TIP3   OH239211   3.041   3.587   0.671  0.0601 -0.0370 -0.4531
 5907TIP3    H139212   2.975   3.520   0.655 -0.5465  0.6621 -0.9597
 5907TIP3    H239213   3.106   3.575   0.602  0.1963 -0.3978 -0.2624
 5908TIP3   OH239214   2.958   1.056  15.585  0.0020  0.0181 -0.2145
 5908TIP3    H139215   3.017   1.006  15.529  2.3748  1.7991  0.5144
 5908TIP3    H239216   2.928   1.128  15.530  1.3383  1.0611  0.3659
 5909TIP3   OH239217   1.762   0.305  12.889 -0.1313  0.2620  0.0533
 5909TIP3    H139218   1.851   0.304  12.925 -0.4697  0.1939  0.9224
 5909TIP3    H239219   1.774   0.327  12.797  0.8905 -1.1677 -0.1824
 5910TIP3   OH239220   3.354   3.289   3.522  0.3901 -0.0689  0.3286
 5910TIP3    H139221   3.435   3.323   3.559  1.2261  0.0376 -1.5112
 5910TIP3    H239222   3.382   3.229   3.453 -1.0236  1.7228 -1.9321
 5911TIP3   OH239223   4.529   4.623  16.172 -0.4069  0.2860  0.3093
 5911TIP3    H139224   4.615   4.656  16.148 -0.4208  0.5652  0.6387
 5911TIP3    H239225   4.537   4.528  16.166  0.4699  0.2007  2.0627
 5912TIP3   OH239226   5.440   5.100  16.093  0.3437  0.1942  0.4655
 5912TIP3    H139227   5.377   5.037  16.057  0.6608 -1.5088  2.6633
 5912TIP3    H239228   5.387   5.176  16.116 -0.1200  0.6456 -1.8686
 5913TIP3   OH239229   2.294   2.781  16.966  0.2262 -0.2631  0.2952
 5913TIP3    H139230   2.231   2.746  16.902 -1.0519  0.9261  0.8588
 5913TIP3    H239231   2.355   2.832  16.913 -0.5283  0.3009 -0.0497
 5914TIP3   OH239232   5.879   5.244  12.633 -0.1877  1.1901 -0.2011
 5914TIP3    H139233   5.927   5.201  12.562 -0.9399 -0.4679  0.2637
 5914TIP3    H239234   5.887   5.338  12.613  1.4979  0.8762 -1.2446
 5915TIP3   OH239235   3.852   3.596   0.165  0.0922  0.4543 -0.2372
 5915TIP3    H139236   3.896   3.680   0.150 -0.1718  0.7991  0.8564
 5915TIP3    H239237   3.922   3.536   0.191  0.5171 -0.0864 -2.4661
 5916TIP3   OH239238   5.405   1.841   0.139  0.5982  0.0977 -0.2383
 5916TIP3    H139239   5.309   1.840   0.136  0.6024 -2.0675 -0.7588
 5916TIP3    H239240   5.430   1.909   0.076 -0.5745  0.8900  0.1175
 5917TIP3   OH239241   1.005   6.664  15.642  0.4151  0.2251  0.2094
 5917TIP3    H139242   1.098   6.684  15.633  0.7555 -1.9225 -2.6583
 5917TIP3    H239243   0.961   6.748  15.633  2.0506  1.2140  1.1110
 5918TIP3   OH239244   0.455   1.968  10.360  0.3118  0.2725 -0.2973
 5918TIP3    H139245   0.379   1.912  10.376  1.0202 -0.6192  0.0084
 5918TIP3    H239246   0.526   1.927  10.410  0.3621  2.6458  1.7676
 5919TIP3   OH239247   5.173   4.848  11.708 -0.6589 -0.6502  0.1291
 5919TIP3    H139248   5.175   4.886  11.620  1.7737  1.4061  0.9409
 5919TIP3    H239249   5.155   4.755  11.694 -1.7839 -0.1342 -2.3928
 5920TIP3   OH239250   0.346   3.477  16.373 -0.1338 -0.3918  0.1640
 5920TIP3    H139251   0.324   3.563  16.408  1.6956  1.0025 -1.8153
 5920TIP3    H239252   0.283   3.462  16.303 -0.0596 -0.3549  0.0894
 5921TIP3   OH239253   5.922   6.238  14.604  0.4347  0.4204  0.3219
 5921TIP3    H139254   5.842   6.188  14.616 -0.2968  0.8703 -2.1292
 5921TIP3    H239255   5.902   6.324  14.641 -0.9968  1.1555 -1.9645
 5922TIP3   OH239256   4.222   4.369   1.560 -0.5698  0.1066  0.5880
 5922TIP3    H139257   4.256   4.352   1.648 -1.1996 -1.4376  0.5735
 5922TIP3    H239258   4.154   4.303   1.548 -0.7543  0.5370 -0.9262
 5923TIP3   OH239259   3.803   0.994  16.921  0.6491  0.6566  0.5140
 5923TIP3    H139260   3.749   1.053  16.974 -0.3565  0.6199 -0.4369
 5923TIP3    H239261   3.864   1.053  16.876 -1.1978  1.1975 -1.4471
 5924TIP3   OH239262   4.949   4.344  13.310  0.1172 -0.2061  0.1342
 5924TIP3    H139263   4.953   4.433  13.277  0.4528  0.0826  0.9289
 5924TIP3    H239264   4.973   4.289  13.235 -0.0369  0.3688 -0.3407
 5925TIP3   OH239265   1.787   1.900   4.399 -0.6736 -0.7169 -0.1823
 5925TIP3    H139266   1.756   1.916   4.488 -2.5624 -0.4104 -0.8539
 5925TIP3    H239267   1.855   1.966   4.385 -0.7418 -0.4208  0.8377
 5926TIP3   OH239268   2.951   5.010   1.331 -0.3267  0.0284  0.5428
 5926TIP3    H139269   2.982   4.987   1.243 -1.0938 -0.5131  0.3979
 5926TIP3    H239270   2.908   5.095   1.318 -0.2462  0.0549  0.4395
 5927TIP3   OH239271   6.052   0.208   0.597  0.0465  0.0837  0.2229
 5927TIP3    H139272   6.017   0.296   0.585  0.3673  0.2982  0.8473
 5927TIP3    H239273   5.986   0.163   0.651  0.0733  0.0572  0.2334
 5928TIP3   OH239274   4.433   6.033  16.484  0.2458 -0.2151 -0.0990
 5928TIP3    H139275   4.516   6.081  16.473  0.2875 -0.6039 -1.5761
 5928TIP3    H239276   4.459   5.953  16.530  0.6121 -0.1188 -0.1297
 5929TIP3   OH239277   3.914   4.742  11.119  0.1438 -0.6295 -0.2629
 5929TIP3    H139278   3.876   4.825  11.146  2.3241  0.9615 -1.8279
 5929TIP3    H239279   3.842   4.697  11.074 -0.3582  1.6178 -1.8534
 5930TIP3   OH239280   2.855   6.494   5.238 -1.1910 -0.2969  0.2348
 5930TIP3    H139281   2.940   6.460   5.212 -0.0491  1.3337  1.6474
 5930TIP3    H239282   2.830   6.555   5.169 -0.6865  0.0757  0.3864
 5931TIP3   OH239283   6.737   0.065   4.776 -0.3132 -0.1767  0.0870
 5931TIP3    H139284   6.785   0.011   4.839  0.2204 -1.7952 -1.6029
 5931TIP3    H239285   6.801   0.082   4.706 -1.1332  0.8149 -0.4427
 5932TIP3   OH239286   3.666   0.582   5.797  0.0584 -0.4076 -0.2259
 5932TIP3    H139287   3.697   0.599   5.708 -1.3433  2.4051 -0.3021
 5932TIP3    H239288   3.573   0.602   5.794 -0.0408 -0.3833  1.8510
 5933TIP3   OH239289   1.044   2.092   1.125 -0.4531  0.6605 -0.6349
 5933TIP3    H139290   1.089   2.148   1.062 -0.5725  0.5087 -0.8563
 5933TIP3    H239291   1.114   2.043   1.169 -0.4042  0.4167 -0.9851
 5934TIP3   OH239292   6.771   3.678  16.130  0.1372 -0.6423  0.2697
 5934TIP3    H139293   6.830   3.730  16.075 -1.1418 -0.5845 -1.1376
 5934TIP3    H239294   6.783   3.588  16.099  1.1623 -0.9904  1.5931
 5935TIP3   OH239295   3.275   4.553  14.578 -0.2111  0.2840  0.2820
 5935TIP3    H139296   3.266   4.500  14.657 -0.6840  0.3674  0.2859
 5935TIP3    H239297   3.308   4.637  14.609 -0.4476  0.3352  0.4012
 5936TIP3   OH239298   1.955   0.066  16.092 -0.0073  0.6877 -0.3976
 5936TIP3    H139299   1.960   0.077  15.997 -1.8779  2.5662 -0.3418
 5936TIP3    H239300   1.935  -0.027  16.104  0.7617  0.3209 -1.7978
 5937TIP3   OH239301   2.825   5.133   1.651 -0.1070  0.2150 -0.0224
 5937TIP3    H139302   2.878   5.079   1.710 -0.1950 -0.4281 -0.5251
 5937TIP3    H239303   2.875   5.135   1.570 -0.3994  0.3906 -0.1987
 5938TIP3   OH239304   3.487   2.220   0.450  0.0584  0.3933 -0.0960
 5938TIP3    H139305   3.499   2.232   0.544  1.4357  0.5224 -0.2684
 5938TIP3    H239306   3.406   2.268   0.430 -0.3360  0.2395  1.0322
 5939TIP3   OH239307   4.505   5.058  12.422  0.3165  0.2645 -0.7030
 5939TIP3    H139308   4.470   4.969  12.432  0.8089  0.0562 -0.7565
 5939TIP3    H239309   4.599   5.044  12.408  0.4663  0.8183 -0.2690
 5940TIP3   OH239310   6.463   0.852   0.675 -0.2504 -0.4159 -0.1836
 5940TIP3    H139311   6.537   0.793   0.689  0.0791  0.1427  0.4955
 5940TIP3    H239312   6.494   0.937   0.706 -0.9044  0.0002 -0.6396
 5941TIP3   OH239313   3.614   0.155  15.446  0.1680 -0.4877 -0.0511
 5941TIP3    H139314   3.542   0.115  15.494 -0.1210 -0.8287 -0.7623
 5941TIP3    H239315   3.575   0.186  15.364  0.9158 -1.1226 -0.6705
 5942TIP3   OH239316   6.715   5.195   4.275 -0.1372 -0.6043 -0.7140
 5942TIP3    H139317   6.711   5.263   4.342 -1.2908  0.4369 -1.7773
 5942TIP3    H239318   6.721   5.113   4.324 -0.4587  0.1574  0.6426
 5943TIP3   OH239319   6.201   5.618  13.608  0.1353  0.3647 -0.9113
 5943TIP3    H139320   6.108   5.640  13.613  0.2571  0.6211  1.3780
 5943TIP3    H239321   6.213   5.551  13.675  1.7851  1.0787 -0.4629
 5944TIP3   OH239322   1.938   1.456  12.392  0.4609  0.1335 -0.7670
 5944TIP3    H139323   1.863   1.440  12.335  0.3206 -1.7063 -0.1289
 5944TIP3    H239324   1.986   1.374  12.393  0.3768  0.0089  1.8611
 5945TIP3   OH239325   0.965   3.620  16.890 -0.0926  0.6215 -0.4029
 5945TIP3    H139326   0.916   3.670  16.825 -1.4740  0.0648  0.1779
 5945TIP3    H239327   0.989   3.684  16.957 -0.4559  0.7928 -0.4382
 5946TIP3   OH239328   3.353   4.768  14.303  0.5995  0.2516 -0.2764
 5946TIP3    H139329   3.350   4.774  14.207 -1.8135 -0.0878 -0.2783
 5946TIP3    H239330   3.337   4.675  14.321  1.5304  0.2233  0.4808
 5947TIP3   OH239331   4.807   3.302   3.559  0.0009 -0.0626  0.8298
 5947TIP3    H139332   4.829   3.292   3.652  1.3591 -1.7906  0.3839
 5947TIP3    H239333   4.829   3.393   3.539  1.7103 -0.2220  1.7546
 5948TIP3   OH239334   6.111   0.635  14.906  0.0374 -0.1125 -0.2149
 5948TIP3    H139335   6.161   0.654  14.985  0.6394  0.8616 -0.8168
 5948TIP3    H239336   6.167   0.663  14.834 -1.0167  0.1925 -0.9392
 5949TIP3   OH239337   4.050   4.915  13.079 -0.0993  0.0679 -0.7117
 5949TIP3    H139338   4.006   4.986  13.033 -0.6407 -0.8498 -1.6575
 5949TIP3    H239339   3.980   4.873  13.131  0.0904 -0.1236 -0.6075
 5950TIP3   OH239340   0.423   2.526   4.134 -0.4013 -0.3020 -0.4420
 5950TIP3    H139341   0.462   2.569   4.058  0.3751 -1.5094 -0.7560
 5950TIP3    H239342   0.493   2.525   4.200 -0.7422 -0.1636 -0.0765
 5951TIP3   OH239343   1.941   6.659  14.125 -0.5407  0.3646  0.3834
 5951TIP3    H139344   1.944   6.754  14.119 -0.8464  0.4147  0.9729
 5951TIP3    H239345   2.004   6.638  14.194  2.0533 -0.1106 -1.9493
 5952TIP3   OH239346   4.201   6.714   4.917 -0.1864 -0.2930 -0.3542
 5952TIP3    H139347   4.108   6.693   4.931 -0.3217 -0.7561 -1.7662
 5952TIP3    H239348   4.201   6.808   4.899  0.0166  0.3758  2.5770
 5953TIP3   OH239349   1.252   3.052   4.847  0.1928  0.1566 -0.7063
 5953TIP3    H139350   1.242   3.147   4.854 -0.4175 -0.0037  0.9407
 5953TIP3    H239351   1.196   3.017   4.916  0.8708 -1.3891 -0.9047
 5954TIP3   OH239352   2.281   0.147   2.832 -0.4706  0.4675  0.0738
 5954TIP3    H139353   2.350   0.134   2.898 -0.6232 -2.3662 -0.2125
 5954TIP3    H239354   2.256   0.059   2.806 -0.8177  1.4662 -3.4170
 5955TIP3   OH239355   4.978   4.758  11.973 -0.1206 -0.3204 -0.0275
 5955TIP3    H139356   5.049   4.777  11.913  0.7379 -2.5287  0.2091
 5955TIP3    H239357   4.932   4.684  11.934 -0.2362 -1.0782  1.4589
 5956TIP3   OH239358   2.415   1.257  17.112  0.2484 -0.8495  0.2263
 5956TIP3    H139359   2.428   1.164  17.094  1.0469 -0.7548  0.2708
 5956TIP3    H239360   2.468   1.303  17.047  0.0626 -0.4299  0.3623
 5957TIP3   OH239361   3.513   4.615   5.132  0.1593 -0.8464 -0.1362
 5957TIP3    H139362   3.514   4.688   5.194 -1.8686 -0.6800 -0.2197
 5957TIP3    H239363   3.522   4.537   5.186  1.3983 -0.5958  0.0459
 5958TIP3   OH239364   2.537   5.710   1.623 -0.2971 -0.2544 -0.3320
 5958TIP3    H139365   2.551   5.670   1.537 -1.3612  1.1224 -1.2152
 5958TIP3    H239366   2.465   5.661   1.661  1.6281 -2.3378  0.8274
 5959TIP3   OH239367   0.062   1.104  12.384  0.1812  0.1475 -0.5146
 5959TIP3    H139368   0.147   1.126  12.344  0.0911  0.4202 -0.5547
 5959TIP3    H239369   0.015   1.057  12.316 -0.8001  2.4124 -1.5037
 5960TIP3   OH239370   6.020   3.559  12.805  0.0525  0.3177  0.3697
 5960TIP3    H139371   5.993   3.640  12.849  1.0045  0.5327  0.5842
 5960TIP3    H239372   6.110   3.576  12.776  0.2894 -0.6867  0.4727
 5961TIP3   OH239373   1.251   2.798  11.546  0.2309  0.7979  0.0751
 5961TIP3    H139374   1.179   2.756  11.594  1.0386  0.3185  0.8998
 5961TIP3    H239375   1.265   2.740  11.470 -0.3914  1.0151 -0.2137
 5962TIP3   OH239376   3.940   1.912  12.744  0.0813 -0.5521  0.0836
 5962TIP3    H139377   3.924   1.940  12.654 -0.2665 -3.4065 -0.8601
 5962TIP3    H239378   4.032   1.886  12.745 -0.1847 -1.5165  0.2382
 5963TIP3   OH239379   5.141   4.076  15.254 -0.4227  0.8731 -0.4408
 5963TIP3    H139380   5.141   4.034  15.340  0.0459 -2.0635 -1.7544
 5963TIP3    H239381   5.063   4.042  15.210 -0.1623  1.5795 -1.5071
 5964TIP3   OH239382   5.198   5.537   5.442 -0.2193  0.5143 -0.5042
 5964TIP3    H139383   5.204   5.602   5.373 -1.0472  0.5882 -0.5165
 5964TIP3    H239384   5.199   5.452   5.397 -3.2837  0.5701 -0.8817
 5965TIP3   OH239385   2.800   6.060   1.605  0.0080  0.3393  0.4247
 5965TIP3    H139386   2.764   6.000   1.670 -1.0991  1.7727  1.2122
 5965TIP3    H239387   2.724   6.098   1.562  0.7292 -0.3977 -1.5883
 5966TIP3   OH239388   4.166   4.055  13.683 -0.3509  0.1426  0.3400
 5966TIP3    H139389   4.187   4.145  13.708 -1.2269  0.2494  0.7078
 5966TIP3    H239390   4.251   4.012  13.677  0.0704  0.9631  0.2657
 5967TIP3   OH239391   2.603   2.694  13.263  0.3657 -0.0230 -0.2277
 5967TIP3    H139392   2.625   2.611  13.306 -0.9052  0.7248  2.0109
 5967TIP3    H239393   2.634   2.683  13.173  2.0767 -2.1443  0.5224
 5968TIP3   OH239394   5.371   2.159  13.117 -0.4436 -0.1139 -0.0276
 5968TIP3    H139395   5.326   2.082  13.080 -0.7548 -0.0233  0.1582
 5968TIP3    H239396   5.397   2.131  13.205 -0.9626  0.1465  0.2099
 5969TIP3   OH239397   1.621   2.453   3.498  0.0537 -0.7103  0.0791
 5969TIP3    H139398   1.540   2.486   3.460  0.6782 -2.1847 -2.7342
 5969TIP3    H239399   1.674   2.532   3.511 -0.9225  0.0298 -0.2756
 5970TIP3   OH239400   5.456   3.087   2.998 -0.4930 -0.5762  0.2429
 5970TIP3    H139401   5.522   3.061   3.062  0.3096 -0.1052 -0.3755
 5970TIP3    H239402   5.407   3.157   3.040  1.2273  1.0343 -0.2971
 5971TIP3   OH239403   2.640   1.623  15.721 -0.5800 -0.5006 -0.0173
 5971TIP3    H139404   2.709   1.578  15.673  0.5457  1.6318 -0.5142
 5971TIP3    H239405   2.584   1.661  15.653 -0.7466 -0.0177  0.3845
 5972TIP3   OH239406   2.024   2.314  16.691  0.1151  1.1821  0.4640
 5972TIP3    H139407   1.935   2.279  16.680  0.4247  0.0165  1.4056
 5972TIP3    H239408   2.034   2.378  16.621 -1.3019  0.9822  0.0537
 5973TIP3   OH239409   6.403   5.571   4.705  0.3157  0.4247 -0.3289
 5973TIP3    H139410   6.471   5.597   4.643  1.1593 -1.0001 -0.0615
 5973TIP3    H239411   6.412   5.476   4.711  0.0347  0.4824  1.6929
 5974TIP3   OH239412   2.435   2.441  16.904 -0.1907 -0.3097  0.0742
 5974TIP3    H139413   2.473   2.401  16.826  0.0549  0.3474 -0.1488
 5974TIP3    H239414   2.463   2.533  16.901 -1.6814  0.1773 -0.0366
 5975TIP3   OH239415   0.733   1.421  10.697 -0.5401  0.0730 -0.2011
 5975TIP3    H139416   0.667   1.482  10.666 -0.3200  0.3079 -0.2100
 5975TIP3    H239417   0.683   1.348  10.735 -0.7995  1.1316  1.5716
 5976TIP3   OH239418   1.198   5.389   3.479 -1.2386 -0.0598 -0.3458
 5976TIP3    H139419   1.160   5.474   3.455 -1.3342 -0.1317 -0.4552
 5976TIP3    H239420   1.292   5.402   3.473 -1.1850  0.5409  1.3931
 5977TIP3   OH239421   2.468   5.098  12.881 -0.0595 -0.1214  0.3851
 5977TIP3    H139422   2.462   5.005  12.859 -0.0668 -0.2272  0.8170
 5977TIP3    H239423   2.520   5.136  12.811 -1.1252 -0.2088 -0.4777
 5978TIP3   OH239424   3.542   5.475  14.366 -0.0422 -0.4412 -0.5419
 5978TIP3    H139425   3.482   5.427  14.423  1.7046 -1.5938  0.4009
 5978TIP3    H239426   3.541   5.564  14.401  0.0318 -0.8387  0.5213
 5979TIP3   OH239427   0.696   4.383  15.795 -0.6099  0.3371 -0.0381
 5979TIP3    H139428   0.688   4.293  15.828  0.6441 -0.4468 -1.7271
 5979TIP3    H239429   0.755   4.376  15.720 -0.6342  2.5626 -0.3301
 5980TIP3   OH239430   0.103   1.382   2.508  0.7841 -0.7977  0.1362
 5980TIP3    H139431   0.057   1.377   2.424 -0.4923  0.0037  0.7654
 5980TIP3    H239432   0.049   1.439   2.562  0.4556 -2.9674  2.2563
 5981TIP3   OH239433   1.731   4.199  14.957  0.5382  0.1926  0.1255
 5981TIP3    H139434   1.815   4.163  14.987  0.7686  1.6375  1.3020
 5981TIP3    H239435   1.724   4.284  15.001 -1.9975 -0.3030  0.8356
 5982TIP3   OH239436   0.181   4.619  13.758  0.0359 -0.6120 -0.1764
 5982TIP3    H139437   0.136   4.543  13.721 -0.9449 -1.6366  2.8155
 5982TIP3    H239438   0.153   4.692  13.703 -0.3569 -2.1232 -2.1003
 5983TIP3   OH239439   5.338   3.499  15.735 -0.2211 -0.3181 -0.0226
 5983TIP3    H139440   5.376   3.545  15.809 -0.7029  0.8453 -0.4857
 5983TIP3    H239441   5.295   3.422  15.773 -0.2532  0.1397  0.8638
 5984TIP3   OH239442   2.243   3.755   0.330  0.2002 -0.0914 -0.4579
 5984TIP3    H139443   2.334   3.731   0.351  0.0699  0.1349  0.4297
 5984TIP3    H239444   2.250   3.810   0.252  0.7626 -0.6387 -0.8011
 5985TIP3   OH239445   0.786   1.752  13.054  0.2937 -0.1741 -0.2323
 5985TIP3    H139446   0.708   1.722  13.007  1.4423 -2.3290 -0.9131
 5985TIP3    H239447   0.785   1.703  13.137  1.0797 -0.5258 -0.4139
 5986TIP3   OH239448   3.800   4.930  11.248  0.0812  0.3187  0.2998
 5986TIP3    H139449   3.721   4.905  11.296 -0.6019 -0.4094 -1.1203
 5986TIP3    H239450   3.774   5.008  11.198  0.1802 -0.0223 -0.3023
 5987TIP3   OH239451   3.462   6.317   5.001  0.1995  0.2347 -0.0259
 5987TIP3    H139452   3.512   6.243   4.968  0.2138  0.0855  0.3337
 5987TIP3    H239453   3.520   6.393   4.989  0.2905  0.1479 -0.1321
 5988TIP3   OH239454   6.268   4.001  14.376  0.3155  0.4097  0.1117
 5988TIP3    H139455   6.239   3.979  14.465 -2.6652 -1.3712 -1.1438
 5988TIP3    H239456   6.322   3.926  14.350 -1.7829 -0.9103 -0.7283
 5989TIP3   OH239457   3.826   4.004  11.436 -0.3359  0.1176 -0.6864
 5989TIP3    H139458   3.781   3.921  11.420 -0.3238 -0.2522  1.0648
 5989TIP3    H239459   3.852   4.034  11.349  1.9665 -2.9803 -1.2373
 5990TIP3   OH239460   6.252   5.188   5.722  0.5736 -0.3649 -0.1579
 5990TIP3    H139461   6.204   5.177   5.640 -1.1193  1.5627  0.4861
 5990TIP3    H239462   6.186   5.213   5.785  2.0844 -0.2082  1.4399
 5991TIP3   OH239463   3.497   0.199  14.414 -0.4312 -0.4316 -0.6408
 5991TIP3    H139464   3.551   0.277  14.425 -1.1790  0.0341 -0.1710
 5991TIP3    H239465   3.559   0.130  14.390  0.1457  0.4583 -1.8135
 5992TIP3   OH239466   6.433   5.462   6.437 -0.1895 -0.0946 -0.2827
 5992TIP3    H139467   6.409   5.462   6.530  0.2134 -0.0618 -0.1795
 5992TIP3    H239468   6.358   5.503   6.393 -0.5446 -0.4493 -0.0153
 5993TIP3   OH239469   1.988   1.951  15.154  0.2771  0.0240 -0.1243
 5993TIP3    H139470   2.013   2.039  15.124 -1.0650  0.6034  0.3957
 5993TIP3    H239471   1.895   1.958  15.176  0.6267 -0.9700  1.9406
 5994TIP3   OH239472   4.547   0.479  13.343  0.1081 -0.4556  0.1569
 5994TIP3    H139473   4.464   0.453  13.384 -1.2051  1.1844 -1.2991
 5994TIP3    H239474   4.612   0.422  13.383 -1.7674 -2.0521  1.1233
 5995TIP3   OH239475   1.096   0.125  12.644 -0.6898 -0.0090  0.0653
 5995TIP3    H139476   1.175   0.178  12.639 -1.4306  1.1113 -0.1565
 5995TIP3    H239477   1.039   0.173  12.704 -1.2419 -0.7543  0.1522
 5996TIP3   OH239478   5.389   6.209   0.856  0.0858  0.2833 -0.7368
 5996TIP3    H139479   5.339   6.134   0.826 -0.4648  1.1500 -2.0476
 5996TIP3    H239480   5.327   6.282   0.854  0.6575  0.8289  0.3473
 5997TIP3   OH239481   6.460   3.059  12.205  0.5385  0.3379  0.4190
 5997TIP3    H139482   6.384   3.084  12.258  0.6656  1.0367  0.2678
 5997TIP3    H239483   6.512   3.138  12.198  1.5990 -0.2745  1.0159
 5998TIP3   OH239484   5.148   5.714  12.982 -0.4576 -0.4830 -0.1147
 5998TIP3    H139485   5.236   5.690  13.012 -1.0103 -0.6740  1.4149
 5998TIP3    H239486   5.158   5.727  12.887  1.0792 -1.1067 -0.0657
 5999TIP3   OH239487   2.072   1.572  16.189 -0.1749 -0.7001  0.3593
 5999TIP3    H139488   1.988   1.615  16.171  0.7573  0.7167 -0.9098
 5999TIP3    H239489   2.087   1.587  16.282 -0.3441  0.9537  0.1547
 6000TIP3   OH239490   2.128   0.503   3.579  0.2077 -0.0903  1.1248
 6000TIP3    H139491   2.094   0.590   3.560  2.3964  0.5403 -0.2750
 6000TIP3    H239492   2.223   0.514   3.580  0.5836 -2.6349 -0.0748
 6001TIP3   OH239493   1.653   3.821  14.095 -0.3681 -0.7025 -0.0586
 6001TIP3    H139494   1.740   3.805  14.060 -1.1529 -1.7557 -1.6421
 6001TIP3    H239495   1.663   3.807  14.189  0.8515 -2.3983 -0.3838
 6002TIP3   OH239496   0.960   2.729  14.011 -0.1854 -0.3957  0.3109
 6002TIP3    H139497   0.899   2.684  13.952 -0.8745 -0.7466  1.2681
 6002TIP3    H239498   0.916   2.811  14.032 -0.3630 -0.6723  1.0440
 6003TIP3   OH239499   4.096   2.727   3.841  0.0288  0.5939  0.3029
 6003TIP3    H139500   4.138   2.812   3.825  0.6119  0.2384 -0.0685
 6003TIP3    H239501   4.010   2.750   3.877 -0.0511  1.3547 -0.3296
 6004TIP3   OH239502   0.839   1.068  13.664  0.3670  0.1505  0.4958
 6004TIP3    H139503   0.887   1.010  13.604 -0.7916  1.0289 -1.3740
 6004TIP3    H239504   0.860   1.156  13.634 -1.6091  0.5697  0.2560
 6005TIP3   OH239505   5.426   5.211  13.532 -0.5844 -0.1980 -0.0235
 6005TIP3    H139506   5.344   5.260  13.533  0.8710  2.5039  2.3946
 6005TIP3    H239507   5.471   5.240  13.453  0.0773  2.2332  1.1697
 6006TIP3   OH239508   0.873   2.091   0.436 -0.2896 -0.2637 -0.0010
 6006TIP3    H139509   0.828   2.146   0.500  0.7258  1.8581 -1.0241
 6006TIP3    H239510   0.821   2.101   0.356 -0.6000 -1.5600  0.0163
 6007TIP3   OH239511   4.635   6.623   0.467  0.3989  0.3336  0.1665
 6007TIP3    H139512   4.631   6.537   0.509 -1.0841  0.5679  0.5584
 6007TIP3    H239513   4.729   6.640   0.456  0.7279 -1.9207 -1.1614
 6008TIP3   OH239514   4.213   2.329  12.779  0.2339 -0.1171 -0.0309
 6008TIP3    H139515   4.130   2.291  12.808 -0.0919 -0.0160 -0.8209
 6008TIP3    H239516   4.241   2.383  12.853  0.2553 -1.1559  0.7503
 6009TIP3   OH239517   5.025   6.487  11.767 -0.1238  0.0192 -1.1150
 6009TIP3    H139518   4.936   6.516  11.787  0.1330  1.0212 -1.4061
 6009TIP3    H239519   5.079   6.525  11.836  0.0065 -1.1465 -0.5460
 6010TIP3   OH239520   1.389   5.968  14.281  0.2771  0.5047 -0.6491
 6010TIP3    H139521   1.312   6.004  14.326 -1.1777  0.7722 -3.1412
 6010TIP3    H239522   1.400   5.881  14.320 -0.6460  0.8627  0.4863
 6011TIP3   OH239523   5.028   0.479   0.866 -0.3271 -0.1623  0.0002
 6011TIP3    H139524   5.011   0.413   0.934  0.5791 -1.0404 -0.6024
 6011TIP3    H239525   5.035   0.429   0.785  2.9633  0.3026 -0.1266
 6012TIP3   OH239526   0.323   5.191  12.432 -0.3147 -0.0653  0.1315
 6012TIP3    H139527   0.302   5.098  12.421  0.9810 -0.4681  0.8955
 6012TIP3    H239528   0.297   5.231  12.350 -1.7762 -0.9308  0.1303
 6013TIP3   OH239529   0.937   2.093  13.430  0.2332  0.3004 -0.0840
 6013TIP3    H139530   0.935   2.188  13.436  0.1707  0.4204 -1.7261
 6013TIP3    H239531   0.857   2.065  13.475 -0.7809  1.1415 -1.3047
 6014TIP3   OH239532   1.854   1.912  14.132 -0.9066 -0.5962  0.0047
 6014TIP3    H139533   1.807   1.830  14.115 -0.7354 -0.7035  0.0501
 6014TIP3    H239534   1.937   1.902  14.085 -1.0183 -0.3202 -0.2472
 6015TIP3   OH239535   3.016   3.462   5.565 -0.0075  0.2327 -0.9909
 6015TIP3    H139536   3.045   3.514   5.489  2.1592 -0.3797 -0.6539
 6015TIP3    H239537   3.035   3.372   5.541  1.3725  0.0723  0.4832
 6016TIP3   OH239538   6.468   1.631  14.499 -0.4517 -0.1893  0.0747
 6016TIP3    H139539   6.535   1.668  14.441  0.7990 -0.7177  1.1229
 6016TIP3    H239540   6.399   1.697  14.501 -0.2157  0.1443 -1.4500
 6017TIP3   OH239541   1.412   6.543   2.433 -0.2649  0.2065  0.1488
 6017TIP3    H139542   1.480   6.538   2.501  1.3008 -1.3847 -1.4157
 6017TIP3    H239543   1.330   6.535   2.481  0.5885  1.9522  2.1083
 6018TIP3   OH239544   3.935   5.605  13.769 -0.2493  0.5188  0.0859
 6018TIP3    H139545   3.940   5.691  13.728 -2.0751 -0.1976 -1.8446
 6018TIP3    H239546   3.942   5.544  13.696 -1.9043 -0.8954  1.0295
 6019TIP3   OH239547   1.111   3.137   4.453  0.5912 -0.0078 -0.7419
 6019TIP3    H139548   1.149   3.067   4.506  0.1659  1.4796  1.6546
 6019TIP3    H239549   1.028   3.158   4.496  0.9323  2.2985 -1.0775
 6020TIP3   OH239550   5.107   2.452   1.714  0.0242  0.0939  1.0440
 6020TIP3    H139551   5.031   2.468   1.658  0.0186 -1.0023  0.7280
 6020TIP3    H239552   5.081   2.379   1.770  0.4862  0.3714  1.6404
 6021TIP3   OH239553   6.210   1.540  11.538  0.1244  0.6328 -0.1040
 6021TIP3    H139554   6.257   1.609  11.491  0.7264  0.1420 -0.2508
 6021TIP3    H239555   6.254   1.459  11.511 -2.9391 -0.2856 -2.9615
 6022TIP3   OH239556   3.686   0.609   2.691 -0.2203  0.0161 -0.0516
 6022TIP3    H139557   3.728   0.688   2.657 -0.0924 -0.4512 -0.9973
 6022TIP3    H239558   3.594   0.634   2.703 -0.0439  0.5055  0.2995
 6023TIP3   OH239559   1.944   1.818   5.274  0.4946  0.0251  0.1785
 6023TIP3    H139560   1.863   1.850   5.232  0.1592 -2.1653 -0.9795
 6023TIP3    H239561   2.014   1.847   5.215  0.5265  1.1907  0.7457
 6024TIP3   OH239562   2.843   6.175  14.779 -0.4086  0.2522  0.1608
 6024TIP3    H139563   2.773   6.110  14.779 -0.1580 -0.0266 -0.3204
 6024TIP3    H239564   2.834   6.220  14.696  1.4775 -1.4583 -1.0666
 6025TIP3   OH239565   2.937   5.553  14.796  0.8436 -0.2140 -0.3785
 6025TIP3    H139566   2.917   5.492  14.866  2.9078  0.1744  0.6254
 6025TIP3    H239567   2.854   5.565  14.749  0.0690 -2.6443  0.2554
 6026TIP3   OH239568   5.949   2.772  13.324  0.2042  0.0050 -0.0257
 6026TIP3    H139569   5.873   2.801  13.373 -0.0808 -0.5228 -0.1480
 6026TIP3    H239570   5.915   2.707  13.263  0.2394  1.7901 -2.0879
 6027TIP3   OH239571   0.168   3.106   3.966  0.2284 -0.2369  0.4602
 6027TIP3    H139572   0.155   3.194   4.002 -0.2988  0.0170 -0.3125
 6027TIP3    H239573   0.080   3.074   3.949  0.3918 -1.2145  1.3983
 6028TIP3   OH239574   4.926   0.818   6.191  0.4272  0.0953  0.2004
 6028TIP3    H139575   5.015   0.823   6.226  0.7933  1.9244 -0.8942
 6028TIP3    H239576   4.870   0.815   6.269  1.3948 -0.6766  0.9008
 6029TIP3   OH239577   6.720   1.742  11.785  0.5971  0.0532 -0.1284
 6029TIP3    H139578   6.783   1.697  11.729  0.4619  0.1949 -0.3952
 6029TIP3    H239579   6.689   1.674  11.845 -0.6467 -0.5667 -1.4392
 6030TIP3   OH239580   6.389   1.904   3.986  0.6130  0.7405  0.3714
 6030TIP3    H139581   6.467   1.952   3.956  0.9673 -1.4478 -2.6192
 6030TIP3    H239582   6.424   1.823   4.024 -0.1245 -0.4043 -1.2793
 6031TIP3   OH239583   0.884   0.299  12.701  0.4830 -0.2253 -0.0440
 6031TIP3    H139584   0.906   0.362  12.769 -2.2923 -0.1812  0.9218
 6031TIP3    H239585   0.866   0.353  12.624  1.4000 -0.1206 -0.1997
 6032TIP3   OH239586   5.443   5.719  13.459 -0.5996  0.2834 -0.2890
 6032TIP3    H139587   5.369   5.755  13.508  0.2966  0.9388  0.6174
 6032TIP3    H239588   5.453   5.630  13.494  1.5011  1.4861  2.5621
 6033TIP3   OH239589   3.802   5.968   4.864  0.1591  0.2754  0.1610
 6033TIP3    H139590   3.794   5.881   4.825 -0.1622 -0.0715  0.9710
 6033TIP3    H239591   3.880   5.962   4.919 -1.0247 -0.1840  1.8730
 6034TIP3   OH239592   3.509   4.715  11.525 -0.4328  0.9556  0.1797
 6034TIP3    H139593   3.535   4.806  11.513 -3.4758  1.9728  0.5995
 6034TIP3    H239594   3.549   4.689  11.608  1.3601  1.4732 -0.4671
 6035TIP3   OH239595   4.212   5.472   5.333  0.3615  0.5032  0.0814
 6035TIP3    H139596   4.305   5.465   5.352  0.6573  1.9165 -0.7345
 6035TIP3    H239597   4.170   5.477   5.419  1.4723  4.3527  0.5859
 6036TIP3   OH239598   0.330   2.550  16.389  0.6385 -0.4658  0.0556
 6036TIP3    H139599   0.397   2.618  16.386 -0.3454  0.5411 -0.3422
 6036TIP3    H239600   0.336   2.506  16.304  0.1461  0.3157 -0.4050
 6037TIP3   OH239601   5.876   1.745   4.530 -0.5448  0.0005 -0.0419
 6037TIP3    H139602   5.831   1.748   4.445  0.2677  1.5532 -0.4462
 6037TIP3    H239603   5.944   1.678   4.518 -1.0734 -0.4967 -0.2865
 6038TIP3   OH239604   2.761   0.295   5.775  0.0254  0.0390  0.2831
 6038TIP3    H139605   2.730   0.287   5.865  3.1988 -0.9219  1.4068
 6038TIP3    H239606   2.782   0.205   5.749  0.0456  0.4208 -1.1048
 6039TIP3   OH239607   3.537   3.390   2.545 -0.3292 -0.5106 -0.1424
 6039TIP3    H139608   3.549   3.336   2.622 -1.2215 -1.3295 -0.5549
 6039TIP3    H239609   3.512   3.328   2.476 -0.7221  0.3387 -0.7827
 6040TIP3   OH239610   0.960   5.140  12.892 -0.2482 -0.4902  0.3698
 6040TIP3    H139611   0.904   5.188  12.831 -0.8498  1.1813  2.1397
 6040TIP3    H239612   0.919   5.053  12.900 -0.6370 -0.4411 -0.9067
 6041TIP3   OH239613   2.514   1.457  12.297 -0.0694  0.3847 -0.1719
 6041TIP3    H139614   2.563   1.482  12.218 -0.1629 -0.8755 -0.6539
 6041TIP3    H239615   2.575   1.474  12.369  1.2702 -1.4863 -0.7858
 6042TIP3   OH239616   5.205   3.288  14.140  0.3909 -0.1792  0.2908
 6042TIP3    H139617   5.118   3.303  14.102  2.0359  1.5009 -3.3448
 6042TIP3    H239618   5.215   3.193  14.140  0.0544 -0.3856 -3.5801
 6043TIP3   OH239619   3.828   3.488  16.193  0.5621 -0.9210 -0.0080
 6043TIP3    H139620   3.869   3.431  16.258  3.0346 -1.0772 -1.5548
 6043TIP3    H239621   3.764   3.432  16.149  0.0166 -1.2627  1.1726
 6044TIP3   OH239622   6.361   4.555   4.152 -0.0899 -0.3028 -0.2835
 6044TIP3    H139623   6.397   4.479   4.198  1.8944  1.6863  1.6461
 6044TIP3    H239624   6.322   4.608   4.221  2.1789  2.3426 -0.8712
 6045TIP3   OH239625   0.086   3.465  15.376  0.0551 -0.3211 -0.0865
 6045TIP3    H139626   0.124   3.393  15.327  1.7829 -0.9531  2.0449
 6045TIP3    H239627   0.112   3.544  15.328  0.5668 -0.9673 -0.8857
 6046TIP3   OH239628   2.455   4.582  12.008  0.3588  0.7444  0.0820
 6046TIP3    H139629   2.483   4.490  12.004 -1.6943  0.0765 -0.7254
 6046TIP3    H239630   2.508   4.621  12.077  0.2454 -1.4641  1.5123
 6047TIP3   OH239631   3.475   1.306   3.839  0.2606 -0.1177  0.3559
 6047TIP3    H139632   3.511   1.382   3.793  2.1708 -0.1375  1.6863
 6047TIP3    H239633   3.419   1.263   3.775  3.2762 -0.5331 -2.2350
 6048TIP3   OH239634   5.903   3.847   1.323  0.3424  0.2737  0.2142
 6048TIP3    H139635   5.907   3.861   1.229 -2.6645  1.4255  0.1484
 6048TIP3    H239636   5.927   3.755   1.336 -0.4826 -0.2730 -1.8395
 6049TIP3   OH239637   4.872   0.097  13.126 -0.0906  0.2198 -0.3298
 6049TIP3    H139638   4.939   0.130  13.187  0.7516 -1.6976 -0.1398
 6049TIP3    H239639   4.811   0.048  13.182 -0.0791 -0.3965 -0.8439
 6050TIP3   OH239640   2.655   1.839   0.576 -0.5565 -0.0359  0.3232
 6050TIP3    H139641   2.723   1.894   0.614 -1.2013  1.1223 -0.1258
 6050TIP3    H239642   2.596   1.819   0.649 -1.1089  1.1248  0.2226
 6051TIP3   OH239643   4.227   2.743  15.504 -0.1989 -0.0859 -0.0410
 6051TIP3    H139644   4.261   2.670  15.555 -2.0916  0.0980  1.5955
 6051TIP3    H239645   4.257   2.726  15.415  1.4609 -1.5244  0.7344
 6052TIP3   OH239646   5.463   6.734   6.863 -0.4767  0.0642 -0.1936
 6052TIP3    H139647   5.381   6.748   6.816  0.2607 -1.1404 -1.9306
 6052TIP3    H239648   5.445   6.660   6.921 -0.9019  0.4762  0.2109
 6053TIP3   OH239649   2.903   6.021   0.232  0.1411 -0.5100 -0.2951
 6053TIP3    H139650   2.893   6.099   0.286  0.9847  0.8290 -1.9367
 6053TIP3    H239651   2.821   6.014   0.184 -0.3342 -1.2711  0.6153
 6054TIP3   OH239652   4.478   3.025  14.871  0.0529  0.5273  0.3550
 6054TIP3    H139653   4.413   3.001  14.806  0.2173  0.9179  0.0378
 6054TIP3    H239654   4.429   3.074  14.937 -0.0047  0.6806  0.1994
 6055TIP3   OH239655   5.155   3.039  15.226 -0.3897  0.2435  0.3664
 6055TIP3    H139656   5.221   2.977  15.196  0.6031  0.8805  1.1554
 6055TIP3    H239657   5.074   2.987  15.231  0.3143 -0.8777  0.5803
 6056TIP3   OH239658   1.980   3.373   4.984 -0.1578 -0.0388 -0.0521
 6056TIP3    H139659   2.032   3.339   5.057 -1.7283 -0.1579  1.0607
 6056TIP3    H239660   1.923   3.300   4.959  0.4555 -0.0392 -1.5178
 6057TIP3   OH239661   5.120   1.504   1.429  0.4277  0.0291  0.1875
 6057TIP3    H139662   5.098   1.583   1.379  0.7657  0.6806  1.0268
 6057TIP3    H239663   5.207   1.479   1.398 -0.2754 -0.9001 -1.1291
 6058TIP3   OH239664   2.669   1.094  13.494  0.3123 -0.5098  0.5594
 6058TIP3    H139665   2.729   1.132  13.558  0.7832  0.6044 -0.5108
 6058TIP3    H239666   2.678   0.999  13.507  1.5148 -0.3361  1.1381
 6059TIP3   OH239667   3.218   6.696  12.992  0.0409  0.5960  0.2793
 6059TIP3    H139668   3.173   6.754  13.054 -0.5364 -0.2887  0.7020
 6059TIP3    H239669   3.216   6.744  12.909  0.7086  1.7428  0.8904
 6060TIP3   OH239670   6.463   6.136   5.125  0.1497  0.0926  0.3321
 6060TIP3    H139671   6.555   6.144   5.153  0.1040 -0.0437  0.5269
 6060TIP3    H239672   6.418   6.104   5.203 -0.2461  1.1487  0.5459
 6061TIP3   OH239673   3.213   4.162   1.602 -0.3055 -0.2315  0.2556
 6061TIP3    H139674   3.205   4.070   1.573  0.1438 -0.4941  0.9556
 6061TIP3    H239675   3.307   4.176   1.613 -0.3583  0.3760 -0.0258
 6062TIP3   OH239676   2.105   6.100  14.248  0.3169 -0.1852 -0.4497
 6062TIP3    H139677   2.045   6.107  14.323  0.4552 -1.2081 -0.2332
 6062TIP3    H239678   2.049   6.107  14.171 -0.1382 -1.4197 -0.2508
 6063TIP3   OH239679   3.214   6.047  11.075 -0.5243  0.2624  0.1197
 6063TIP3    H139680   3.148   6.009  11.016 -2.0855  0.9782  1.3133
 6063TIP3    H239681   3.295   6.044  11.025 -1.5721 -0.1080 -1.6729
 6064TIP3   OH239682   5.598   0.706  14.648 -0.1839  0.7008 -0.5253
 6064TIP3    H139683   5.574   0.789  14.688  1.6577  0.2760  1.6462
 6064TIP3    H239684   5.572   0.640  14.713 -0.8545 -0.3871 -1.8436
 6065TIP3   OH239685   0.482   0.812  14.703  0.1808 -0.4026 -0.0676
 6065TIP3    H139686   0.558   0.868  14.714  0.5558 -1.2485  2.1831
 6065TIP3    H239687   0.419   0.844  14.767 -1.7661  0.7886 -2.4087
 6066TIP3   OH239688   2.799   2.801  14.833  0.2810 -0.3911 -0.5714
 6066TIP3    H139689   2.746   2.813  14.754  2.7491 -1.8924 -2.5972
 6066TIP3    H239690   2.842   2.717  14.821  1.2068 -0.4052  2.1645
 6067TIP3   OH239691   3.164   2.106  16.421  0.1572  0.0170  0.4895
 6067TIP3    H139692   3.257   2.085  16.435  0.3747  1.5112  1.5844
 6067TIP3    H239693   3.126   2.025  16.386  2.3602  0.1152 -2.5323
 6068TIP3   OH239694   0.218   5.726  17.007 -0.0278  0.5517 -0.2465
 6068TIP3    H139695   0.155   5.684  16.949  0.4961 -1.6405  0.6802
 6068TIP3    H239696   0.300   5.680  16.991  0.8217  1.8622  0.1816
 6069TIP3   OH239697   6.812   2.252   5.284 -0.7081 -0.1927  0.2811
 6069TIP3    H139698   6.765   2.328   5.250 -0.7187 -0.6044 -0.6413
 6069TIP3    H239699   6.744   2.190   5.308 -0.6660 -0.7193 -0.8924
 6070TIP3   OH239700   6.701   3.329  14.269  0.3150  0.1355 -0.7996
 6070TIP3    H139701   6.645   3.260  14.304 -1.2045  1.5778 -0.2729
 6070TIP3    H239702   6.787   3.311  14.307 -0.1185 -1.2677 -0.4276
 6071TIP3   OH239703   1.933   4.293   4.260 -0.6835 -0.0973  0.0686
 6071TIP3    H139704   1.842   4.281   4.233 -0.7625 -1.0236  0.6761
 6071TIP3    H239705   1.951   4.386   4.246 -1.5565 -0.0170 -0.5599
 6072TIP3   OH239706   1.229   5.749   4.006  0.1392  0.1343 -0.7346
 6072TIP3    H139707   1.180   5.828   4.024 -1.1504 -0.7404 -0.2677
 6072TIP3    H239708   1.321   5.777   4.004 -0.2707  1.5693 -0.3138
 6073TIP3   OH239709   4.881   1.925  11.957 -0.3643 -0.2240  0.2367
 6073TIP3    H139710   4.957   1.881  11.996  1.5581  2.5523 -0.0945
 6073TIP3    H239711   4.811   1.860  11.962  1.6320 -2.4423  1.8521
 6074TIP3   OH239712   0.655   0.976  10.422  0.0574 -0.4379  0.5098
 6074TIP3    H139713   0.708   0.955  10.499  1.1843  0.1670 -0.0737
 6074TIP3    H239714   0.655   1.072  10.419 -0.4466 -0.4472  0.0702
 6075TIP3   OH239715   6.036   3.926   0.012 -0.9117  0.3170 -0.4303
 6075TIP3    H139716   6.105   3.946   0.075 -0.9491  0.1755 -0.3430
 6075TIP3    H239717   6.080   3.919  -0.072 -0.9681  1.2628 -0.5450
 6076TIP3   OH239718   0.904   4.764  16.815  0.4893  0.3588 -0.3148
 6076TIP3    H139719   0.955   4.821  16.758  1.6080  0.3748  0.6465
 6076TIP3    H239720   0.969   4.717  16.867 -0.4572  0.6505  1.2279
 6077TIP3   OH239721   0.423   1.794   3.088  0.1253 -0.0809 -0.0673
 6077TIP3    H139722   0.471   1.872   3.113  0.9182 -0.2438 -1.0146
 6077TIP3    H239723   0.352   1.826   3.033 -1.0137  0.1793  1.4931
 6078TIP3   OH239724   6.771   4.177  11.797 -0.2702 -0.6554  0.3323
 6078TIP3    H139725   6.824   4.195  11.719 -1.8162  0.4652 -0.5251
 6078TIP3    H239726   6.782   4.083  11.812 -0.9612 -1.2121 -2.0892
 6079TIP3   OH239727   6.359   1.937  15.823 -0.1447 -0.0398  0.3562
 6079TIP3    H139728   6.420   1.864  15.831  0.0064  0.0647  0.1343
 6079TIP3    H239729   6.276   1.901  15.854  0.0260 -0.1809  0.6560
 6080TIP3   OH239730   1.698   1.732   3.773 -0.1598 -0.0300 -0.4404
 6080TIP3    H139731   1.691   1.706   3.681  0.4662  1.3675 -0.9077
 6080TIP3    H239732   1.791   1.727   3.792 -0.2470  0.0517  0.0122
 6081TIP3   OH239733   5.534   1.549   1.820  0.0348 -0.3803 -0.9177
 6081TIP3    H139734   5.453   1.539   1.871 -0.2413  2.8010 -0.5751
 6081TIP3    H239735   5.527   1.483   1.751 -1.3627 -2.2443  0.8520
 6082TIP3   OH239736   0.565   2.301  13.340  0.1619 -0.1578  0.1860
 6082TIP3    H139737   0.529   2.212  13.328 -0.8576  0.3727 -0.9871
 6082TIP3    H239738   0.521   2.334  13.418 -1.5547  0.2768 -0.9158
 6083TIP3   OH239739   3.780   0.786  12.928 -0.1712 -0.0008 -0.0000
 6083TIP3    H139740   3.713   0.852  12.949  0.0606  0.5647 -1.0078
 6083TIP3    H239741   3.732   0.718  12.881 -0.2678 -0.1941  0.3754
 6084TIP3   OH239742   2.527   4.489  13.143  0.4467 -0.7500  0.3769
 6084TIP3    H139743   2.589   4.452  13.206  0.0553 -3.4151 -0.6848
 6084TIP3    H239744   2.552   4.450  13.059 -0.9089  0.3494 -0.5760
 6085TIP3   OH239745   2.129   2.294   5.155 -0.4727  0.0116 -0.0814
 6085TIP3    H139746   2.081   2.254   5.227  2.5660 -0.3440  1.9012
 6085TIP3    H239747   2.201   2.340   5.196  0.5990  1.0292 -2.8469
 6086TIP3   OH239748   6.271   0.358   6.001  0.1010 -0.3576 -0.4284
 6086TIP3    H139749   6.299   0.356   6.093  0.4082  2.0593 -0.3993
 6086TIP3    H239750   6.176   0.352   6.005  0.1274 -0.5517  0.0257
 6087TIP3   OH239751   2.340   3.080  16.104  0.0649  0.0057  0.0646
 6087TIP3    H139752   2.380   3.133  16.035 -0.9235 -0.2928 -0.7655
 6087TIP3    H239753   2.264   3.132  16.133 -0.3422 -0.5099 -0.0705
 6088TIP3   OH239754   5.788   6.293  16.810  0.2400  0.7544  0.3347
 6088TIP3    H139755   5.772   6.262  16.721  1.0436  0.6262  0.2214
 6088TIP3    H239756   5.830   6.379  16.798  0.7747  0.5331  0.5676
 6089TIP3   OH239757   2.048   0.296  12.157  0.1114  0.2936 -0.5161
 6089TIP3    H139758   1.971   0.260  12.114  1.0156 -0.5752 -1.4574
 6089TIP3    H239759   2.084   0.358  12.094  0.1330  0.7925 -0.0288
 6090TIP3   OH239760   2.520   6.808   2.699 -0.0326  0.0428  0.0040
 6090TIP3    H139761   2.462   6.828   2.626  0.2765 -0.8227 -0.4948
 6090TIP3    H239762   2.462   6.803   2.775 -0.2190  2.0201  0.0530
 6091TIP3   OH239763   2.000   2.360   4.750  0.9170 -0.0078  0.0286
 6091TIP3    H139764   1.937   2.422   4.787 -1.6658 -0.8219 -2.5484
 6091TIP3    H239765   1.968   2.274   4.778  0.6264 -0.4533 -1.5436
 6092TIP3   OH239766   0.413   1.012   2.689 -0.0327 -0.2365 -0.0231
 6092TIP3    H139767   0.323   0.990   2.714 -0.7724 -2.4976 -3.9814
 6092TIP3    H239768   0.461   0.930   2.695  0.7980  0.1008 -1.5083
 6093TIP3   OH239769   6.357   3.292   1.751  0.3300 -0.2338  0.4907
 6093TIP3    H139770   6.404   3.280   1.668 -0.0663 -2.0452  0.5037
 6093TIP3    H239771   6.392   3.225   1.809 -1.0465 -0.4995  1.0543
 6094TIP3   OH239772   0.562   2.829   0.734 -0.4496  0.0204 -0.4175
 6094TIP3    H139773   0.498   2.774   0.689 -2.0839 -1.0478  2.8785
 6094TIP3    H239774   0.602   2.772   0.799  1.1904  1.6431  0.0847
 6095TIP3   OH239775   0.180   6.593  17.087  0.2884  0.0904  0.0509
 6095TIP3    H139776   0.246   6.561  17.024  1.1128  1.3910  0.2168
 6095TIP3    H239777   0.221   6.579  17.172 -0.6229 -1.2063  0.2963
 6096TIP3   OH239778   6.726   4.525  12.347  0.4402 -0.1686 -0.7029
 6096TIP3    H139779   6.742   4.539  12.441 -0.6537  0.3029 -0.5670
 6096TIP3    H239780   6.807   4.553  12.304  1.3882 -1.4457  0.1654
 6097TIP3   OH239781   3.469   1.129   5.900  0.0519  0.3434 -0.5568
 6097TIP3    H139782   3.532   1.157   5.967  0.7211 -0.7778 -0.6937
 6097TIP3    H239783   3.521   1.123   5.820 -0.5342  0.7086 -0.9768
 6098TIP3   OH239784   3.813   3.263   4.380 -0.0112  0.0864 -0.3162
 6098TIP3    H139785   3.872   3.222   4.443 -0.9297 -1.6924 -0.5522
 6098TIP3    H239786   3.858   3.344   4.354  1.0349  0.1600  1.5275
 6099TIP3   OH239787   3.700   6.022   3.996  0.2051 -0.0048  0.1705
 6099TIP3    H139788   3.688   6.092   4.059 -0.0526  1.0424 -1.0009
 6099TIP3    H239789   3.613   6.011   3.955  0.6283  0.1398 -0.7981
 6100TIP3   OH239790   4.146   6.728  10.511 -0.0227  0.2474  0.3245
 6100TIP3    H139791   4.204   6.761  10.580  0.3293  0.0003  0.1516
 6100TIP3    H239792   4.064   6.775  10.525  0.5264  1.3533 -0.0427
 6101TIP3   OH239793   0.227   0.536  14.532  0.0623 -0.2458 -0.0990
 6101TIP3    H139794   0.253   0.447  14.506 -0.0333 -0.2726 -0.1028
 6101TIP3    H239795   0.291   0.593  14.489  0.7876 -0.3714  0.7873
 6102TIP3   OH239796   0.337   0.534   0.748  0.1984 -0.7094  0.2445
 6102TIP3    H139797   0.337   0.567   0.658  0.4551 -0.1953  0.4281
 6102TIP3    H239798   0.426   0.547   0.779 -0.3171  0.8793  1.1907
 6103TIP3   OH239799   3.828   0.047  15.865 -0.5160  0.8324 -0.2047
 6103TIP3    H139800   3.923   0.051  15.875 -0.6225  2.4416  0.5531
 6103TIP3    H239801   3.795   0.111  15.928 -2.1419 -0.1218 -0.0331
 6104TIP3   OH239802   3.421   5.778  15.216 -0.4677 -0.0902  0.0936
 6104TIP3    H139803   3.353   5.841  15.194 -0.2323 -0.5271 -2.0947
 6104TIP3    H239804   3.376   5.694  15.222 -0.1264 -0.4599 -1.8289
 6105TIP3   OH239805   6.142   1.139  12.401 -0.1091 -0.2094  0.0369
 6105TIP3    H139806   6.134   1.220  12.452  0.5774 -0.7225  0.9932
 6105TIP3    H239807   6.230   1.142  12.365  0.6096 -1.3405  1.5752
 6106TIP3   OH239808   1.031   1.603  15.463 -0.1404  0.1246  0.2932
 6106TIP3    H139809   1.086   1.662  15.411 -1.3654 -0.7694 -2.1556
 6106TIP3    H239810   0.972   1.662  15.511  1.6890  1.0086  1.5970
 6107TIP3   OH239811   0.111   5.019  14.689  0.0639  0.1759 -0.3359
 6107TIP3    H139812   0.021   5.029  14.658 -0.1614  2.0500  0.7646
 6107TIP3    H239813   0.146   4.946  14.638 -0.8676  1.7933 -3.5463
 6108TIP3   OH239814   1.914   4.205   1.395  0.2193 -0.2048  0.4238
 6108TIP3    H139815   1.993   4.176   1.349  0.3968 -0.6209  0.9761
 6108TIP3    H239816   1.856   4.236   1.326  0.2026 -1.4454 -0.1539
 6109TIP3   OH239817   0.826   6.180   4.865  0.4043  0.1169  0.4106
 6109TIP3    H139818   0.922   6.183   4.870  0.3944 -0.1792  0.8302
 6109TIP3    H239819   0.806   6.087   4.854  0.0891 -0.0542  2.1624
 6110TIP3   OH239820   6.004   2.247   5.394  0.4368 -0.8457 -0.0622
 6110TIP3    H139821   5.908   2.244   5.390  0.4628 -1.6529 -0.0831
 6110TIP3    H239822   6.031   2.266   5.305  0.2637  0.4660  0.1438
 6111TIP3   OH239823   1.294   3.200   0.759 -0.1512 -0.6348 -0.0609
 6111TIP3    H139824   1.353   3.257   0.710 -0.6114  0.7945  0.9670
 6111TIP3    H239825   1.225   3.178   0.697  0.2659 -0.4287 -0.6045
 6112TIP3   OH239826   3.640   3.758   6.162 -0.3896 -0.1565  0.1697
 6112TIP3    H139827   3.552   3.732   6.135  0.1854 -2.5302  0.3959
 6112TIP3    H239828   3.647   3.730   6.253 -0.6834  3.5863  1.5245
 6113TIP3   OH239829   1.426   1.139   5.117  0.2206 -0.4622  0.6350
 6113TIP3    H139830   1.420   1.235   5.111  1.5565 -0.4013  0.0626
 6113TIP3    H239831   1.384   1.118   5.200 -1.6588  0.4409 -0.0088
 6114TIP3   OH239832   5.791   6.237  13.218  0.0306 -0.2953 -0.1135
 6114TIP3    H139833   5.817   6.327  13.233 -0.3417 -0.4285  1.6257
 6114TIP3    H239834   5.859   6.201  13.161  0.1213  1.0831 -0.9220
 6115TIP3   OH239835   0.504   3.091  12.734 -0.1071  0.1247 -0.1174
 6115TIP3    H139836   0.409   3.102  12.740 -0.5670 -2.0970 -1.6974
 6115TIP3    H239837   0.518   3.000  12.760  1.0773 -0.7305 -3.3159
 6116TIP3   OH239838   4.270   1.026  15.254 -0.5123  0.0699 -0.3264
 6116TIP3    H139839   4.311   1.044  15.338 -0.6235 -1.8475  0.1797
 6116TIP3    H239840   4.176   1.034  15.270 -0.5054  0.5894 -0.5113
 6117TIP3   OH239841   3.646   0.646  16.577  0.0860 -0.0382 -0.5147
 6117TIP3    H139842   3.732   0.679  16.603  0.3763 -0.5725 -0.7958
 6117TIP3    H239843   3.585   0.712  16.609  0.4259 -0.6541  1.5810
 6118TIP3   OH239844   4.958   0.004  11.496  0.0235  0.1826  0.2443
 6118TIP3    H139845   4.971   0.019  11.402  0.0348 -1.4862 -0.0428
 6118TIP3    H239846   4.891   0.069  11.521 -0.7863 -0.0620 -1.1525
 6119TIP3   OH239847   0.975   2.618   0.517 -0.0968  0.3072  0.3951
 6119TIP3    H139848   0.981   2.614   0.421 -2.4233  0.2214  0.1904
 6119TIP3    H239849   0.883   2.601   0.536  0.7359 -2.3824  2.8220
 6120TIP3   OH239850   1.763   2.319   5.985 -0.0086 -0.4267  0.0944
 6120TIP3    H139851   1.828   2.251   5.998  0.5819 -0.1044 -1.0327
 6120TIP3    H239852   1.752   2.324   5.890  1.6568  2.5789 -0.0561
 6121TIP3   OH239853   6.564   2.952   0.997  0.1071  0.2021  0.2312
 6121TIP3    H139854   6.645   2.991   0.962 -0.4035 -0.1258 -1.4050
 6121TIP3    H239855   6.496   3.016   0.976 -0.3400 -0.3841 -0.1181
 6122TIP3   OH239856   5.003   6.346   2.837  0.1291 -0.1157 -0.0601
 6122TIP3    H139857   5.037   6.340   2.747  3.4791  1.1001  1.0046
 6122TIP3    H239858   4.968   6.435   2.843  0.7831  0.1371  0.0887
 6123TIP3   OH239859   2.850   2.096   3.833  0.5757 -0.5249 -0.1923
 6123TIP3    H139860   2.917   2.060   3.890  0.6276 -1.9772 -1.1039
 6123TIP3    H239861   2.897   2.118   3.752  0.2317 -0.0301 -0.2612
 6124TIP3   OH239862   5.279   1.931   4.492  0.1502  0.3316 -0.7789
 6124TIP3    H139863   5.257   1.904   4.402  0.1624 -0.9024 -0.4265
 6124TIP3    H239864   5.351   1.874   4.518  2.0320  2.5250 -0.9322
 6125TIP3   OH239865   1.044   6.214   2.683 -0.2462 -0.4504 -0.2482
 6125TIP3    H139866   0.972   6.160   2.650 -0.7816  0.4735 -0.6578
 6125TIP3    H239867   1.020   6.232   2.774 -1.2961  1.0193 -0.7750
 6126TIP3   OH239868   6.496   3.084  15.535 -0.0877  0.0685  0.0731
 6126TIP3    H139869   6.506   3.168  15.491  0.3819 -0.3484 -0.6300
 6126TIP3    H239870   6.583   3.046  15.536 -0.3622 -0.5786  0.0489
 6127TIP3   OH239871   1.622   5.119  16.225 -0.1711 -0.1659  0.3676
 6127TIP3    H139872   1.568   5.195  16.249  0.7710 -0.0406  2.1990
 6127TIP3    H239873   1.673   5.149  16.150 -1.9213  0.0053 -0.8354
 6128TIP3   OH239874   0.230   4.901   3.551 -0.1122 -0.0792 -0.3425
 6128TIP3    H139875   0.283   4.969   3.591 -0.7915  0.2414  0.0300
 6128TIP3    H239876   0.157   4.888   3.612  1.0015 -2.5258  0.6057
 6129TIP3   OH239877   2.646   4.440  13.375 -0.4699 -0.1302  0.3986
 6129TIP3    H139878   2.602   4.424  13.459 -0.1133  0.9505  0.7937
 6129TIP3    H239879   2.735   4.407  13.388 -0.3263  0.3146  0.5461
 6130TIP3   OH239880   0.195   0.399  12.749 -0.7063 -0.2686 -0.1062
 6130TIP3    H139881   0.140   0.381  12.673  0.3167 -0.3402 -0.8435
 6130TIP3    H239882   0.144   0.461  12.801 -1.1007  0.3611 -1.2173
 6131TIP3   OH239883   4.774   3.841  14.850 -0.8837 -0.0476 -0.1119
 6131TIP3    H139884   4.781   3.933  14.825  0.3595  0.3553  1.6227
 6131TIP3    H239885   4.691   3.836  14.897  0.3731  0.8796  2.3658
 6132TIP3   OH239886   5.263   4.962   0.447 -0.0157  0.0362  0.1718
 6132TIP3    H139887   5.340   4.982   0.501 -0.2818  0.7668  0.2913
 6132TIP3    H239888   5.276   5.014   0.368  0.4820 -1.1987 -0.5870
 6133TIP3   OH239889   2.191   6.102   5.303 -0.0085 -0.5318 -0.2820
 6133TIP3    H139890   2.204   6.195   5.283  3.2991 -0.0475  2.9038
 6133TIP3    H239891   2.255   6.057   5.249  2.7712 -0.1045  2.3276
 6134TIP3   OH239892   2.578   3.519  13.338 -0.0822  0.7109  0.2398
 6134TIP3    H139893   2.487   3.549  13.336  0.2480  1.7125 -0.6321
 6134TIP3    H239894   2.581   3.447  13.276 -0.5825 -0.2969  1.3439
 6135TIP3   OH239895   4.008   3.848  11.812  0.3407 -0.0955 -0.4393
 6135TIP3    H139896   4.078   3.820  11.871 -0.1185  0.8929  0.6137
 6135TIP3    H239897   3.973   3.928  11.852 -0.2858  0.3596 -1.8219
 6136TIP3   OH239898   0.542   2.042  12.941  0.0651  0.1845 -0.2190
 6136TIP3    H139899   0.569   1.971  12.883 -1.0725 -0.7365  0.3342
 6136TIP3    H239900   0.600   2.035  13.017  1.3333  1.1846 -1.0473
 6137TIP3   OH239901   4.619   2.811   1.919  0.1759 -0.5814 -0.0964
 6137TIP3    H139902   4.625   2.740   1.854 -2.4612 -0.7708 -0.2601
 6137TIP3    H239903   4.585   2.768   1.997  1.1109  0.0666  0.6856
 6138TIP3   OH239904   3.626   0.957  11.750 -0.8799 -0.1353  0.4209
 6138TIP3    H139905   3.694   0.934  11.687 -0.5505  2.6198 -0.3836
 6138TIP3    H239906   3.547   0.969  11.697 -2.2070 -3.5629  1.3770
 6139TIP3   OH239907   4.495   5.778  12.095 -0.2312 -0.5327 -0.3790
 6139TIP3    H139908   4.541   5.709  12.144  1.7208  1.5376  0.8862
 6139TIP3    H239909   4.517   5.762  12.004 -1.0842 -2.4295 -0.3070
 6140TIP3   OH239910   6.058   0.621  15.503 -1.0003 -0.1619  0.1235
 6140TIP3    H139911   6.072   0.605  15.596  1.1596 -2.9978 -0.5767
 6140TIP3    H239912   5.982   0.568  15.480 -1.6986  0.7468  0.2830
 6141TIP3   OH239913   3.798   2.563  16.022  0.4843  0.0773 -0.2726
 6141TIP3    H139914   3.852   2.487  16.002  0.5897  0.7504 -2.8838
 6141TIP3    H239915   3.712   2.541  15.986  0.2973  0.8467 -0.3150
 6142TIP3   OH239916   4.147   5.747   1.463  0.4687  0.5576  0.1736
 6142TIP3    H139917   4.171   5.839   1.476  2.6736 -0.0399  0.7664
 6142TIP3    H239918   4.226   5.698   1.486 -0.5888 -1.4932 -0.3106
 6143TIP3   OH239919   6.624   2.854  12.352 -0.0508  0.0197 -0.1819
 6143TIP3    H139920   6.547   2.803  12.378  0.4050 -0.7387 -0.3095
 6143TIP3    H239921   6.592   2.911  12.282 -0.9563  1.0940  1.0693
 6144TIP3   OH239922   6.318   0.156   0.815  0.1559  0.1931 -0.1955
 6144TIP3    H139923   6.365   0.166   0.897  0.5457 -0.6241 -0.3033
 6144TIP3    H239924   6.345   0.069   0.783 -0.8568  0.0203 -0.6161
 6145TIP3   OH239925   2.280   3.866   4.449  0.4601 -0.1854 -0.4755
 6145TIP3    H139926   2.331   3.876   4.530  1.8851  0.4952 -1.4189
 6145TIP3    H239927   2.341   3.891   4.379 -1.0205  0.1420 -1.6966
 6146TIP3   OH239928   1.947   2.017  14.687  0.1840  0.2083  0.0972
 6146TIP3    H139929   1.896   1.939  14.669 -0.3510 -0.1140  2.5787
 6146TIP3    H239930   2.013   1.988  14.750 -0.1318  1.7347  1.1975
 6147TIP3   OH239931   0.324   2.096   0.802  0.0409  0.4930 -1.3157
 6147TIP3    H139932   0.310   2.168   0.741  0.5865  2.0913  0.3332
 6147TIP3    H239933   0.315   2.137   0.889  0.6392 -1.3770 -0.3250
 6148TIP3   OH239934   4.780   5.763  12.937 -0.2836  0.3139  0.0487
 6148TIP3    H139935   4.715   5.721  12.993 -2.5242  1.3775 -1.5914
 6148TIP3    H239936   4.736   5.775  12.853  1.3638  2.8326 -0.5901
 6149TIP3   OH239937   5.678   5.679  14.357 -0.3047 -0.0360 -0.1545
 6149TIP3    H139938   5.633   5.724  14.286 -0.9340 -0.0923  0.1913
 6149TIP3    H239939   5.766   5.717  14.359 -0.5857  0.6370 -0.3511
 6150TIP3   OH239940   3.261   2.274  16.133 -0.4645  0.3523  0.7027
 6150TIP3    H139941   3.325   2.217  16.090 -2.7141 -1.0717 -1.0071
 6150TIP3    H239942   3.254   2.238  16.222 -2.3269 -2.7367 -0.5149
 6151TIP3   OH239943   0.056   3.585   0.596  0.3472  0.0655 -0.0210
 6151TIP3    H139944   0.146   3.610   0.619 -0.0132 -0.0948  1.6794
 6151TIP3    H239945   0.004   3.663   0.612  0.0663 -0.0462 -0.3579
 6152TIP3   OH239946   3.404   4.850   4.888 -0.1384 -0.2111 -0.6716
 6152TIP3    H139947   3.466   4.888   4.950  1.0940  0.1378 -2.0670
 6152TIP3    H239948   3.319   4.886   4.915  0.6026  1.3372 -0.2524
 6153TIP3   OH239949   3.392   5.614   3.974  0.2085 -0.2806  0.0514
 6153TIP3    H139950   3.390   5.667   3.894  1.5948 -0.7504 -0.3176
 6153TIP3    H239951   3.443   5.537   3.950 -2.7605 -2.4620  0.2032
 6154TIP3   OH239952   5.194   0.102   1.963 -0.3673 -0.3658  0.1986
 6154TIP3    H139953   5.143   0.176   1.928  0.0627 -1.1304 -2.1847
 6154TIP3    H239954   5.273   0.143   2.000 -0.2649  0.4091 -0.8346
 6155TIP3   OH239955   5.441   3.327   4.337  0.2421  0.7351  0.0207
 6155TIP3    H139956   5.388   3.386   4.391 -0.6025  0.4103 -0.4346
 6155TIP3    H239957   5.404   3.240   4.353 -1.4545  0.8538 -2.6494
 6156TIP3   OH239958   3.240   4.185   6.322  0.3148 -0.3337 -0.1549
 6156TIP3    H139959   3.250   4.121   6.392  0.9876 -0.5103 -0.4047
 6156TIP3    H239960   3.325   4.227   6.315 -0.4720  1.5783  0.9221
 6157TIP3   OH239961   5.179   5.119   5.918 -0.4525  0.2352 -0.4796
 6157TIP3    H139962   5.132   5.118   6.001 -1.2742 -2.5578 -0.8866
 6157TIP3    H239963   5.138   5.191   5.869 -0.5602  1.3420  1.1308
 6158TIP3   OH239964   1.538   3.729   4.148  0.3243  0.3259 -0.3728
 6158TIP3    H139965   1.584   3.809   4.175 -0.2673  0.9532 -1.1536
 6158TIP3    H239966   1.447   3.757   4.136 -0.0601 -0.6592  0.1437
 6159TIP3   OH239967   1.871   1.714   1.600  0.5366 -0.5392  0.7080
 6159TIP3    H139968   1.948   1.698   1.655  0.6925 -0.1031  0.6245
 6159TIP3    H239969   1.797   1.695   1.658  0.6597  1.4680  1.6427
 6160TIP3   OH239970   5.068   4.974   1.484 -0.3845  0.4902  0.4490
 6160TIP3    H139971   4.996   5.000   1.427 -1.5081  0.7043  1.9175
 6160TIP3    H239972   5.029   4.964   1.571  0.9292 -1.4624  0.9072
 6161TIP3   OH239973   6.033   3.316  12.916  0.1405 -0.2305  0.0595
 6161TIP3    H139974   5.952   3.294  12.869  1.2075  0.4963 -2.2532
 6161TIP3    H239975   6.039   3.411  12.909  0.0229  0.0189  2.3588
 6162TIP3   OH239976   1.300   3.617   1.039  0.2003 -0.4084 -0.1285
 6162TIP3    H139977   1.334   3.601   0.951  1.8732 -1.1894  0.6164
 6162TIP3    H239978   1.225   3.558   1.046  0.0732 -0.3715 -1.0065
 6163TIP3   OH239979   5.991   2.665   1.301 -0.2382 -0.0447  0.9500
 6163TIP3    H139980   6.083   2.650   1.279 -0.4907  0.7437 -0.8509
 6163TIP3    H239981   5.945   2.661   1.217 -1.5352  1.6855  1.5157
 6164TIP3   OH239982   2.453   0.585   1.217  0.4239 -0.5744 -0.2357
 6164TIP3    H139983   2.441   0.663   1.163 -0.9778 -1.3269 -1.0907
 6164TIP3    H239984   2.386   0.593   1.285  1.9604  0.2002  1.2323
 6165TIP3   OH239985   5.948   1.358   4.699 -0.0562 -0.1384  0.2908
 6165TIP3    H139986   5.977   1.271   4.673 -1.5804 -0.6392  0.1830
 6165TIP3    H239987   5.852   1.355   4.691 -0.3215  0.8233  2.4709
 6166TIP3   OH239988   1.297   6.116   4.285  0.8451  0.2402  0.1442
 6166TIP3    H139989   1.372   6.113   4.344  0.8875 -1.0024  0.0338
 6166TIP3    H239990   1.335   6.125   4.197  0.7866  1.8568  0.2463
 6167TIP3   OH239991   5.464   3.521  11.566  0.6836  0.2625 -0.2797
 6167TIP3    H139992   5.382   3.558  11.534  0.9219  0.8752 -0.1910
 6167TIP3    H239993   5.478   3.443  11.512  0.2242  0.3540 -0.5301
 6168TIP3   OH239994   4.750   4.185   3.890  0.3820  0.0865  0.1588
 6168TIP3    H139995   4.757   4.232   3.807 -1.2592  0.1566  0.0365
 6168TIP3    H239996   4.667   4.213   3.928  0.3610 -1.1173  1.0929
 6169TIP3   OH239997   2.168   6.680  15.881 -0.3731  0.2140 -0.2793
 6169TIP3    H139998   2.105   6.751  15.869  1.1968  1.2625 -3.4534
 6169TIP3    H239999   2.201   6.662  15.793  0.9981 -2.9245  0.7266
 6170TIP3   OH240000   4.947   5.488  17.231  0.8404  0.4001 -0.3336
 6170TIP3    H140001   4.894   5.493  17.311  0.3860  1.4974 -0.6734
 6170TIP3    H240002   4.928   5.401  17.195 -1.1125  0.9017 -0.6657
 6171TIP3   OH240003   2.936   2.172   2.465  0.1578 -0.4153 -0.9902
 6171TIP3    H140004   3.026   2.201   2.480  0.4704 -1.5347 -0.5998
 6171TIP3    H240005   2.895   2.244   2.416  1.4339 -0.1500 -1.7021
 6172TIP3   OH240006   3.243   1.551   6.077 -0.1249 -0.1395 -0.1575
 6172TIP3    H140007   3.232   1.470   6.127  2.6226 -0.0798  0.6938
 6172TIP3    H240008   3.332   1.579   6.095 -0.4161  2.1872 -1.8154
 6173TIP3   OH240009   5.862   0.060  11.636 -0.2632 -0.0588  0.7085
 6173TIP3    H140010   5.766   0.057  11.645 -0.1932 -0.7399  1.2707
 6173TIP3    H240011   5.895   0.006  11.708  0.4528 -2.6479 -1.4006
 6174TIP3   OH240012   6.312   4.522  15.592  0.0438 -0.4297 -0.3392
 6174TIP3    H140013   6.400   4.537  15.627  0.6108  0.7615 -2.1611
 6174TIP3    H240014   6.254   4.564  15.656  0.8443 -0.4818  0.4456
 6175TIP3   OH240015   2.877   4.968  14.007 -0.2631 -0.1320 -0.6152
 6175TIP3    H140016   2.916   5.055  13.998 -0.3166  0.2043  1.8214
 6175TIP3    H240017   2.808   4.965  13.940 -1.4807  2.4070  0.4335
 6176TIP3   OH240018   3.881   2.486   0.203 -0.0516 -0.1658 -0.5240
 6176TIP3    H140019   3.904   2.500   0.111 -0.6736  0.6256 -0.5667
 6176TIP3    H240020   3.786   2.488   0.205 -0.0918 -1.4259 -0.0430
 6177TIP3   OH240021   4.326   4.697   2.828  0.1520  0.2025 -0.3335
 6177TIP3    H140022   4.257   4.754   2.862  0.3395 -0.1395  0.6470
 6177TIP3    H240023   4.327   4.714   2.733  0.8109  2.5103  0.0240
 6178TIP3   OH240024   4.385   4.145   2.942  0.0848 -0.6102 -0.1942
 6178TIP3    H140025   4.297   4.107   2.936 -0.2753 -0.2520  1.9862
 6178TIP3    H240026   4.400   4.185   2.856 -2.2437  0.0835 -0.3341
 6179TIP3   OH240027   2.775   0.275  15.483 -0.3247  0.1359  0.2613
 6179TIP3    H140028   2.704   0.333  15.511  1.3813  1.4160  2.1934
 6179TIP3    H240029   2.763   0.196  15.535 -0.1281  0.5036  0.8727
 6180TIP3   OH240030   2.970   1.795  13.416 -0.2357  0.2070 -0.4264
 6180TIP3    H140031   2.938   1.848  13.344 -0.5594 -1.1611 -1.3391
 6180TIP3    H240032   2.974   1.706  13.380 -0.0036 -0.4409  1.1184
 6181TIP3   OH240033   5.687   6.590   0.169 -0.6239 -0.0089 -0.1681
 6181TIP3    H140034   5.633   6.636   0.105 -0.4730  1.0990  0.4705
 6181TIP3    H240035   5.627   6.528   0.211 -1.4880  1.3368  0.6703
 6182TIP3   OH240036   0.250   2.755  13.127  0.3494  0.3978 -0.0543
 6182TIP3    H140037   0.330   2.794  13.163 -0.3488  0.3154  1.6605
 6182TIP3    H240038   0.259   2.662  13.145 -0.0498  0.3596 -0.0559
 6183TIP3   OH240039   4.273   1.260  16.878  0.3042  0.2277 -0.1778
 6183TIP3    H140040   4.323   1.184  16.850  0.7831  0.6128 -0.3695
 6183TIP3    H240041   4.317   1.335  16.838 -1.5325  0.4487 -1.9622
 6184TIP3   OH240042   0.885   5.767   3.613 -0.1683 -0.1055  0.9549
 6184TIP3    H140043   0.850   5.844   3.568 -0.9617 -0.1192  1.5289
 6184TIP3    H240044   0.892   5.700   3.545  3.4150  1.2640 -0.3060
 6185TIP3   OH240045   3.912   6.068   1.196  0.4811 -0.0112 -0.2540
 6185TIP3    H140046   3.846   6.074   1.266  0.2952 -1.4127 -0.2809
 6185TIP3    H240047   3.893   6.142   1.139  0.6077  1.1376  1.1465
 6186TIP3   OH240048   3.688   1.041  11.253 -0.4947  0.1141  0.5589
 6186TIP3    H140049   3.722   1.068  11.339 -1.7144 -1.7054  1.6731
 6186TIP3    H240050   3.728   1.102  11.192  3.0517 -0.5467  1.9852
 6187TIP3   OH240051   4.347   3.207  16.422  0.1764  0.2001  0.1963
 6187TIP3    H140052   4.253   3.218  16.439 -0.1427 -2.3949  0.5606
 6187TIP3    H240053   4.358   3.227  16.329 -0.8277  0.0269  0.0308
 6188TIP3   OH240054   1.004   1.366  17.045 -0.1789 -0.3028  0.1177
 6188TIP3    H140055   1.043   1.340  17.129  1.7497 -0.0588 -0.6489
 6188TIP3    H240056   1.079   1.395  16.992 -1.5844  1.4057 -1.0238
 6189TIP3   OH240057   2.456   2.633  16.417 -0.0249 -0.1223 -0.0660
 6189TIP3    H140058   2.410   2.644  16.500  1.0976 -2.5781  0.9874
 6189TIP3    H240059   2.448   2.718  16.374 -0.4469  1.3477  2.6505
 6190TIP3   OH240060   5.505   1.269  13.736 -0.3233 -0.3395  0.1147
 6190TIP3    H140061   5.530   1.245  13.647 -0.7418 -0.1051 -0.0687
 6190TIP3    H240062   5.535   1.359  13.746  2.2288 -1.2222  1.1748
 6191TIP3   OH240063   1.097   0.850   1.798 -0.0753  0.1999  0.5633
 6191TIP3    H140064   1.160   0.789   1.759  0.5209  0.4888  1.0560
 6191TIP3    H240065   1.011   0.812   1.778  0.2896 -0.8765  0.9979
 6192TIP3   OH240066   5.890   6.573   0.495  0.2984 -0.0665 -1.2270
 6192TIP3    H140067   5.955   6.504   0.504 -0.4166 -0.8122 -1.6625
 6192TIP3    H240068   5.938   6.648   0.462  0.6317 -1.1575 -3.3541
 6193TIP3   OH240069   2.733   4.899  12.848 -0.5510 -0.0655 -0.0451
 6193TIP3    H140070   2.828   4.891  12.844 -0.6190 -0.6271 -0.6891
 6193TIP3    H240071   2.701   4.808  12.853 -1.0972  0.0545 -1.0776
 6194TIP3   OH240072   4.815   0.334   1.776 -0.3774 -0.0852  0.3411
 6194TIP3    H140073   4.887   0.282   1.741 -0.0381  1.2058 -1.0319
 6194TIP3    H240074   4.755   0.270   1.815  0.3458 -1.4243 -0.6467
 6195TIP3   OH240075   5.032   1.765  15.599 -0.1486  0.2775  0.2705
 6195TIP3    H140076   5.020   1.670  15.600  0.6006  0.1602  2.2269
 6195TIP3    H240077   5.062   1.784  15.510  0.6063 -1.4415  0.1116
 6196TIP3   OH240078   4.342   1.207  13.744 -0.2452 -0.0564 -1.0677
 6196TIP3    H140079   4.317   1.120  13.774 -1.0271  1.1592  2.1391
 6196TIP3    H240080   4.438   1.207  13.750 -0.3144 -0.2545  0.4080
 6197TIP3   OH240081   5.105   0.896  11.976  0.0377 -0.3554 -0.1822
 6197TIP3    H140082   5.169   0.900  12.047  0.2236 -1.0253 -0.3105
 6197TIP3    H240083   5.038   0.835  12.007 -2.3206  2.7110  1.3852
 6198TIP3   OH240084   2.814   5.184   2.566  0.2636  0.2429  0.5452
 6198TIP3    H140085   2.766   5.104   2.545  0.4014 -0.1405  1.6103
 6198TIP3    H240086   2.747   5.247   2.589  0.2257 -0.1433  1.5450
 6199TIP3   OH240087   6.464   0.378   3.768 -0.2407 -0.2925  0.5151
 6199TIP3    H140088   6.467   0.284   3.753  0.1705 -0.2750  0.4810
 6199TIP3    H240089   6.379   0.393   3.811 -0.8752 -0.5073 -0.6224
 6200TIP3   OH240090   2.392   4.944  11.963 -0.1238 -0.4107  0.1093
 6200TIP3    H140091   2.322   4.881  11.978 -1.2408  0.8161  0.3376
 6200TIP3    H240092   2.463   4.916  12.020  0.2496 -2.6343 -1.3290
 6201TIP3   OH240093   3.938   3.700  15.809 -0.0345  0.2816  0.4170
 6201TIP3    H140094   4.019   3.674  15.852  0.0998 -2.3077 -1.1774
 6201TIP3    H240095   3.876   3.712  15.880  1.1026 -0.1662  1.5220
 6202TIP3   OH240096   3.848   4.521   5.472  0.5014 -0.3187  0.8689
 6202TIP3    H140097   3.943   4.517   5.483  0.5738 -0.3956  0.2739
 6202TIP3    H240098   3.834   4.587   5.404  0.1346 -0.4087  0.8514
 6203TIP3   OH240099   5.026   1.928  11.358 -0.0555  0.2080  0.0607
 6203TIP3    H140100   5.019   1.957  11.449 -0.9961  0.9001 -0.2135
 6203TIP3    H240101   4.989   1.840  11.358  1.7326 -0.5975  0.6816
 6204TIP3   OH240102   5.054   4.300   4.830 -0.0810 -0.1473  0.4881
 6204TIP3    H140103   4.962   4.311   4.806 -0.2895  0.7965  1.6367
 6204TIP3    H240104   5.061   4.208   4.858 -0.3878 -0.5485 -0.7167
 6205TIP3   OH240105   3.787   2.350   4.178 -0.0478  0.0979  0.0836
 6205TIP3    H140106   3.703   2.383   4.148  0.5177  1.2411 -0.3164
 6205TIP3    H240107   3.823   2.421   4.232  0.4712 -0.5368  0.5936
 6206TIP3   OH240108   5.901   2.980  12.814  0.4995  0.3245  0.4700
 6206TIP3    H140109   5.919   2.938  12.898  1.3255 -0.5007 -0.0937
 6206TIP3    H240110   5.806   2.976  12.805  0.4312  0.0762  1.1927
 6207TIP3   OH240111   3.431   4.909  11.106 -0.6014 -0.3113  0.2883
 6207TIP3    H140112   3.516   4.920  11.064 -2.2831 -0.0786 -3.5373
 6207TIP3    H240113   3.446   4.845  11.175  2.8822  0.7804  0.7155
 6208TIP3   OH240114   6.568   3.716   4.739  0.3058  0.4253 -0.2840
 6208TIP3    H140115   6.530   3.704   4.826 -0.3490 -1.0817 -0.7420
 6208TIP3    H240116   6.527   3.796   4.706 -0.3244  0.3782  0.3614
 6209TIP3   OH240117   2.262   1.944  15.070 -0.1201 -0.3121 -0.1594
 6209TIP3    H140118   2.261   1.875  15.137  0.5365  0.3831  0.5871
 6209TIP3    H240119   2.259   2.025  15.119 -0.7667  0.2068 -1.0307
 6210TIP3   OH240120   4.095   2.355  11.795 -0.0655  0.7843 -0.4043
 6210TIP3    H140121   4.188   2.378  11.798  0.1426  0.0286 -0.7531
 6210TIP3    H240122   4.077   2.316  11.880 -0.3048  1.8031  0.0175
 6211TIP3   OH240123   3.254   3.787  13.427  0.3876 -0.4650  0.0905
 6211TIP3    H140124   3.347   3.782  13.448  0.9379 -1.5445 -2.2629
 6211TIP3    H240125   3.246   3.861  13.367 -0.0836 -1.0123 -0.5344
 6212TIP3   OH240126   2.761   2.937  16.351 -1.1948 -0.0736  0.5294
 6212TIP3    H140127   2.741   2.844  16.336  0.0966 -0.7958  2.8162
 6212TIP3    H240128   2.848   2.950  16.312 -0.8930 -0.1126  1.1912
 6213TIP3   OH240129   0.281   3.883  12.878 -0.1229 -0.0911  0.3649
 6213TIP3    H140130   0.342   3.837  12.936  0.9855  0.3218 -0.4550
 6213TIP3    H240131   0.325   3.965  12.857 -0.6001 -0.1470 -0.9068
 6214TIP3   OH240132   4.981   3.264   1.995  0.4854  0.1572 -0.5600
 6214TIP3    H140133   4.894   3.298   1.972  0.7051  0.6705 -0.6453
 6214TIP3    H240134   4.990   3.184   1.945 -0.0409 -0.0236 -0.3697
 6215TIP3   OH240135   6.280   6.260  11.569  1.0272  0.1430  0.5763
 6215TIP3    H140136   6.375   6.249  11.575  1.1892  1.0655 -0.2182
 6215TIP3    H240137   6.245   6.172  11.588  2.0234 -0.1938  0.9199
 6216TIP3   OH240138   4.242   0.637   1.710  0.1853 -0.9734  0.2070
 6216TIP3    H140139   4.222   0.728   1.734 -0.2446 -1.0031 -0.0153
 6216TIP3    H240140   4.159   0.604   1.674  0.1078 -1.7062  1.0277
 6217TIP3   OH240141   1.616   2.341   1.967  0.8094  0.5083 -0.5585
 6217TIP3    H140142   1.612   2.308   1.878 -0.0585 -0.2920 -0.2382
 6217TIP3    H240143   1.555   2.414   1.969 -0.9719 -0.9172 -0.0657
 6218TIP3   OH240144   2.162   5.200   4.934  0.1369 -0.2796  0.3834
 6218TIP3    H140145   2.116   5.164   5.010  3.1458 -0.0298  2.5306
 6218TIP3    H240146   2.169   5.294   4.952  0.7485 -0.1926 -0.2623
 6219TIP3   OH240147   6.805   5.357  15.424 -0.2730  0.1265  0.1895
 6219TIP3    H140148   6.855   5.387  15.348 -0.3759 -1.5630 -0.5834
 6219TIP3    H240149   6.797   5.263  15.412 -1.6206  0.0320  1.5266
 6220TIP3   OH240150   1.732   1.486  15.161 -0.6959  0.0974 -0.0287
 6220TIP3    H140151   1.664   1.419  15.154 -1.3177  0.9134 -2.4126
 6220TIP3    H240152   1.690   1.559  15.206 -0.7308 -0.2086  0.4409
 6221TIP3   OH240153   4.940   1.907  11.686 -0.4886  0.0065 -0.2422
 6221TIP3    H140154   4.859   1.897  11.737 -0.1777 -0.4783  0.1561
 6221TIP3    H240155   4.987   1.825  11.698 -0.0480  0.1886 -0.6796
 6222TIP3   OH240156   2.398   6.033  14.277  0.1542  0.1294 -0.1034
 6222TIP3    H140157   2.327   6.041  14.213  1.6421  1.7466 -1.6458
 6222TIP3    H240158   2.414   6.123  14.306  1.5937 -0.2106  0.2137
 6223TIP3   OH240159   0.755   0.737   2.102  0.0890 -0.0452 -0.0373
 6223TIP3    H140160   0.787   0.825   2.119 -1.2549 -0.0033  2.9020
 6223TIP3    H240161   0.661   0.741   2.121  0.3322 -2.4890  2.2627
 6224TIP3   OH240162   4.730   2.065  15.347 -0.1536 -0.2459  0.7255
 6224TIP3    H140163   4.645   2.051  15.388 -0.7023  0.6243 -0.0865
 6224TIP3    H240164   4.741   2.160  15.344  0.7442 -0.3420  0.5994
 6225TIP3   OH240165   3.242   6.778   2.419 -0.1765  0.0268  0.3852
 6225TIP3    H140166   3.192   6.713   2.469 -0.3518 -1.1782 -1.2593
 6225TIP3    H240167   3.310   6.728   2.375  1.3666  1.3832  1.1203
 6226TIP3   OH240168   3.927   5.946   3.510 -0.2540 -0.3589 -0.1482
 6226TIP3    H140169   3.939   5.851   3.502  1.3682 -0.0891 -1.4205
 6226TIP3    H240170   3.911   5.960   3.603  0.5217 -1.7860  0.2345
 6227TIP3   OH240171   4.995   5.509  12.469  0.3900 -0.0048  0.0135
 6227TIP3    H140172   5.087   5.503  12.496  0.2845  0.8312  0.5846
 6227TIP3    H240173   4.945   5.487  12.548  0.0922  0.1812 -0.1223
 6228TIP3   OH240174   0.626   4.068  14.238  0.7746  0.4928 -0.8804
 6228TIP3    H140175   0.548   4.039  14.190  1.1080 -1.0706 -0.5384
 6228TIP3    H240176   0.630   4.010  14.314  1.4180  1.5694 -0.0707
 6229TIP3   OH240177   1.981   0.896  14.113 -0.2769 -0.2865 -0.0862
 6229TIP3    H140178   2.023   0.824  14.066 -1.1039 -0.9610  0.1916
 6229TIP3    H240179   1.999   0.878  14.206 -0.4274 -0.0888 -0.0169
 6230TIP3   OH240180   5.433   1.873   1.789  0.7153 -0.2335 -0.2747
 6230TIP3    H140181   5.387   1.878   1.873  2.9491 -0.0248  1.0143
 6230TIP3    H240182   5.373   1.825   1.731 -1.1518  0.1798  1.2261
 6231TIP3   OH240183   1.376   1.636   3.126 -0.0442 -0.4761  0.0607
 6231TIP3    H140184   1.292   1.668   3.092 -0.4049  0.4136  1.6733
 6231TIP3    H240185   1.391   1.554   3.079 -1.9357 -0.7800 -0.1231
 6232TIP3   OH240186   6.405   2.692   5.593 -0.1606  0.7079  0.1537
 6232TIP3    H140187   6.361   2.626   5.647 -2.2043  2.4397  0.7736
 6232TIP3    H240188   6.374   2.675   5.504 -0.5139  0.6692  0.2813
 6233TIP3   OH240189   1.326   5.736   5.033 -0.1595 -0.0581 -0.2121
 6233TIP3    H140190   1.386   5.764   5.102  2.4235 -0.8118 -2.0257
 6233TIP3    H240191   1.336   5.641   5.029 -3.1154 -0.5372  0.7755
 6234TIP3   OH240192   5.925   6.347   5.854  0.3017 -0.3127 -0.5352
 6234TIP3    H140193   5.875   6.269   5.830  1.2355 -1.1690  0.1896
 6234TIP3    H240194   5.911   6.357   5.948  0.9220 -0.1454 -0.4563
 6235TIP3   OH240195   5.546   0.305  11.509  0.0386  0.5659 -0.5782
 6235TIP3    H140196   5.534   0.284  11.416 -0.1237  1.2951 -0.7300
 6235TIP3    H240197   5.565   0.221  11.550 -1.2501  0.0156 -1.0458
 6236TIP3   OH240198   6.144   5.645  11.554  0.1338 -0.2008  0.1882
 6236TIP3    H140199   6.049   5.633  11.546 -0.3444  1.9695  1.8402
 6236TIP3    H240200   6.173   5.665  11.465 -1.2317  0.6975 -0.0921
 6237TIP3   OH240201   3.745   5.155  12.164 -0.0758 -0.2836  0.5491
 6237TIP3    H140202   3.742   5.059  12.160  0.7999 -0.3275 -3.6737
 6237TIP3    H240203   3.827   5.175  12.210 -0.5464 -1.4894  1.9827
 6238TIP3   OH240204   0.092   6.270   5.549  0.5214  0.1047 -0.6682
 6238TIP3    H140205   0.036   6.316   5.611  0.1561 -0.0932 -0.8537
 6238TIP3    H240206   0.121   6.338   5.488 -0.8792 -0.0808 -1.5875
 6239TIP3   OH240207   5.906   1.847   0.108 -0.1950 -0.1508 -0.7036
 6239TIP3    H140208   5.923   1.899   0.030 -0.6330  0.2659 -0.5256
 6239TIP3    H240209   5.989   1.802   0.125  0.5177  1.2565 -0.2816
 6240TIP3   OH240210   6.209   3.220  11.707  0.0246  0.2699 -0.0218
 6240TIP3    H140211   6.246   3.307  11.720  0.0378  0.1249  0.9958
 6240TIP3    H240212   6.186   3.217  11.614 -0.3082  1.4850  0.0012
 6241TIP3   OH240213   0.158   0.621   5.143 -0.4432 -0.1765 -0.4603
 6241TIP3    H140214   0.170   0.541   5.091  1.4268 -0.2065 -0.0492
 6241TIP3    H240215   0.206   0.688   5.095  1.5284 -0.2535  1.2953
 6242TIP3   OH240216   3.127   6.732   1.256 -0.2292 -0.2644  0.0875
 6242TIP3    H140217   3.095   6.813   1.218  0.1923 -0.7767 -1.4304
 6242TIP3    H240218   3.170   6.686   1.184 -1.2129 -2.2387  0.6650
 6243TIP3   OH240219   0.133   3.459  11.400  0.5959 -0.4565 -0.2229
 6243TIP3    H140220   0.114   3.491  11.488  1.2821  2.4344 -1.0068
 6243TIP3    H240221   0.052   3.416  11.372  0.1882 -0.9412  1.5857
 6244TIP3   OH240222   3.259   4.675   0.888  0.4390 -0.5634 -0.4687
 6244TIP3    H140223   3.173   4.701   0.855  0.4432 -0.2354 -0.2252
 6244TIP3    H240224   3.287   4.748   0.943  1.4045 -0.1169 -1.5063
 6245TIP3   OH240225   2.595   4.266  13.934 -0.2048 -0.2408  0.0939
 6245TIP3    H140226   2.675   4.293  13.979 -0.2796  3.8061 -1.7815
 6245TIP3    H240227   2.526   4.276  13.999  0.3196  0.2783  0.5724
 6246TIP3   OH240228   0.583   4.594   3.111 -0.3370 -1.2785  0.7736
 6246TIP3    H140229   0.668   4.565   3.143  0.7792 -2.4491 -2.7509
 6246TIP3    H240230   0.598   4.611   3.018 -3.9330 -1.2837  0.0746
 6247TIP3   OH240231   5.908   6.589   4.171  0.4690  0.0921 -0.1740
 6247TIP3    H140232   5.987   6.548   4.136  1.7824  0.4414  2.1525
 6247TIP3    H240233   5.836   6.535   4.137  1.8090 -1.2707 -0.9993
 6248TIP3   OH240234   4.441   6.096   2.425  0.0157 -0.8008  0.4295
 6248TIP3    H140235   4.480   6.132   2.505 -0.0517 -0.4574  0.3096
 6248TIP3    H240236   4.363   6.050   2.456 -0.8174  0.5488  0.4209
 6249TIP3   OH240237   5.638   0.427  15.355  0.2655 -0.3241  0.1816
 6249TIP3    H140238   5.692   0.377  15.293  2.3851  1.3970  0.5354
 6249TIP3    H240239   5.637   0.515  15.319 -0.9074  0.0679  1.1328
 6250TIP3   OH240240   5.436   0.029   4.719  0.1920  0.2359 -0.1398
 6250TIP3    H140241   5.347   0.060   4.734  0.1440  0.0688 -0.0794
 6250TIP3    H240242   5.456   0.054   4.629  0.9047  2.3183  0.5169
 6251TIP3   OH240243   2.561   0.778  14.120 -0.7064 -0.2904  0.1484
 6251TIP3    H140244   2.482   0.824  14.147  1.0406  2.3855  1.2234
 6251TIP3    H240245   2.623   0.848  14.100  1.4588 -2.2513 -0.4215
 6252TIP3   OH240246   0.295   0.364   5.466  0.6159  0.1633  0.1891
 6252TIP3    H140247   0.335   0.336   5.383 -1.5325 -2.8853  0.0140
 6252TIP3    H240248   0.304   0.460   5.465  1.2384  0.2220 -3.2694
 6253TIP3   OH240249   2.541   3.520   1.209  0.5214 -0.9492 -0.7472
 6253TIP3    H140250   2.492   3.481   1.137 -1.6564 -0.6095  0.4717
 6253TIP3    H240251   2.517   3.469   1.286  1.3682 -0.1689  0.0714
 6254TIP3   OH240252   2.204   2.532  13.288 -0.1762  0.1543 -0.0629
 6254TIP3    H140253   2.212   2.438  13.304  0.6859  0.3939  1.0825
 6254TIP3    H240254   2.223   2.542  13.195 -1.6423 -0.9404 -0.5040
 6255TIP3   OH240255   2.606   2.296  15.831 -0.0046 -0.5389 -0.6469
 6255TIP3    H140256   2.614   2.215  15.782 -0.7029 -0.5183 -0.7957
 6255TIP3    H240257   2.616   2.270  15.923  0.6120 -0.6714 -0.7480
 6256TIP3   OH240258   5.329   6.116  13.397  0.0277 -0.2567  0.1522
 6256TIP3    H140259   5.414   6.137  13.434  0.7090  0.3221 -1.6522
 6256TIP3    H240260   5.349   6.077  13.311 -1.5187  0.1391 -0.4216
 6257TIP3   OH240261   4.786   5.389   5.568 -0.5340  0.2938  0.0446
 6257TIP3    H140262   4.772   5.440   5.489  1.0981  2.6666  1.1771
 6257TIP3    H240263   4.827   5.308   5.538  1.1151  1.6255 -1.4896
 6258TIP3   OH240264   6.369   6.142   5.426  0.2323 -0.5174  0.5110
 6258TIP3    H140265   6.427   6.218   5.432  0.7929 -0.8065 -0.9631
 6258TIP3    H240266   6.288   6.172   5.467  0.8303  0.4895  1.0003
 6259TIP3   OH240267   5.692   5.169  11.028 -0.1086 -0.2776  0.3146
 6259TIP3    H140268   5.660   5.260  11.031 -0.2550 -0.1305 -2.6265
 6259TIP3    H240269   5.631   5.125  10.969  0.4494 -2.0921  1.0481
 6260TIP3   OH240270   0.774   2.520   0.131  0.3615 -0.2664 -0.7111
 6260TIP3    H140271   0.758   2.614   0.121  1.9556  0.2452  1.0737
 6260TIP3    H240272   0.832   2.498   0.058  0.8160  0.3726 -0.5498
 6261TIP3   OH240273   4.833   0.125   0.477 -0.3880 -0.2840  1.0020
 6261TIP3    H140274   4.835   0.073   0.557  0.6602 -0.3153  0.9730
 6261TIP3    H240275   4.924   0.153   0.464 -0.8608  1.2787  0.8262
 6262TIP3   OH240276   4.114   6.189  11.714 -0.6322 -0.2672 -0.4675
 6262TIP3    H140277   4.111   6.115  11.774 -0.0604 -0.1359 -0.2767
 6262TIP3    H240278   4.111   6.266  11.770 -0.2970 -0.1425 -0.6207
 6263TIP3   OH240279   2.232   2.225  12.641  0.1352  0.0477 -0.1131
 6263TIP3    H140280   2.232   2.202  12.548 -0.6644 -0.6025  0.0323
 6263TIP3    H240281   2.160   2.288  12.650  0.2916  0.2058  0.0414
 6264TIP3   OH240282   1.383   2.542   6.192 -0.0301  0.8806 -0.2580
 6264TIP3    H140283   1.321   2.483   6.235  2.7598 -1.2518  1.1455
 6264TIP3    H240284   1.345   2.630   6.204 -2.2311 -0.1967  1.3605
 6265TIP3   OH240285   2.777   6.387  15.230 -0.9499  0.8596  0.0148
 6265TIP3    H140286   2.747   6.298  15.248 -3.4288  1.6230  0.0327
 6265TIP3    H240287   2.783   6.391  15.134 -1.2345  0.7905 -0.0060
 6266TIP3   OH240288   6.193   4.700  16.582  0.3237 -0.0598  0.0359
 6266TIP3    H140289   6.226   4.748  16.658  0.7299 -0.2326 -0.0237
 6266TIP3    H240290   6.215   4.609  16.600 -1.5172 -0.3917  0.6966
 6267TIP3   OH240291   1.279   0.546  14.755 -0.5544 -0.3832  0.2545
 6267TIP3    H140292   1.328   0.471  14.720 -1.1308 -0.2130 -0.9396
 6267TIP3    H240293   1.236   0.511  14.834 -0.7549 -1.2944 -0.2437
 6268TIP3   OH240294   6.694   0.851   3.544 -1.0724  0.0449  0.2689
 6268TIP3    H140295   6.618   0.908   3.557 -1.6399 -0.3470 -1.1953
 6268TIP3    H240296   6.710   0.813   3.630 -2.0085  0.7746  0.7867
 6269TIP3   OH240297   1.599   2.842   6.274  0.2474 -0.2312 -0.2879
 6269TIP3    H140298   1.503   2.835   6.278  0.2797 -0.3411  0.4642
 6269TIP3    H240299   1.624   2.786   6.200 -0.1182 -1.9514  0.8240
 6270TIP3   OH240300   4.438   5.121   4.616 -0.3253 -0.0978 -0.0103
 6270TIP3    H140301   4.377   5.189   4.590 -1.9276 -1.0197  1.1539
 6270TIP3    H240302   4.428   5.114   4.711  2.9102  0.9074  0.5294
 6271TIP3   OH240303   0.848   3.301  12.077 -0.1694 -0.1539  0.0951
 6271TIP3    H140304   0.828   3.229  12.137 -0.7822  1.6615  2.1956
 6271TIP3    H240305   0.763   3.331  12.046  0.1526 -1.4135 -2.2549
 6272TIP3   OH240306   3.721   0.195  14.700  0.2065  0.3806  0.0592
 6272TIP3    H140307   3.812   0.224  14.695  0.0575  0.9550  0.5678
 6272TIP3    H240308   3.673   0.256  14.644  0.0943  0.2363 -0.0033
 6273TIP3   OH240309   2.517   1.908  12.643 -0.2370  0.9080  0.1519
 6273TIP3    H140310   2.553   1.825  12.613 -0.8657  1.3030 -1.8911
 6273TIP3    H240311   2.561   1.925  12.726  0.0480 -1.3469  0.5144
 6274TIP3   OH240312   5.603   4.860   5.547  0.1494  1.0269  0.1462
 6274TIP3    H140313   5.625   4.869   5.454 -0.9767  0.4943 -0.1878
 6274TIP3    H240314   5.617   4.948   5.583  1.7871  0.9572 -0.2415
 6275TIP3   OH240315   4.288   2.528   5.165 -0.4307 -0.0345 -0.1986
 6275TIP3    H140316   4.204   2.482   5.169  0.8674 -2.5619 -0.0148
 6275TIP3    H240317   4.264   2.621   5.165 -3.1559 -0.6243  1.1839
 6276TIP3   OH240318   3.463   3.960   0.835  0.2571 -0.1851  0.0453
 6276TIP3    H140319   3.522   3.979   0.907  0.7126  1.1300 -0.6401
 6276TIP3    H240320   3.471   4.036   0.776 -1.9065 -0.0759 -0.1958
 6277TIP3   OH240321   4.685   5.678  15.684  0.0877  0.1892 -0.3236
 6277TIP3    H140322   4.778   5.700  15.684  0.3188 -0.5966  1.3786
 6277TIP3    H240323   4.672   5.629  15.766 -1.4442 -1.3386 -1.4071
 6278TIP3   OH240324   0.191   1.337   1.350 -0.5223  0.2289  0.2112
 6278TIP3    H140325   0.252   1.405   1.380 -0.4367  0.5157 -0.5998
 6278TIP3    H240326   0.211   1.261   1.405  0.2567  0.4604  0.2607
 6279TIP3   OH240327   5.279   2.014  16.672  0.0519 -0.6483  0.0471
 6279TIP3    H140328   5.266   2.087  16.732 -2.0478  0.6058 -1.7610
 6279TIP3    H240329   5.365   2.030  16.632 -0.7628  1.4582 -1.0165
 6280TIP3   OH240330   0.249   2.416  15.652  0.0162 -0.4168  0.3268
 6280TIP3    H140331   0.170   2.374  15.618  0.1271 -0.9275  0.6818
 6280TIP3    H240332   0.232   2.425  15.746 -0.6072  1.6562  0.0668
 6281TIP3   OH240333   5.981   3.143  14.174  0.4629  0.2347 -0.3043
 6281TIP3    H140334   6.035   3.197  14.117 -0.3296  0.8536 -0.4842
 6281TIP3    H240335   5.947   3.204  14.240  0.3054 -0.2199  0.0450
 6282TIP3   OH240336   0.761   4.829   3.725 -0.1036 -0.1630 -0.1125
 6282TIP3    H140337   0.819   4.812   3.800 -1.3680  0.4670  1.0608
 6282TIP3    H240338   0.787   4.916   3.695 -0.1217 -0.0759  0.1161
 6283TIP3   OH240339   4.685   5.985  13.643 -0.1637  0.5099 -0.4026
 6283TIP3    H140340   4.690   5.903  13.593  1.0094  0.9606 -1.0775
 6283TIP3    H240341   4.594   5.990  13.672 -0.8304  0.0924 -2.2699
 6284TIP3   OH240342   5.166   2.195   0.217 -0.4079 -0.7776  0.2450
 6284TIP3    H140343   5.257   2.201   0.248 -0.0812 -2.7107 -0.2197
 6284TIP3    H240344   5.117   2.166   0.294 -0.8392  1.1089  0.7398
 6285TIP3   OH240345   2.658   3.563  14.251 -0.4909 -0.2884  0.4648
 6285TIP3    H140346   2.709   3.564  14.170 -1.5424  0.8851 -0.2207
 6285TIP3    H240347   2.585   3.505  14.232 -0.9732  0.3301  0.4116
 6286TIP3   OH240348   4.343   6.242  16.866  0.1057 -0.7933 -0.2831
 6286TIP3    H140349   4.312   6.300  16.797 -0.3569 -1.3781 -0.5791
 6286TIP3    H240350   4.437   6.233  16.850  0.6096  1.5096  1.0093
 6287TIP3   OH240351   6.513   1.455   6.505  0.3606 -0.2950  0.0145
 6287TIP3    H140352   6.564   1.411   6.574 -0.2012 -1.7321 -0.4625
 6287TIP3    H240353   6.556   1.429   6.424  0.0060  0.0373 -0.2780
 6288TIP3   OH240354   3.811   6.503   1.903  0.0867  0.4727  0.2119
 6288TIP3    H140355   3.845   6.444   1.970 -1.8697 -1.6007 -0.4862
 6288TIP3    H240356   3.731   6.539   1.942  1.3127  2.8495  0.6728
 6289TIP3   OH240357   4.966   5.848   5.028 -0.8913  0.4294  0.0401
 6289TIP3    H140358   5.060   5.842   5.012 -0.7544 -2.8202  1.2789
 6289TIP3    H240359   4.949   5.941   5.039  2.2035  1.0979 -0.0496
 6290TIP3   OH240360   0.561   4.542  11.822 -0.3234 -0.5298  0.5046
 6290TIP3    H140361   0.642   4.552  11.872 -0.3009  0.6021  0.2604
 6290TIP3    H240362   0.590   4.515  11.735 -0.2060 -0.1314  0.4197
 6291TIP3   OH240363   5.586   6.718   0.555  0.1471  0.1007  0.5538
 6291TIP3    H140364   5.541   6.794   0.591 -1.5703 -0.0605 -1.0958
 6291TIP3    H240365   5.616   6.669   0.631  0.4653  1.9359  1.6598
 6292TIP3   OH240366   2.081   3.629   3.814 -0.5676  0.1684 -0.2343
 6292TIP3    H140367   2.171   3.627   3.845 -0.3374  2.0594 -0.6887
 6292TIP3    H240368   2.028   3.633   3.893 -0.3912 -2.3593  0.1083
 6293TIP3   OH240369   3.998   6.380  13.208  0.7561 -0.2454 -0.5022
 6293TIP3    H140370   4.033   6.467  13.221 -2.2633  0.9012  0.9287
 6293TIP3    H240371   3.922   6.392  13.151 -1.0277 -1.5011  1.4320
 6294TIP3   OH240372   1.895   2.663  15.086  0.1758  0.5692 -1.0734
 6294TIP3    H140373   1.922   2.738  15.140  1.2097 -0.5473  0.0213
 6294TIP3    H240374   1.977   2.628  15.051 -0.0365 -1.2904  0.1474
 6295TIP3   OH240375   6.344   1.066  11.079  0.1353  0.0846 -0.1392
 6295TIP3    H140376   6.397   0.994  11.044  0.6005  0.2485  0.2353
 6295TIP3    H240377   6.254   1.039  11.060  0.3711  0.1536 -1.4415
 6296TIP3   OH240378   4.170   1.457  12.876  0.1192  0.4029  0.3526
 6296TIP3    H140379   4.148   1.434  12.785 -2.8619  0.6668  0.8885
 6296TIP3    H240380   4.169   1.373  12.922 -1.7845  0.5640  0.6900
 6297TIP3   OH240381   3.992   0.562  15.666 -0.3231  0.2948 -0.0092
 6297TIP3    H140382   4.068   0.622  15.664 -0.1722  0.2593  2.2035
 6297TIP3    H240383   3.924   0.609  15.618  0.7971  0.7479 -1.2229
 6298TIP3   OH240384   0.806   0.378  15.638 -0.2652 -0.0266 -0.2015
 6298TIP3    H140385   0.718   0.341  15.652  0.3717 -1.3749  0.3813
 6298TIP3    H240386   0.817   0.441  15.710 -0.4566 -0.4180  0.1748
 6299TIP3   OH240387   2.706   2.275  16.250 -0.7380  0.6310  0.3656
 6299TIP3    H140388   2.641   2.311  16.310 -1.9822  0.6921 -0.9603
 6299TIP3    H240389   2.763   2.349  16.228 -1.6142  1.1416 -0.2125
 6300TIP3   OH240390   1.683   6.729  14.993  0.6057 -0.3309  0.0641
 6300TIP3    H140391   1.691   6.755  14.901 -2.4237  0.5682 -0.0576
 6300TIP3    H240392   1.701   6.810  15.041 -0.0454 -0.2043  0.1110
 6301TIP3   OH240393   3.093   5.150   2.662 -0.5324  0.3123 -0.1706
 6301TIP3    H140394   3.006   5.116   2.641 -0.0679 -1.3572  0.4899
 6301TIP3    H240395   3.151   5.106   2.600 -0.1227  1.3920 -0.5826
 6302TIP3   OH240396   3.031   6.808  14.961 -0.0448  0.0738 -0.9240
 6302TIP3    H140397   2.993   6.731  15.003  1.3998 -0.1089  0.0946
 6302TIP3    H240398   3.122   6.785  14.943  0.4762  1.5939 -0.4297
 6303TIP3   OH240399   1.647   1.547  12.486 -0.7860 -0.0288  0.1171
 6303TIP3    H140400   1.578   1.614  12.490 -0.6517  0.2223 -1.3692
 6303TIP3    H240401   1.723   1.589  12.526 -0.9693  0.3800  0.0474
 6304TIP3   OH240402   5.468   6.487   5.840 -0.2748 -0.6035 -0.4148
 6304TIP3    H140403   5.432   6.432   5.910  0.6978  0.3761  0.8985
 6304TIP3    H240404   5.395   6.543   5.813 -0.6406 -0.9527 -0.1604
 6305TIP3   OH240405   1.118   1.786   2.527 -0.3452 -0.6544  0.1879
 6305TIP3    H140406   1.102   1.693   2.544  2.0250 -0.6487  3.0636
 6305TIP3    H240407   1.176   1.787   2.451 -2.3344 -1.2785 -1.4598
 6306TIP3   OH240408   5.393   0.497   6.514  0.6827 -0.5453  0.4182
 6306TIP3    H140409   5.425   0.432   6.451 -0.2918 -0.4385 -0.2054
 6306TIP3    H240410   5.402   0.581   6.469  0.9506 -0.3481  0.8271
 6307TIP3   OH240411   5.787   0.342   3.377  0.0326  0.1677  0.2059
 6307TIP3    H140412   5.781   0.377   3.466 -0.0404 -0.2702  0.3767
 6307TIP3    H240413   5.721   0.273   3.374 -0.2368  0.4376 -0.3136
 6308TIP3   OH240414   6.204   5.962   5.117 -0.0637  0.2013  0.2401
 6308TIP3    H140415   6.238   5.874   5.129  0.0581 -0.4168 -3.3794
 6308TIP3    H240416   6.130   5.968   5.177 -2.3870 -3.7946 -1.8072
 6309TIP3   OH240417   6.357   4.106  12.980 -0.1512 -0.0667  0.0819
 6309TIP3    H140418   6.395   4.158  12.909 -0.1904 -0.7692 -0.4677
 6309TIP3    H240419   6.297   4.165  13.024  1.0413  0.8561  0.5141
 6310TIP3   OH240420   2.237   4.721  14.023 -0.1099  0.7917 -0.3219
 6310TIP3    H140421   2.198   4.654  14.079 -0.9691  1.8913  0.4275
 6310TIP3    H240422   2.242   4.680  13.936 -0.1519 -0.3998  0.2191
 6311TIP3   OH240423   3.622   6.316   3.815 -0.7863  0.0258  0.5803
 6311TIP3    H140424   3.615   6.294   3.908 -0.9147  1.1667  0.8449
 6311TIP3    H240425   3.600   6.409   3.810 -1.6409 -0.2224 -0.7103
 6312TIP3   OH240426   2.721   6.549   1.769  0.0755 -0.2363  0.2335
 6312TIP3    H140427   2.682   6.496   1.839  0.6895 -2.4597 -0.9985
 6312TIP3    H240428   2.815   6.540   1.782  0.1994  1.0063  0.2814
 6313TIP3   OH240429   2.471   5.576   2.514  0.0842 -0.2268 -0.5388
 6313TIP3    H140430   2.376   5.577   2.516  0.0049  2.3590 -1.9064
 6313TIP3    H240431   2.498   5.636   2.584  0.5155  1.7955 -2.3230
 6314TIP3   OH240432   0.814   5.232  11.988 -0.1135 -0.1181  0.0595
 6314TIP3    H140433   0.848   5.170  12.052  0.2525 -0.7966 -0.7824
 6314TIP3    H240434   0.820   5.187  11.905  0.6329  1.2258 -0.6503
 6315TIP3   OH240435   1.247   3.405  12.213 -0.2321  0.1728  0.1702
 6315TIP3    H140436   1.235   3.372  12.125 -0.1571 -1.5741  0.7844
 6315TIP3    H240437   1.290   3.334  12.261  3.2089  2.3499  0.7175
 6316TIP3   OH240438   3.580   2.164  12.675 -0.7813  0.4644  0.1378
 6316TIP3    H140439   3.543   2.252  12.665  1.0157  1.2489 -0.0089
 6316TIP3    H240440   3.670   2.173  12.644 -0.2230 -1.1652  1.1809
 6317TIP3   OH240441   0.292   2.436  12.384 -0.7265  0.3634 -0.2997
 6317TIP3    H140442   0.334   2.430  12.298  0.4976 -0.4818  0.3184
 6317TIP3    H240443   0.266   2.528  12.392  0.9330  0.9114 -0.7785
 6318TIP3   OH240444   2.750   1.256  12.757  0.1071  0.1306  0.3553
 6318TIP3    H140445   2.793   1.245  12.842  1.3234  2.0403  0.0616
 6318TIP3    H240446   2.817   1.231  12.693 -1.6509 -4.0613 -0.1768
 6319TIP3   OH240447   3.004   4.887   6.650  0.0792  0.3341 -0.5801
 6319TIP3    H140448   3.004   4.793   6.634 -1.8276  0.3093 -0.7016
 6319TIP3    H240449   2.942   4.922   6.586 -0.7032  1.4087  0.7062
 6320TIP3   OH240450   0.757   6.518  11.948  0.3633  0.2401 -0.5088
 6320TIP3    H140451   0.750   6.554  11.860 -2.6058  1.4315  0.0750
 6320TIP3    H240452   0.781   6.593  12.003 -0.2165  0.0874 -0.0258
 6321TIP3   OH240453   1.891   3.923   5.924  0.6510 -0.2373  0.0079
 6321TIP3    H140454   1.828   3.957   5.860  1.0553 -0.8555 -0.7337
 6321TIP3    H240455   1.973   3.966   5.901  0.5716  0.3760  0.8180
 6322TIP3   OH240456   3.097   0.912   0.980  0.2152  0.0900  0.1028
 6322TIP3    H140457   3.171   0.941   1.034  0.1360 -0.3751  0.4614
 6322TIP3    H240458   3.129   0.833   0.936  0.7725  1.2068 -1.6240
 6323TIP3   OH240459   0.517   3.083  12.131  0.0726  0.1991 -0.3626
 6323TIP3    H140460   0.478   3.006  12.174 -0.1836  0.6768  0.2775
 6323TIP3    H240461   0.482   3.158  12.180  0.5602  0.7115 -0.7864
 6324TIP3   OH240462   1.758   4.094  17.229 -0.3194  0.1047  0.4931
 6324TIP3    H140463   1.818   4.060  17.295  1.3607 -0.1392 -1.0772
 6324TIP3    H240464   1.707   4.019  17.201 -0.2004 -0.0385  0.6591
 6325TIP3   OH240465   0.872   1.929  15.167 -0.2122  0.7618 -0.4181
 6325TIP3    H140466   0.935   1.863  15.138  0.1066  1.2023 -0.7474
 6325TIP3    H240467   0.919   1.981  15.232 -0.4981  0.5929 -0.0748
 6326TIP3   OH240468   5.014   1.140   0.333 -0.5972 -0.3808 -0.4884
 6326TIP3    H140469   5.018   1.054   0.375 -0.0845 -0.1112  0.0178
 6326TIP3    H240470   5.002   1.202   0.405 -0.6154  0.0045 -0.8185
 6327TIP3   OH240471   1.604   2.031   0.254  0.0656  0.3129  0.2666
 6327TIP3    H140472   1.649   1.948   0.236 -1.1222 -0.1575 -0.6769
 6327TIP3    H240473   1.516   2.019   0.217  0.2768  2.4727 -1.1413
 6328TIP3   OH240474   5.495   5.461  13.922  0.2645  0.1746 -0.9465
 6328TIP3    H140475   5.428   5.450  13.989  0.5660  2.6426 -0.1101
 6328TIP3    H240476   5.539   5.376  13.918 -0.5289 -0.4086  1.1461
 6329TIP3   OH240477   5.674   3.758   5.216  0.3562 -0.1356  0.4309
 6329TIP3    H140478   5.695   3.714   5.134 -1.8279 -0.8699  0.1975
 6329TIP3    H240479   5.746   3.735   5.275  0.7870 -1.5334 -0.5947
 6330TIP3   OH240480   0.029   0.912  11.632  0.1560  0.7114 -0.2696
 6330TIP3    H140481   0.028   0.878  11.722 -2.6205 -0.6561 -0.6923
 6330TIP3    H240482  -0.030   0.987  11.634 -1.6714 -0.6299 -1.3075
 6331TIP3   OH240483   3.191   5.361   1.482 -0.4699 -0.1873 -0.7515
 6331TIP3    H140484   3.284   5.341   1.493 -0.7468 -1.8550 -1.1857
 6331TIP3    H240485   3.147   5.276   1.483 -1.9181  0.5086 -1.3007
 6332TIP3   OH240486   4.810   2.571   1.209 -0.2315  0.1323  0.5172
 6332TIP3    H140487   4.779   2.579   1.119  0.5304  0.8497  0.2985
 6332TIP3    H240488   4.872   2.498   1.207  0.2386  0.5315  0.3193
 6333TIP3   OH240489   4.496   4.994  13.179  0.7810  0.3355 -0.0861
 6333TIP3    H140490   4.444   4.944  13.243  0.8215  0.9191  0.4121
 6333TIP3    H240491   4.432   5.023  13.114  0.4304  1.1815  0.6046
 6334TIP3   OH240492   2.357   6.234   5.670  0.3145  0.6146 -0.2018
 6334TIP3    H140493   2.317   6.172   5.730  2.0545 -0.6324 -0.2496
 6334TIP3    H240494   2.289   6.252   5.605 -0.3666 -0.9627  0.0326
 6335TIP3   OH240495   2.338   3.466   0.990  0.3658 -0.1406  0.1134
 6335TIP3    H140496   2.366   3.421   0.910 -1.7560 -1.8705  0.2188
 6335TIP3    H240497   2.325   3.557   0.964  1.6212 -0.2445 -0.9772
 6336TIP3   OH240498   2.991   6.463   2.289 -0.3097 -1.1808  0.3819
 6336TIP3    H140499   3.051   6.420   2.229  0.4460  0.6402 -0.2260
 6336TIP3    H240500   2.974   6.548   2.250 -1.8480 -0.9395  1.4776
 6337TIP3   OH240501   5.341   1.544  13.631 -0.2580  0.0339  0.0435
 6337TIP3    H140502   5.400   1.502  13.569 -1.9379 -1.1311 -0.8499
 6337TIP3    H240503   5.255   1.507  13.610 -0.7083 -1.7856  4.1797
 6338TIP3   OH240504   4.900   1.000   2.603 -0.0319 -0.0759  0.2432
 6338TIP3    H140505   4.804   0.991   2.605 -0.1748  1.1969 -0.0343
 6338TIP3    H240506   4.918   1.034   2.515  0.4878  1.4062  0.8913
 6339TIP3   OH240507   2.455   3.396  14.180 -0.6941 -0.3541 -0.5107
 6339TIP3    H140508   2.403   3.385  14.100 -1.3770  3.1742 -0.7249
 6339TIP3    H240509   2.394   3.376  14.251 -1.1302 -0.2056 -0.8350
 6340TIP3   OH240510   4.700   2.956  16.925  0.1377  0.1150 -0.1483
 6340TIP3    H140511   4.705   3.045  16.961 -0.3776  0.3641 -0.6667
 6340TIP3    H240512   4.677   2.901  17.000 -1.9020  0.7596 -0.2424
 6341TIP3   OH240513   0.079   2.657   2.275  0.6210  1.0342 -0.0830
 6341TIP3    H140514   0.100   2.639   2.367 -0.5906  0.2510  0.0489
 6341TIP3    H240515  -0.016   2.664   2.273  0.5951  0.4465 -1.3908
 6342TIP3   OH240516   1.777   1.955  16.483  0.0571  0.1323 -0.8458
 6342TIP3    H140517   1.726   2.000  16.550 -1.8386 -0.8347 -1.5410
 6342TIP3    H240518   1.817   1.881  16.529  0.9596  0.9512 -0.2737
 6343TIP3   OH240519   5.356   6.431   2.760 -0.8643 -0.1473  0.3435
 6343TIP3    H140520   5.423   6.490   2.726  0.4246 -1.3865  0.6326
 6343TIP3    H240521   5.301   6.410   2.684  0.1780 -0.5308 -0.3276
 6344TIP3   OH240522   4.837   3.073   6.196  0.1095  0.2481  0.0376
 6344TIP3    H140523   4.917   3.073   6.249 -0.1032  0.8159  0.3737
 6344TIP3    H240524   4.782   3.140   6.236  0.1484  1.0552 -1.2139
 6345TIP3   OH240525   0.471   5.364  11.219  0.1911 -0.2227  0.0583
 6345TIP3    H140526   0.412   5.322  11.282  0.4512 -0.9401 -0.1679
 6345TIP3    H240527   0.418   5.378  11.141  0.7604 -2.6082 -0.8424
 6346TIP3   OH240528   0.076   4.306  16.447  0.2082 -0.3439 -0.0684
 6346TIP3    H140529   0.061   4.400  16.458  0.3133 -0.4475  1.0007
 6346TIP3    H240530   0.006   4.278  16.387  0.8056  0.5925 -1.2482
 6347TIP3   OH240531   3.303   6.807  16.413 -0.0496 -0.2588  0.4986
 6347TIP3    H140532   3.232   6.847  16.464 -1.2614  0.9258 -1.9369
 6347TIP3    H240533   3.259   6.759  16.343  1.5363 -0.6902 -0.2567
 6348TIP3   OH240534   5.428   2.681  15.466  0.8611  0.1898  1.2166
 6348TIP3    H140535   5.360   2.615  15.474 -0.3719  1.2170 -0.3408
 6348TIP3    H240536   5.389   2.761  15.501  1.3239  0.7545  0.4774
 6349TIP3   OH240537   4.224   4.304   5.706 -0.6855  1.0119 -0.0003
 6349TIP3    H140538   4.160   4.298   5.776 -0.6903  2.0444  0.1009
 6349TIP3    H240539   4.308   4.281   5.746 -1.1782 -2.1079 -0.5234
 6350TIP3   OH240540   6.147   0.967   0.469 -0.3502  0.0819 -0.5492
 6350TIP3    H140541   6.185   0.884   0.442 -1.1709 -0.2311 -0.7600
 6350TIP3    H240542   6.168   1.027   0.397  0.1889  0.0425 -0.4247
 6351TIP3   OH240543   5.226   1.368   1.065  0.1165 -0.1042  0.4829
 6351TIP3    H140544   5.157   1.435   1.067  1.0193  1.0051 -1.9077
 6351TIP3    H240545   5.281   1.392   0.991  2.4252 -1.6399  1.5804
 6352TIP3   OH240546   4.927   5.657  16.988 -0.2800 -0.1499  0.5475
 6352TIP3    H140547   4.976   5.622  17.062  0.0130 -0.0348  0.4088
 6352TIP3    H240548   4.878   5.731  17.024  1.0300  0.8742  0.3211
 6353TIP3   OH240549   4.617   0.826  11.288 -0.4722  0.4193 -0.1080
 6353TIP3    H140550   4.626   0.898  11.226  2.6384 -0.5684 -1.0112
 6353TIP3    H240551   4.588   0.751  11.236  1.5937 -0.2684 -0.3667
 6354TIP3   OH240552   3.262   1.369   5.815  0.0240  0.6553 -0.4054
 6354TIP3    H140553   3.331   1.434   5.823  0.8682 -0.0917 -1.4375
 6354TIP3    H240554   3.306   1.290   5.785 -0.8000 -0.7258  1.7745
 6355TIP3   OH240555   0.421   0.462   4.469 -0.1678  0.1261 -0.1598
 6355TIP3    H140556   0.353   0.428   4.412 -1.6090  2.8972 -0.2552
 6355TIP3    H240557   0.407   0.419   4.553 -1.2072 -0.3038 -0.5433
 6356TIP3   OH240558   1.511   1.621  14.570  0.2094 -0.1329 -0.4882
 6356TIP3    H140559   1.511   1.667  14.487 -0.7288 -0.2365 -0.5508
 6356TIP3    H240560   1.574   1.550  14.558  0.6959  0.3495 -0.8207
 6357TIP3   OH240561   4.695   1.360  11.648 -0.0872  0.5663  0.4473
 6357TIP3    H140562   4.767   1.323  11.699 -1.8207 -1.8179  1.3992
 6357TIP3    H240563   4.626   1.376  11.712 -1.1943  0.5871 -0.6944
 6358TIP3   OH240564   5.572   2.231   2.135  0.0580  0.0428 -0.0479
 6358TIP3    H140565   5.539   2.296   2.073 -1.1802 -1.1315 -0.6495
 6358TIP3    H240566   5.553   2.147   2.095  1.0169 -0.7300  1.0412
 6359TIP3   OH240567   5.280   4.187   4.111  0.0934 -0.2283  0.4143
 6359TIP3    H140568   5.285   4.257   4.046  0.3763  0.0427  0.7281
 6359TIP3    H240569   5.188   4.186   4.138 -0.3778 -1.3273 -1.0626
 6360TIP3   OH240570   1.298   0.315  12.677  0.2481  0.1672  0.4183
 6360TIP3    H140571   1.266   0.404  12.669 -1.2292 -0.4494 -1.5677
 6360TIP3    H240572   1.392   0.321  12.660 -0.1095  1.1936 -1.4593
 6361TIP3   OH240573   0.297   2.449   2.313  0.1280  0.2586  0.8259
 6361TIP3    H140574   0.215   2.454   2.263  1.2698 -0.3274 -1.2179
 6361TIP3    H240575   0.271   2.469   2.403 -2.3857 -0.6636  0.3970
 6362TIP3   OH240576   5.429   6.196  15.892  0.5125 -0.2093 -0.2127
 6362TIP3    H140577   5.417   6.146  15.973 -2.0549  0.3070 -0.1846
 6362TIP3    H240578   5.428   6.287  15.920  1.8226 -0.0444 -0.6297
 6363TIP3   OH240579   1.758   5.081  16.514  0.3413 -0.1727 -0.5449
 6363TIP3    H140580   1.774   5.168  16.476  0.6534 -0.1593 -0.3915
 6363TIP3    H240581   1.683   5.047  16.466  0.7370 -0.1642 -1.1871
 6364TIP3   OH240582   3.718   5.631   5.434  0.0670  0.0851 -0.0508
 6364TIP3    H140583   3.710   5.614   5.340 -0.3388 -2.6996  0.3808
 6364TIP3    H240584   3.643   5.687   5.455 -0.4560 -0.1291 -1.2350
 6365TIP3   OH240585   1.444   4.458  16.691 -0.0528 -0.1694 -0.1909
 6365TIP3    H140586   1.354   4.487  16.674  0.5040  1.7255 -0.0490
 6365TIP3    H240587   1.436   4.398  16.765 -1.1723  0.1904 -0.0078
 6366TIP3   OH240588   4.563   3.265  15.141  0.2544  0.8858  0.5541
 6366TIP3    H140589   4.505   3.301  15.208 -0.3934 -0.1109  0.5439
 6366TIP3    H240590   4.515   3.273  15.059 -0.7381 -1.7062  0.8071
 6367TIP3   OH240591   2.677   1.112  11.293  0.6923  0.0084  0.0579
 6367TIP3    H140592   2.740   1.161  11.240 -1.1849  0.2331 -2.1241
 6367TIP3    H240593   2.592   1.136  11.257 -0.6565 -0.5774  2.6418
 6368TIP3   OH240594   2.988   2.192   5.240 -0.0826  0.3917 -0.1304
 6368TIP3    H140595   2.952   2.153   5.160  0.4923  1.0326 -0.7174
 6368TIP3    H240596   2.911   2.210   5.294 -0.5701  0.8016 -0.9340
 6369TIP3   OH240597   6.723   1.897   0.169  0.0307  0.0617 -0.2693
 6369TIP3    H140598   6.805   1.906   0.120 -0.3088  0.8578 -0.7087
 6369TIP3    H240599   6.742   1.831   0.236  1.2933  0.8473  0.1831
 6370TIP3   OH240600   1.522   3.105  10.745 -0.5976 -0.3542  0.2862
 6370TIP3    H140601   1.520   3.073  10.655  1.1411  2.4106 -0.8847
 6370TIP3    H240602   1.430   3.103  10.773 -1.0576 -2.1754 -1.1567
 6371TIP3   OH240603   5.618   5.071   3.182  0.2694  0.2809 -0.2225
 6371TIP3    H140604   5.593   5.098   3.270  2.4655  0.4504  0.4083
 6371TIP3    H240605   5.536   5.070   3.133 -1.0597 -0.1060  1.8825
 6372TIP3   OH240606   2.193   4.623  16.427  0.5762  0.1411 -0.0182
 6372TIP3    H140607   2.105   4.653  16.451  0.7018 -0.1708  0.8465
 6372TIP3    H240608   2.180   4.532  16.399  0.5660  0.2310 -0.3145
 6373TIP3   OH240609   3.803   1.659   3.233  0.1642  0.0868  0.1513
 6373TIP3    H140610   3.829   1.577   3.190  0.5628  0.6297 -0.6765
 6373TIP3    H240611   3.710   1.669   3.213  0.0061 -0.3887  0.6396
 6374TIP3   OH240612   5.260   4.176   3.774  0.0098 -0.2040  0.4770
 6374TIP3    H140613   5.214   4.103   3.733  1.3953 -0.8987  0.0833
 6374TIP3    H240614   5.200   4.207   3.842 -0.5491 -1.8263  0.7752
 6375TIP3   OH240615   1.345   4.692   0.571  0.1456  0.5844  0.2168
 6375TIP3    H140616   1.298   4.611   0.551  0.7476 -0.4153  2.5629
 6375TIP3    H240617   1.277   4.757   0.586 -0.3503  0.4297 -1.1582
 6376TIP3   OH240618   5.180   1.433  11.714 -0.4370  0.3951  0.3712
 6376TIP3    H140619   5.206   1.412  11.625 -1.0960  1.2788 -0.0480
 6376TIP3    H240620   5.149   1.350  11.750 -0.2928  0.0585 -0.2556
 6377TIP3   OH240621   4.665   3.713   5.260 -0.1025 -0.3718  0.3450
 6377TIP3    H140622   4.639   3.622   5.253 -2.9703  0.3371  0.5448
 6377TIP3    H240623   4.613   3.748   5.333 -0.2031  1.7475 -0.6510
 6378TIP3   OH240624   5.481   6.773  16.605 -0.5247  0.5320 -0.3400
 6378TIP3    H140625   5.432   6.852  16.630 -0.3862  0.8443 -1.0271
 6378TIP3    H240626   5.565   6.807  16.572 -0.5121  0.1055 -0.7489
 6379TIP3   OH240627   3.243   2.294   3.742 -0.2392  0.4640  0.1804
 6379TIP3    H140628   3.303   2.304   3.668 -1.0177  0.5124 -0.4620
 6379TIP3    H240629   3.172   2.239   3.708 -0.7534  0.7364  0.7970
 6380TIP3   OH240630   6.572   0.827  12.758  0.1062 -0.4550 -0.1578
 6380TIP3    H140631   6.587   0.752  12.700  0.0564 -0.9876  0.5091
 6380TIP3    H240632   6.503   0.798  12.818 -0.0683  0.2017 -0.0303
 6381TIP3   OH240633   0.263   0.147   5.634  0.0806  0.1181  0.3886
 6381TIP3    H140634   0.273   0.059   5.598 -1.1366 -0.2187  0.8461
 6381TIP3    H240635   0.248   0.203   5.557  1.6976  0.1046  0.0065
 6382TIP3   OH240636   5.540   0.718  11.595 -0.1440 -0.0990 -0.3847
 6382TIP3    H140637   5.515   0.706  11.504 -0.5757  2.5462 -0.6762
 6382TIP3    H240638   5.497   0.646  11.641 -0.7569 -0.8835 -2.1109
 6383TIP3   OH240639   0.418   4.901  14.813 -0.1485 -0.3989 -0.3068
 6383TIP3    H140640   0.455   4.850  14.740 -1.2325 -1.1001 -0.3942
 6383TIP3    H240641   0.372   4.836  14.866  1.0553  0.0123  1.3152
 6384TIP3   OH240642   6.667   4.321  16.320  0.6606  0.1182 -0.4465
 6384TIP3    H140643   6.619   4.345  16.399  1.3706  1.8860 -0.4993
 6384TIP3    H240644   6.640   4.231  16.302 -1.6151  0.5941  0.2361
 6385TIP3   OH240645   3.283   1.163   2.175  0.4450 -0.2638 -0.8169
 6385TIP3    H140646   3.275   1.251   2.211 -0.9718 -0.6003 -0.2561
 6385TIP3    H240647   3.256   1.171   2.083 -2.0187 -0.5045 -0.1697
 6386TIP3   OH240648   1.485   3.798   2.251 -0.2339 -0.5899  0.2090
 6386TIP3    H140649   1.491   3.881   2.202  0.0032  0.1717  1.4909
 6386TIP3    H240650   1.559   3.747   2.220 -0.4185 -0.3580 -0.6480
 6387TIP3   OH240651   4.235   4.380  13.242 -0.1861  0.6912  0.0154
 6387TIP3    H140652   4.321   4.341  13.226 -1.2863 -1.0336 -2.3134
 6387TIP3    H240653   4.254   4.470  13.269  2.3397  0.1885  0.1412
 6388TIP3   OH240654   4.550   5.359   1.862 -0.3374  0.5106 -0.4042
 6388TIP3    H140655   4.527   5.451   1.848 -0.4191  0.5328 -0.1280
 6388TIP3    H240656   4.579   5.355   1.953 -2.4598 -0.1593  0.2858
 6389TIP3   OH240657   1.078   5.381   0.072  0.2061 -0.1506  0.2476
 6389TIP3    H140658   1.121   5.383   0.157 -0.5202  0.9220  0.6149
 6389TIP3    H240659   1.130   5.321   0.020  1.2013 -0.1124  1.1675
 6390TIP3   OH240660   0.345   4.030   5.639  0.4517 -0.2602  0.0782
 6390TIP3    H140661   0.331   3.954   5.696  1.3246 -0.4926  0.0087
 6390TIP3    H240662   0.278   4.092   5.664  0.6647 -0.4588  1.1979
 6391TIP3   OH240663   1.110   6.440  11.214  0.1592  0.0236 -0.6116
 6391TIP3    H140664   1.098   6.345  11.221  2.4765 -0.2766  0.0721
 6391TIP3    H240665   1.078   6.475  11.298  1.2533 -0.4088  0.0006
 6392TIP3   OH240666   5.883   5.691   4.589 -0.1299 -0.4632 -0.4716
 6392TIP3    H140667   5.789   5.679   4.570  0.1775 -3.2051 -0.6869
 6392TIP3    H240668   5.918   5.731   4.509 -0.9622 -0.1376 -0.6901
 6393TIP3   OH240669   5.277   2.122   5.714 -0.1563 -0.0743  0.5137
 6393TIP3    H140670   5.248   2.049   5.660  0.7554  0.7584 -1.1764
 6393TIP3    H240671   5.223   2.196   5.686 -0.4105  0.1445  1.5283
 6394TIP3   OH240672   4.655   6.652  15.643 -0.1902 -0.4308  0.5836
 6394TIP3    H140673   4.707   6.666  15.564 -0.0721  0.1844  0.7700
 6394TIP3    H240674   4.651   6.738  15.685  1.7709 -1.1899  2.5124
 6395TIP3   OH240675   4.808   6.311  11.991  0.2745  0.0622  0.1704
 6395TIP3    H140676   4.848   6.323  12.077 -0.7544  1.1147  0.5266
 6395TIP3    H240677   4.828   6.392  11.944  2.1601 -1.1026 -1.1784
 6396TIP3   OH240678   0.988   5.321  13.499  0.0927 -0.7021 -0.4633
 6396TIP3    H140679   0.937   5.240  13.510  0.7238 -1.1854 -1.0246
 6396TIP3    H240680   1.079   5.293  13.501  0.4407  0.3393  2.0317
 6397TIP3   OH240681   3.080   0.872  15.386 -0.4010 -0.1150  0.0025
 6397TIP3    H140682   3.107   0.917  15.306  0.2875 -1.6063 -0.6508
 6397TIP3    H240683   3.048   0.786  15.356 -0.7248 -0.4704  1.2775
 6398TIP3   OH240684   2.263   6.521   3.454  0.0576 -0.9212 -0.3203
 6398TIP3    H140685   2.284   6.585   3.386  0.4244 -0.6404  0.0484
 6398TIP3    H240686   2.234   6.574   3.528 -0.3627 -1.2257 -0.2641
 6399TIP3   OH240687   3.964   3.545  12.828 -0.2750 -0.3589 -0.5099
 6399TIP3    H140688   4.030   3.590  12.775 -1.0801  0.0651 -1.1815
 6399TIP3    H240689   3.977   3.580  12.916  1.1848 -1.1861 -0.3570
 6400TIP3   OH240690   3.239   1.041   0.632 -0.1145  0.1578 -0.2000
 6400TIP3    H140691   3.323   1.068   0.670  0.1946 -0.7008 -0.2333
 6400TIP3    H240692   3.258   0.956   0.592 -1.0942 -0.2179  0.1116
 6401TIP3   OH240693   1.720   5.550  16.737 -0.1926  0.6992 -0.2755
 6401TIP3    H140694   1.806   5.544  16.694  0.3108  0.2980  0.7717
 6401TIP3    H240695   1.740   5.576  16.827 -1.0735 -0.6695  0.3461
 6402TIP3   OH240696   2.666   2.954  15.995  0.2565  0.5524  0.3539
 6402TIP3    H140697   2.630   2.867  16.013  1.9220 -0.4961 -1.0311
 6402TIP3    H240698   2.656   3.002  16.077 -2.5613 -0.2168  0.5681
 6403TIP3   OH240699   3.762   2.353   3.122 -0.3507 -0.5582 -0.3224
 6403TIP3    H140700   3.750   2.271   3.170  2.4768  0.2823  2.1715
 6403TIP3    H240701   3.704   2.415   3.167  0.2129 -0.4200  0.2406
 6404TIP3   OH240702   5.842   4.522   0.436  0.3240 -0.2525  0.8361
 6404TIP3    H140703   5.849   4.591   0.370  0.9297 -0.6002  0.5300
 6404TIP3    H240704   5.757   4.482   0.418  0.8740 -0.9578 -0.3630
 6405TIP3   OH240705   5.007   0.796   5.360 -0.4749 -0.0407  0.0954
 6405TIP3    H140706   5.083   0.834   5.405 -0.6113 -1.3885  1.5626
 6405TIP3    H240707   5.044   0.737   5.295 -0.2814  1.3950 -1.1563
 6406TIP3   OH240708   4.359   4.178   0.182 -0.0184 -0.5840  0.4402
 6406TIP3    H140709   4.420   4.150   0.114  0.8858  0.2563  0.8789
 6406TIP3    H240710   4.309   4.250   0.142 -0.3002 -0.8666  0.2825
 6407TIP3   OH240711   0.648   0.668   1.697 -0.4993  0.2242 -0.2529
 6407TIP3    H140712   0.710   0.654   1.626 -0.8729 -0.4885 -0.4479
 6407TIP3    H240713   0.694   0.726   1.758 -0.4839  1.5387 -1.4548
 6408TIP3   OH240714   5.463   1.025  17.203  0.9155  0.5549  0.4246
 6408TIP3    H140715   5.556   1.007  17.218  0.6072 -1.8319 -0.1514
 6408TIP3    H240716   5.463   1.095  17.137  2.3919 -1.3238 -1.7321
 6409TIP3   OH240717   0.920   1.686   6.627 -0.1176  0.4681 -0.3815
 6409TIP3    H140718   0.926   1.781   6.623 -0.1648  0.5910  1.5677
 6409TIP3    H240719   0.981   1.655   6.561 -0.4276  1.8398 -1.3523
 6410TIP3   OH240720   5.824   1.241   5.520 -0.5129  0.2249 -0.2553
 6410TIP3    H140721   5.753   1.269   5.579 -0.7675 -0.7664 -0.0777
 6410TIP3    H240722   5.904   1.259   5.569 -0.5579  2.2076 -0.8087
 6411TIP3   OH240723   1.648   3.593   0.483  0.1022  0.2106  0.2923
 6411TIP3    H140724   1.632   3.672   0.431 -1.2108  0.2719  0.7375
 6411TIP3    H240725   1.701   3.623   0.556  1.6362  0.1984 -0.7676
 6412TIP3   OH240726   2.184   4.954   5.407 -0.1500  0.2656  0.2693
 6412TIP3    H140727   2.228   4.883   5.453  0.1892  0.8003  0.7822
 6412TIP3    H240728   2.124   4.991   5.471  0.4411  1.1207  0.3347
 6413TIP3   OH240729   6.419   3.552  16.312 -0.5945 -0.0364  0.4210
 6413TIP3    H140730   6.330   3.522  16.330 -1.7611  1.6838 -1.8338
 6413TIP3    H240731   6.428   3.542  16.217  1.6866 -0.2902  0.6205
 6414TIP3   OH240732   2.788   6.096   4.502 -0.5223 -0.0874 -1.1117
 6414TIP3    H140733   2.869   6.057   4.535 -1.3921 -0.3544  0.8485
 6414TIP3    H240734   2.816   6.170   4.448  1.0365  1.3326  1.4470
 6415TIP3   OH240735   2.202   1.280   2.038 -0.3970 -0.2614  0.0441
 6415TIP3    H140736   2.193   1.221   1.964 -2.2383 -1.2763  0.9892
 6415TIP3    H240737   2.264   1.237   2.097 -0.8116 -0.6816  0.1801
 6416TIP3   OH240738   1.745   6.040   3.794 -0.0159 -0.4313  0.6277
 6416TIP3    H140739   1.717   5.955   3.760  5.1554 -2.2766  0.1013
 6416TIP3    H240740   1.730   6.034   3.888  0.8910 -2.3303  0.7084
 6417TIP3   OH240741   0.110   1.755  12.862 -0.6293 -0.7076 -0.4064
 6417TIP3    H140742   0.190   1.766  12.811  0.6587  0.4434  1.7406
 6417TIP3    H240743   0.111   1.662  12.887 -1.2651 -1.2860 -2.3276
 6418TIP3   OH240744   6.314   0.867  14.358  0.9951 -0.3547 -0.4699
 6418TIP3    H140745   6.220   0.886  14.358  0.3224 -3.1060  1.5944
 6418TIP3    H240746   6.354   0.945  14.397 -0.1417  1.4943 -2.7174
 6419TIP3   OH240747   0.605   0.027  12.321  0.0808 -0.0318  0.3363
 6419TIP3    H140748   0.542   0.100  12.319 -0.2566 -0.2878  1.0956
 6419TIP3    H240749   0.650   0.038  12.405  0.8415 -0.0311 -0.0711
 6420TIP3   OH240750   0.648   3.522  16.890  0.0237  0.0149  0.0853
 6420TIP3    H140751   0.616   3.603  16.851 -0.7693 -0.1853  0.2971
 6420TIP3    H240752   0.742   3.521  16.871 -0.0972  0.6107 -0.5770
 6421TIP3   OH240753   5.168   4.880   0.140 -0.0100  0.5840 -0.0398
 6421TIP3    H140754   5.103   4.945   0.168  0.4739  0.9368  0.2855
 6421TIP3    H240755   5.161   4.879   0.045 -0.9240  0.1634  0.0230
 6422TIP3   OH240756   3.882   6.730  12.376 -0.0325 -0.0802 -0.0766
 6422TIP3    H140757   3.823   6.768  12.441  0.2121  0.4890 -0.1859
 6422TIP3    H240758   3.861   6.776  12.295  0.3440 -0.0988 -0.1844
 6423TIP3   OH240759   5.559   0.420   0.565 -0.3055  0.1970 -0.1981
 6423TIP3    H140760   5.502   0.435   0.640  1.0912  1.6036  0.6393
 6423TIP3    H240761   5.644   0.452   0.593  0.7116 -1.0471 -1.7158
 6424TIP3   OH240762   4.418   5.511  15.918  0.1955 -0.1266 -0.0675
 6424TIP3    H140763   4.356   5.489  15.987 -0.3132  1.1746 -0.0877
 6424TIP3    H240764   4.485   5.564  15.961 -0.9628  2.0597 -0.8257
 6425TIP3   OH240765   0.963   2.459  11.311 -0.9071  0.3316  0.1404
 6425TIP3    H140766   0.884   2.466  11.365 -0.7818  0.9428  0.2564
 6425TIP3    H240767   1.031   2.430  11.373 -1.3090 -1.5174 -0.2282
 6426TIP3   OH240768   2.282   2.175   4.192  0.1120  0.6297  0.0159
 6426TIP3    H140769   2.243   2.248   4.143  1.0654  0.4593 -1.0263
 6426TIP3    H240770   2.208   2.138   4.241 -0.4246  2.1592  0.4150
 6427TIP3   OH240771   2.681   1.180  16.900  0.3332 -0.0564 -0.6548
 6427TIP3    H140772   2.628   1.134  16.834  0.2334  0.4707 -0.9456
 6427TIP3    H240773   2.678   1.272  16.873  0.9845  0.0478 -0.3877
 6428TIP3   OH240774   4.211   5.244   2.405 -0.1432  0.1337 -0.5328
 6428TIP3    H140775   4.137   5.187   2.383 -0.5621  0.2635  0.4881
 6428TIP3    H240776   4.195   5.323   2.352 -0.5824  0.0444 -0.5426
 6429TIP3   OH240777   1.271   2.928  13.418  0.3070  0.0540 -0.3265
 6429TIP3    H140778   1.313   2.986  13.481 -0.2062 -1.2544  1.2822
 6429TIP3    H240779   1.309   2.842  13.436 -1.5513 -0.7798 -0.1872
 6430TIP3   OH240780   5.817   6.022  13.407 -0.4252  0.2129  0.3640
 6430TIP3    H140781   5.832   6.101  13.356 -0.7981  1.0624  1.5317
 6430TIP3    H240782   5.722   6.010  13.405 -0.5041  0.6059  1.3494
 6431TIP3   OH240783   3.373   5.707  11.557 -0.2853  0.7369  0.7226
 6431TIP3    H140784   3.437   5.773  11.585  0.8193 -0.5644  1.4133
 6431TIP3    H240785   3.335   5.674  11.638  0.0818 -0.3273  0.4796
 6432TIP3   OH240786   4.861   4.199   4.139 -0.0818 -0.0462  0.1835
 6432TIP3    H140787   4.835   4.220   4.050 -0.8659 -1.0520  0.1488
 6432TIP3    H240788   4.813   4.261   4.194 -0.8248 -0.4315 -0.0160
 6433TIP3   OH240789   1.467   5.958   4.902  0.2289  0.1793  0.1666
 6433TIP3    H140790   1.408   5.884   4.919 -0.0151 -0.0385 -1.5179
 6433TIP3    H240791   1.459   5.975   4.808  2.7920  0.2070 -0.1048
 6434TIP3   OH240792   4.406   3.210   2.799  0.0137 -0.4153 -0.2589
 6434TIP3    H140793   4.465   3.242   2.867 -0.3305 -0.1127 -0.0961
 6434TIP3    H240794   4.454   3.139   2.757  0.4220 -0.2876 -0.0163
 6435TIP3   OH240795   3.540   1.827   3.967  0.0284 -0.1482 -0.0916
 6435TIP3    H140796   3.484   1.756   3.998  0.0802 -0.1198  0.0683
 6435TIP3    H240797   3.609   1.834   4.033  0.1767 -0.1310 -0.2476
 6436TIP3   OH240798   6.734   4.031  16.315 -0.1423  0.3401 -0.1103
 6436TIP3    H140799   6.696   4.061  16.397 -0.2545 -0.1840  0.0311
 6436TIP3    H240800   6.714   3.938  16.311 -0.2977  0.3957 -0.8226
 6437TIP3   OH240801   2.583   3.828  14.771  0.3450 -0.5560  0.6589
 6437TIP3    H140802   2.598   3.837  14.677  2.4780 -0.2948  0.9763
 6437TIP3    H240803   2.671   3.815  14.809 -0.3976 -0.1313  2.6698
 6438TIP3   OH240804   0.378   5.551  16.782  0.0314 -0.1476  0.6618
 6438TIP3    H140805   0.386   5.636  16.739 -0.4347 -0.1887  0.4980
 6438TIP3    H240806   0.354   5.491  16.712  2.4532 -0.8432  0.3341
 6439TIP3   OH240807   4.389   2.682  14.155  0.4996  0.6670 -0.2208
 6439TIP3    H140808   4.305   2.728  14.150  0.2141  0.0530 -1.8436
 6439TIP3    H240809   4.410   2.680  14.248 -0.3375  2.5167  0.0524
 6440TIP3   OH240810   1.400   1.731  12.823 -0.0004  0.1514 -0.0292
 6440TIP3    H140811   1.341   1.807  12.816  0.9229  0.8468 -0.3837
 6440TIP3    H240812   1.433   1.718  12.735 -0.0360 -0.5870  0.0620
 6441TIP3   OH240813   6.194   3.158  16.352  0.5042 -0.6159 -0.4194
 6441TIP3    H140814   6.207   3.065  16.374  1.8235 -0.3938 -0.1970
 6441TIP3    H240815   6.143   3.157  16.271  0.2216 -1.5209 -0.2423
 6442TIP3   OH240816   5.990   2.070  16.100  0.9152  0.8218 -0.4084
 6442TIP3    H140817   5.905   2.113  16.109 -0.5379 -1.4610 -2.2073
 6442TIP3    H240818   6.047   2.138  16.063 -1.0651  1.5067 -2.4497
 6443TIP3   OH240819   2.359   0.458  14.394  0.0481  0.4134  0.2980
 6443TIP3    H140820   2.440   0.508  14.385  0.1437  0.3871  0.9432
 6443TIP3    H240821   2.371   0.382  14.337 -0.8766  2.0464 -2.2083
 6444TIP3   OH240822   2.192   3.521   0.688  0.2774 -0.0133  0.1125
 6444TIP3    H140823   2.254   3.591   0.709  0.3568  1.4592 -3.9615
 6444TIP3    H240824   2.148   3.552   0.608 -2.7346 -2.8520  0.4551
 6445TIP3   OH240825   6.216   0.524  12.832 -0.1374 -0.0898 -0.2774
 6445TIP3    H140826   6.163   0.447  12.812 -0.5737  0.3006 -0.6547
 6445TIP3    H240827   6.185   0.591  12.771  0.7336  0.1771 -0.4355
 6446TIP3   OH240828   5.745   2.632  12.096  0.1381 -0.1776 -0.3694
 6446TIP3    H140829   5.814   2.695  12.078  0.0519 -0.1048 -0.4447
 6446TIP3    H240830   5.727   2.641  12.189 -0.6014  0.6437 -0.5847
 6447TIP3   OH240831   1.229   3.838   1.621  0.3229  0.2795 -0.0444
 6447TIP3    H140832   1.179   3.779   1.565  1.0355  0.0453 -0.4478
 6447TIP3    H240833   1.206   3.813   1.710 -0.6321  0.4939 -0.2246
 6448TIP3   OH240834   2.968   3.178  16.970  0.4121 -0.1855 -0.0564
 6448TIP3    H140835   2.963   3.231  16.890  0.8620  1.8496  1.1955
 6448TIP3    H240836   2.878   3.150  16.986  0.4036 -1.1093 -1.5587
 6449TIP3   OH240837   1.526   4.608   0.256  0.3631 -0.1276 -0.3575
 6449TIP3    H140838   1.618   4.589   0.235  0.4457  0.3773 -0.4564
 6449TIP3    H240839   1.530   4.681   0.317  0.1282 -1.6191  1.5268
 6450TIP3   OH240840   0.448   3.024  11.392 -0.6219  0.2674  0.5964
 6450TIP3    H140841   0.432   3.100  11.337 -0.1840  0.9251  1.3664
 6450TIP3    H240842   0.477   3.060  11.476  2.6762 -0.7449  0.0313
 6451TIP3   OH240843   6.757   3.835   3.075 -0.1313  0.3801 -0.5590
 6451TIP3    H140844   6.671   3.803   3.101  0.4427  0.5691  1.8076
 6451TIP3    H240845   6.818   3.767   3.104  0.7510  1.6768  0.7728
 6452TIP3   OH240846   6.384   6.499  16.958  0.0259 -0.3922  0.2129
 6452TIP3    H140847   6.339   6.550  16.891 -0.5095 -3.5545 -2.0540
 6452TIP3    H240848   6.473   6.536  16.961 -0.4809  0.9804 -0.8939
 6453TIP3   OH240849   2.602   2.388  11.006  0.0661  0.1053  0.2484
 6453TIP3    H140850   2.664   2.439  10.954  0.3420 -1.1160 -0.6611
 6453TIP3    H240851   2.638   2.299  11.005 -1.2321 -0.4408  0.4576
 6454TIP3   OH240852   6.020   1.078   4.055  0.4086  0.5919  0.0729
 6454TIP3    H140853   5.998   1.044   4.141 -0.9225  0.6796 -0.2157
 6454TIP3    H240854   5.942   1.127   4.027  0.3015 -0.5056 -1.7238
 6455TIP3   OH240855   4.985   4.611  13.248  0.6715 -0.1768 -0.0506
 6455TIP3    H140856   5.009   4.695  13.285  1.2843 -0.5021  0.3115
 6455TIP3    H240857   4.952   4.632  13.160 -2.4804  0.7918  1.2079
 6456TIP3   OH240858   3.091   6.278   4.463  0.2498  0.0634  0.1424
 6456TIP3    H140859   3.156   6.221   4.504  0.2043  0.1245  0.3041
 6456TIP3    H240860   3.044   6.222   4.401 -0.5505 -0.3706  1.1124
 6457TIP3   OH240861   5.176   2.159  14.376  0.7202 -0.4470  0.1385
 6457TIP3    H140862   5.120   2.102  14.324 -0.5981  0.8993  0.0129
 6457TIP3    H240863   5.264   2.126  14.361  0.1278 -1.6180 -0.9710
 6458TIP3   OH240864   0.098   5.171  17.193  0.7804 -0.0161 -0.2497
 6458TIP3    H140865   0.142   5.118  17.260 -1.5896  0.8185  2.0968
 6458TIP3    H240866   0.157   5.245  17.178  1.6542 -0.5636  0.3922
 6459TIP3   OH240867   0.896   5.082   6.332  0.4486  0.1747  0.2686
 6459TIP3    H140868   0.859   5.019   6.270 -0.0897 -0.0105  0.7638
 6459TIP3    H240869   0.834   5.082   6.405  1.5194 -0.2832  1.2124
 6460TIP3   OH240870   5.684   5.302   2.903 -0.4867  0.5857  0.5757
 6460TIP3    H140871   5.618   5.311   2.972  0.4842  2.9964  1.3015
 6460TIP3    H240872   5.728   5.219   2.922 -2.1644 -0.2305  1.0766
 6461TIP3   OH240873   5.757   5.731   3.130 -0.1245 -0.8108  0.0475
 6461TIP3    H140874   5.667   5.753   3.110  0.4089  0.3054 -1.3121
 6461TIP3    H240875   5.784   5.671   3.060  0.9136  0.9112 -1.1334
 6462TIP3   OH240876   0.370   0.448  15.467  0.2990  0.0078 -0.5636
 6462TIP3    H140877   0.287   0.400  15.468  0.3725 -0.1379 -1.0102
 6462TIP3    H240878   0.393   0.458  15.559 -0.4352  0.4389 -0.4189
 6463TIP3   OH240879   3.979   4.970  15.816  0.0375  0.5698 -0.5774
 6463TIP3    H140880   3.987   4.886  15.861 -0.1187  0.1817 -1.2599
 6463TIP3    H240881   3.939   4.948  15.731 -0.5548  1.4031 -0.5274
 6464TIP3   OH240882   1.900   2.629   4.836  0.7081  0.2723 -0.2210
 6464TIP3    H140883   1.837   2.701   4.849  1.9424  1.6825 -1.5869
 6464TIP3    H240884   1.949   2.625   4.918  0.8044  1.1920 -0.2216
 6465TIP3   OH240885   4.118   4.765  17.095 -0.0677 -0.0509  0.3693
 6465TIP3    H140886   4.096   4.791  17.006 -0.0155  3.1814  1.1634
 6465TIP3    H240887   4.038   4.726  17.130 -0.6381  0.2918 -0.5341
 6466TIP3   OH240888   5.698   5.573   0.137  0.3802  0.4523 -0.2555
 6466TIP3    H140889   5.658   5.628   0.204 -1.4482  0.7236 -1.5257
 6466TIP3    H240890   5.792   5.573   0.159  0.0517  1.8796  1.2996
 6467TIP3   OH240891   1.720   2.156  13.812 -0.6041  0.5209 -0.5221
 6467TIP3    H140892   1.645   2.216  13.819  0.8382  2.3101  0.3275
 6467TIP3    H240893   1.777   2.198  13.747  1.7060  1.5957  2.0471
 6468TIP3   OH240894   1.545   0.724  12.906 -0.4586  0.4846 -0.1771
 6468TIP3    H140895   1.454   0.695  12.905  0.2772 -2.1055 -0.6100
 6468TIP3    H240896   1.547   0.796  12.968 -2.8785  0.9799 -0.5721
 6469TIP3   OH240897   5.127   3.483   1.122  0.0137 -0.3520 -0.4090
 6469TIP3    H140898   5.110   3.549   1.189  0.5683 -0.8991  0.2837
 6469TIP3    H240899   5.046   3.432   1.117  0.3365 -1.0054  0.6539
 6470TIP3   OH240900   5.631   5.816  12.214  0.0280 -0.3506 -0.3171
 6470TIP3    H140901   5.637   5.902  12.255 -0.4230  0.3126 -1.5925
 6470TIP3    H240902   5.708   5.810  12.158  0.5174 -1.1485  0.4208
 6471TIP3   OH240903   4.523   2.021  12.340 -0.0595  0.5249  0.4872
 6471TIP3    H140904   4.568   2.006  12.424  2.1056  0.1962 -0.6533
 6471TIP3    H240905   4.580   2.083  12.294 -0.6700 -0.0793 -1.1307
 6472TIP3   OH240906   5.140   2.721  13.451 -0.3995  0.0683 -0.3198
 6472TIP3    H140907   5.108   2.631  13.450 -0.6467  0.1559 -0.3822
 6472TIP3    H240908   5.098   2.761  13.528 -0.3447  0.1495 -0.3310
 6473TIP3   OH240909   3.155   4.591  12.493 -0.2129  0.2579  0.2127
 6473TIP3    H140910   3.097   4.662  12.521  1.2784  1.2036  0.9955
 6473TIP3    H240911   3.131   4.517  12.550 -1.6434  0.1488 -0.4852
 6474TIP3   OH240912   4.476   5.254  16.744 -0.1713 -0.0501  0.0382
 6474TIP3    H140913   4.549   5.224  16.690  0.7594  1.1572  0.5939
 6474TIP3    H240914   4.403   5.199  16.716  0.9934 -1.5048 -0.3346
 6475TIP3   OH240915   4.010   6.405  16.623 -0.1798 -0.0762  0.6906
 6475TIP3    H140916   4.033   6.363  16.705 -0.3819 -0.7315  0.4195
 6475TIP3    H240917   4.057   6.354  16.556 -0.8237 -0.1939  0.3154
 6476TIP3   OH240918   6.444   0.837  11.232  0.6876  0.0685  0.7063
 6476TIP3    H140919   6.520   0.778  11.228  0.8554  0.3404 -1.7538
 6476TIP3    H240920   6.444   0.881  11.147  0.5006  3.6149  2.3786
 6477TIP3   OH240921   3.904   3.068  12.588  0.0012 -0.1590  0.1848
 6477TIP3    H140922   3.887   3.161  12.607 -0.1964 -0.2661  0.5460
 6477TIP3    H240923   3.841   3.046  12.519  1.4863  0.5294 -1.4470
 6478TIP3   OH240924   6.773   1.363  11.754  0.0249 -0.2504 -0.4251
 6478TIP3    H140925   6.742   1.273  11.752  1.7678 -0.8768 -0.7920
 6478TIP3    H240926   6.833   1.369  11.679  2.2564  0.3155  1.3087
 6479TIP3   OH240927   4.359   1.795   5.550  0.4633 -0.2143 -0.1441
 6479TIP3    H140928   4.267   1.773   5.565  0.5275 -0.1782  0.3074
 6479TIP3    H240929   4.407   1.747   5.618  0.6266  1.1699  0.7595
 6480TIP3   OH240930   4.081   3.817   2.769  0.3133  0.3298  0.1856
 6480TIP3    H140931   4.076   3.800   2.674 -1.7341 -0.5491  0.3972
 6480TIP3    H240932   4.010   3.764   2.806 -0.1056  2.0848  2.0212
 6481TIP3   OH240933   2.144   1.742  13.207 -0.2405  0.1553 -0.3680
 6481TIP3    H140934   2.231   1.730  13.169  0.3456  2.1135  0.2099
 6481TIP3    H240935   2.159   1.744  13.302 -0.6080  2.0859 -0.2921
 6482TIP3   OH240936   2.198   1.051  10.887 -0.4740  0.3942  0.0659
 6482TIP3    H140937   2.274   0.994  10.873 -0.4576  0.5292 -0.4177
 6482TIP3    H240938   2.123   0.992  10.883 -0.5588  0.5796 -1.8111
 6483TIP3   OH240939   5.902   2.084  11.228  0.0866  0.1538  0.2714
 6483TIP3    H140940   5.909   2.180  11.226  0.3947  0.1902  1.7355
 6483TIP3    H240941   5.961   2.058  11.299 -0.3994 -1.0871  0.2344
 6484TIP3   OH240942   1.431   5.559   3.550 -0.2924  0.2925 -0.0037
 6484TIP3    H140943   1.477   5.557   3.634 -1.3588 -2.1868  0.6041
 6484TIP3    H240944   1.351   5.609   3.568  0.0438  0.7870  0.1290
 6485TIP3   OH240945   3.511   0.856  14.709  0.0661 -0.4724  0.0817
 6485TIP3    H140946   3.525   0.893  14.796 -0.4328  1.1431 -0.4890
 6485TIP3    H240947   3.581   0.792  14.699 -0.5792 -1.5643  2.1237
 6486TIP3   OH240948   5.062   3.546   2.153 -0.1534 -0.1761 -0.5483
 6486TIP3    H140949   5.158   3.544   2.146  0.2073  0.1269  2.6611
 6486TIP3    H240950   5.032   3.475   2.096  2.1234 -1.5775 -0.1293
 6487TIP3   OH240951   3.443   2.411  12.748  0.1181  0.1845  0.3127
 6487TIP3    H140952   3.349   2.398  12.737 -0.3903  2.7645  1.0273
 6487TIP3    H240953   3.458   2.404  12.842  0.0697  2.5662  0.5667
 6488TIP3   OH240954   3.061   2.592  12.715 -0.0607 -0.1941 -0.2946
 6488TIP3    H140955   3.121   2.517  12.715  0.3033  0.0834  0.3421
 6488TIP3    H240956   3.011   2.583  12.634 -1.1818 -2.0477  0.5424
 6489TIP3   OH240957   5.042   0.609  10.496 -0.2297  0.4923 -0.7229
 6489TIP3    H140958   5.066   0.631  10.586 -1.7507 -0.5674 -0.0053
 6489TIP3    H240959   5.023   0.693  10.455 -1.6130  0.8935  0.6191
 6490TIP3   OH240960   1.199   6.336  16.496 -0.1556  0.6042 -0.7878
 6490TIP3    H140961   1.253   6.257  16.499 -2.9459 -1.4693  2.9558
 6490TIP3    H240962   1.224   6.385  16.574 -3.2858 -0.3480  0.9735
 6491TIP3   OH240963   4.404   5.576  15.135  0.1060 -0.7390  0.5247
 6491TIP3    H140964   4.484   5.546  15.179  0.2389 -1.4383 -0.1833
 6491TIP3    H240965   4.364   5.637  15.197  1.0151 -0.6419  1.0279
 6492TIP3   OH240966   0.510   3.142  11.617  0.4312  0.8704  0.1313
 6492TIP3    H140967   0.479   3.231  11.605 -0.4402  0.9169  2.3134
 6492TIP3    H240968   0.584   3.150  11.678 -0.4884  0.0246  1.4037
 6493TIP3   OH240969   1.795   3.521  12.319 -0.1244  0.4462 -0.1372
 6493TIP3    H140970   1.874   3.517  12.373 -0.4544  0.2531  0.3404
 6493TIP3    H240971   1.812   3.461  12.247  0.0812  0.2506  0.0739
 6494TIP3   OH240972   0.320   5.128   0.562 -0.2849  0.9524  0.0193
 6494TIP3    H140973   0.314   5.118   0.657  2.8907  0.0698  0.2126
 6494TIP3    H240974   0.252   5.070   0.528  1.8032 -2.8542  1.7356
 6495TIP3   OH240975   0.181   5.743  15.965  0.3219 -0.9192  0.4539
 6495TIP3    H140976   0.162   5.683  16.037 -0.3242 -1.6717 -0.3207
 6495TIP3    H240977   0.273   5.730  15.946 -0.1641 -2.8897 -0.7700
 6496TIP3   OH240978   1.409   2.303   3.770  0.1428 -0.2414  0.1222
 6496TIP3    H140979   1.404   2.215   3.733  1.0338 -0.2242 -0.0463
 6496TIP3    H240980   1.441   2.358   3.699  0.5945  0.0288  0.5248
 6497TIP3   OH240981   1.109   3.267   2.144  0.5564  0.3338  0.6744
 6497TIP3    H140982   1.185   3.239   2.195  1.0525  0.5095  0.0363
 6497TIP3    H240983   1.083   3.190   2.095  1.0205  0.5676  0.0402
 6498TIP3   OH240984   4.452   4.230   1.088  0.1234  0.6016  0.1880
 6498TIP3    H140985   4.443   4.307   1.144 -0.2387  0.3401  0.4940
 6498TIP3    H240986   4.439   4.263   0.999  2.3198  1.3402  0.0594
 6499TIP3   OH240987   4.627   0.182  16.101  0.0826 -0.1738  0.5042
 6499TIP3    H140988   4.719   0.195  16.126  0.5471 -1.0032 -0.6876
 6499TIP3    H240989   4.592   0.271  16.092  1.2844  0.2095 -0.7662
 6500TIP3   OH240990   3.264   3.486   5.095 -0.0462 -0.6705 -0.2047
 6500TIP3    H140991   3.205   3.557   5.120  1.9847  1.3791 -0.9314
 6500TIP3    H240992   3.315   3.468   5.174  0.0475 -0.7316 -0.2791
 6501TIP3   OH240993   6.192   0.124   3.584  0.0392 -0.4050  0.2424
 6501TIP3    H140994   6.133   0.142   3.658 -0.4456 -0.4928 -0.1158
 6501TIP3    H240995   6.200   0.209   3.540  0.5834 -0.2804  0.5733
 6502TIP3   OH240996   5.001   6.495   1.275  0.3812  0.3273  0.8182
 6502TIP3    H140997   5.023   6.403   1.290  0.9933  0.4161  0.4718
 6502TIP3    H240998   4.924   6.510   1.330  0.7376 -0.1818  1.4677
 6503TIP3   OH240999   1.663   5.489   2.766  0.1220 -0.1432 -0.0659
 6503TIP3    H141000   1.635   5.414   2.713 -0.1776  0.3376 -0.5935
 6503TIP3    H241001   1.622   5.565   2.725 -0.5630  0.1934  1.1630
 6504TIP3   OH241002   0.399   2.942   5.514 -0.4478  0.4754 -0.2002
 6504TIP3    H141003   0.409   3.037   5.525 -0.6618  0.4225  0.5495
 6504TIP3    H241004   0.451   2.904   5.585 -2.2303  0.1028  0.9729
 6505TIP3   OH241005   3.910   6.343   3.947  0.0300  0.0460 -0.6749
 6505TIP3    H141006   3.980   6.348   3.883 -0.5523  1.8527 -1.2043
 6505TIP3    H241007   3.900   6.432   3.980 -1.6928 -0.2610 -0.2674
 6506TIP3   OH241008   3.220   3.286  12.724 -0.3248  0.0335  0.2463
 6506TIP3    H141009   3.294   3.278  12.785 -0.6222  0.3211  0.6535
 6506TIP3    H241010   3.249   3.241  12.645 -0.0185 -0.5590  0.6870
 6507TIP3   OH241011   2.668   4.037  11.750 -0.0823 -0.0364  0.4639
 6507TIP3    H141012   2.729   4.016  11.820 -1.1369 -2.5669  0.7335
 6507TIP3    H241013   2.582   4.038  11.792 -0.6033 -0.3237 -0.5610
 6508TIP3   OH241014   2.547   2.216   3.570 -0.7275 -0.6218  0.2833
 6508TIP3    H141015   2.610   2.179   3.508 -1.1556  0.5095 -0.8739
 6508TIP3    H241016   2.601   2.259   3.636 -0.2222  0.9842 -1.0912
 6509TIP3   OH241017   6.671   4.316   2.062  0.0712  0.1942  0.2679
 6509TIP3    H141018   6.607   4.331   1.993  0.4449  0.2847 -0.0677
 6509TIP3    H241019   6.629   4.349   2.142 -1.7555 -3.0117  0.7654
 6510TIP3   OH241020   2.884   1.164   5.611 -0.2521 -0.2387 -0.0155
 6510TIP3    H141021   2.873   1.250   5.572 -1.9786 -0.8258 -0.9457
 6510TIP3    H241022   2.956   1.124   5.562 -1.3267 -0.3518 -1.5873
 6511TIP3   OH241023   1.849   1.184  17.079 -0.1504  0.1415 -0.9057
 6511TIP3    H141024   1.932   1.150  17.044 -0.3528 -1.7751  0.2917
 6511TIP3    H241025   1.875   1.258  17.134  1.0482 -1.4097  0.7657
 6512TIP3   OH241026   5.702   2.484   3.144 -0.3485  0.3272  0.0900
 6512TIP3    H141027   5.738   2.395   3.147  2.0562  1.0713 -2.1857
 6512TIP3    H241028   5.609   2.473   3.159  0.0351 -2.4505  0.9752
 6513TIP3   OH241029   5.481   0.151   0.560  0.3828 -0.2381 -0.8288
 6513TIP3    H141030   5.535   0.230   0.553 -0.9105  0.8684  0.9862
 6513TIP3    H241031   5.391   0.181   0.547 -0.1242 -1.4462 -0.3305
 6514TIP3   OH241032   6.782   6.150  12.672  0.7774 -0.6046 -0.1495
 6514TIP3    H141033   6.831   6.232  12.684  0.3582 -0.4654  0.7326
 6514TIP3    H241034   6.782   6.110  12.759  2.1957 -2.2714 -0.8570
 6515TIP3   OH241035   4.674   5.200  15.041  0.8649 -0.1904  0.0017
 6515TIP3    H141036   4.640   5.192  15.130 -1.7087 -0.9405 -0.9679
 6515TIP3    H241037   4.739   5.270  15.047 -0.2543  0.7709  2.2152
 6516TIP3   OH241038   3.777   6.514  16.752  0.0712 -0.2775 -0.7528
 6516TIP3    H141039   3.726   6.580  16.705 -0.5622 -1.2230 -1.4382
 6516TIP3    H241040   3.839   6.480  16.687 -0.1827 -0.9399 -0.6608
 6517TIP3   OH241041   5.522   1.926   0.367  0.2338 -0.4950  0.3398
 6517TIP3    H141042   5.613   1.954   0.358 -0.4537  1.4527 -1.1314
 6517TIP3    H241043   5.495   1.904   0.277 -1.0252 -0.0733  0.5996
 6518TIP3   OH241044   4.564   0.609   2.600 -0.0870  0.1617  0.5136
 6518TIP3    H141045   4.586   0.703   2.598  0.4932  0.0760  1.7946
 6518TIP3    H241046   4.649   0.565   2.601 -0.2842 -0.5164 -2.2221
 6519TIP3   OH241047   1.420   3.521  15.866 -0.4150  0.1032 -0.1726
 6519TIP3    H141048   1.476   3.573  15.924  1.8136 -1.7542 -0.4984
 6519TIP3    H241049   1.389   3.583  15.800 -0.0060  1.5117  0.9138
 6520TIP3   OH241050   2.922   2.339  14.186  0.0554 -0.1001 -0.1686
 6520TIP3    H141051   2.960   2.427  14.175  0.3627 -0.3819 -1.4606
 6520TIP3    H241052   2.907   2.308  14.097 -1.8353 -0.6135  0.2887
 6521TIP3   OH241053   1.224   1.679  15.871  0.2235  0.7116  0.1980
 6521TIP3    H141054   1.187   1.754  15.917 -0.2430  0.3189  0.4783
 6521TIP3    H241055   1.217   1.702  15.778 -0.6468  0.6882  0.2493
 6522TIP3   OH241056   5.098   0.443  13.239  0.3492  0.4910 -0.2806
 6522TIP3    H141057   5.075   0.473  13.327 -0.1400  0.2039 -0.3097
 6522TIP3    H241058   5.075   0.351  13.238 -0.6028  0.7222 -1.0365
 6523TIP3   OH241059   2.985   5.630   0.013 -0.1414  0.5332  0.0366
 6523TIP3    H141060   3.075   5.600  -0.000 -0.2172 -0.0448  0.7564
 6523TIP3    H241061   2.995   5.715   0.056  0.0622  1.0996 -1.0871
 6524TIP3   OH241062   2.568   0.869   4.429 -0.0902 -0.8552 -0.2681
 6524TIP3    H141063   2.595   0.836   4.515  0.2825  1.2873  0.5007
 6524TIP3    H241064   2.607   0.956   4.423 -0.7238 -0.6554 -2.3160
 6525TIP3   OH241065   2.258   2.008   2.630  0.2420 -0.1633  0.2122
 6525TIP3    H141066   2.249   1.946   2.558  2.8011  0.0601 -0.3877
 6525TIP3    H241067   2.213   2.087   2.598 -1.9692 -1.2138  0.4983
 6526TIP3   OH241068   5.170   3.242  15.804 -0.8978 -0.4216 -0.0665
 6526TIP3    H141069   5.143   3.249  15.896 -1.2851 -1.0748 -0.1209
 6526TIP3    H241070   5.122   3.165  15.772  0.8309 -1.4684 -0.2472
 6527TIP3   OH241071   3.836   3.007   0.939  0.3396 -0.0606 -0.0688
 6527TIP3    H141072   3.789   2.924   0.947  0.7742 -0.2665  0.3589
 6527TIP3    H241073   3.772   3.074   0.965  0.4097 -0.3745  0.9431
 6528TIP3   OH241074   5.966   4.162   5.786  0.3357 -0.0744 -0.2033
 6528TIP3    H141075   6.032   4.209   5.837  1.2765 -1.5249 -0.0282
 6528TIP3    H241076   5.917   4.230   5.741  1.3701  1.0823  0.3766
 6529TIP3   OH241077   1.554   5.603  12.351  0.1985 -0.2672  0.4233
 6529TIP3    H141078   1.566   5.589  12.445  0.3356 -1.6513  0.2213
 6529TIP3    H241079   1.473   5.556  12.330 -0.2722  0.7076 -0.0235
 6530TIP3   OH241080   1.594   2.599   2.952 -0.1866  0.1826 -0.4854
 6530TIP3    H141081   1.549   2.671   2.995 -0.9338 -1.0652  0.9308
 6530TIP3    H241082   1.659   2.641   2.895 -1.6233  1.9765 -0.8844
 6531TIP3   OH241083   4.081   6.530  15.728 -0.2343 -0.3107  0.1283
 6531TIP3    H141084   4.170   6.540  15.761 -0.7659  0.6044  1.3407
 6531TIP3    H241085   4.064   6.609  15.678 -0.6256 -0.1370  0.5315
 6532TIP3   OH241086   2.698   6.531   2.373 -0.4372 -0.2796  0.2966
 6532TIP3    H141087   2.618   6.552   2.420  0.2390  2.3988  0.3808
 6532TIP3    H241088   2.758   6.603   2.393  1.2609 -1.0938 -1.4857
 6533TIP3   OH241089   5.913   1.037  16.733  0.0224  0.1479 -0.1419
 6533TIP3    H141090   5.840   0.977  16.751 -0.3648  1.2990  2.8275
 6533TIP3    H241091   5.991   0.986  16.753  0.0457 -0.7251 -2.1987
 6534TIP3   OH241092   1.271   5.774  11.236 -0.3181 -0.1902  0.3182
 6534TIP3    H141093   1.177   5.788  11.249 -0.9401 -1.6933 -2.0478
 6534TIP3    H241094   1.295   5.839  11.170 -0.2968 -1.4300 -0.9299
 6535TIP3   OH241095   2.387   4.627   4.408 -0.6956  0.1011  0.7691
 6535TIP3    H141096   2.436   4.634   4.491 -1.0188  0.7586  0.9050
 6535TIP3    H241097   2.296   4.613   4.436 -0.5334 -1.6721  0.5189
 6536TIP3   OH241098   4.448   1.460  16.759 -0.1868  1.0131 -0.5479
 6536TIP3    H141099   4.518   1.396  16.771 -1.7184 -0.7265 -0.4329
 6536TIP3    H241100   4.481   1.540  16.799  1.5299  0.1232 -0.0941
 6537TIP3   OH241101   2.879   2.777   2.213  0.4071 -0.0135  0.0641
 6537TIP3    H141102   2.901   2.712   2.146  0.8120 -1.3316  1.4171
 6537TIP3    H241103   2.814   2.734   2.268  0.7892  0.6578  1.0847
 6538TIP3   OH241104   3.784   1.218   3.644 -0.9520  0.0277  0.5005
 6538TIP3    H141105   3.708   1.223   3.587 -1.1926 -0.6707  0.7423
 6538TIP3    H241106   3.833   1.298   3.627 -1.7673  0.5050  0.3822
 6539TIP3   OH241107   4.841   3.109  13.685 -0.2908 -0.5631  0.1766
 6539TIP3    H141108   4.883   3.065  13.611  1.4191 -2.2874  2.0733
 6539TIP3    H241109   4.803   3.039  13.737  0.7492  0.3237  2.2407
 6540TIP3   OH241110   1.823   3.343  16.154 -0.1612 -0.0890  0.2172
 6540TIP3    H141111   1.766   3.420  16.158 -0.9053 -0.6703  1.2779
 6540TIP3    H241112   1.909   3.378  16.130 -0.8934  0.8317 -1.2097
 6541TIP3   OH241113   5.529   5.243  15.199  0.4216  0.0682  0.3080
 6541TIP3    H141114   5.585   5.320  15.204 -1.4156  1.4322  2.2566
 6541TIP3    H241115   5.486   5.250  15.114  0.4684  1.0755  0.3558
 6542TIP3   OH241116   3.645   0.138   5.304  0.1884  0.9055  0.1527
 6542TIP3    H141117   3.592   0.122   5.226  0.3055  0.5731  0.1423
 6542TIP3    H241118   3.620   0.069   5.365 -0.7314  1.8026  0.8435
 6543TIP3   OH241119   0.948   6.782   0.552 -0.3617 -0.1977  0.3225
 6543TIP3    H141120   0.885   6.797   0.482 -0.7091 -0.2386  0.6287
 6543TIP3    H241121   1.001   6.708   0.521 -0.7263 -0.4293  0.2506
 6544TIP3   OH241122   1.945   3.147   5.754  0.6354  0.1670 -0.3266
 6544TIP3    H141123   1.961   3.066   5.801 -2.4938  0.5937  1.8158
 6544TIP3    H241124   1.973   3.216   5.814 -1.1604  0.6786 -0.0063
 6545TIP3   OH241125   5.346   3.474  11.181 -0.0413  0.8906 -0.1795
 6545TIP3    H141126   5.317   3.508  11.097 -0.9876 -1.4021 -0.8835
 6545TIP3    H241127   5.274   3.418  11.210  0.6379  0.9364  1.7446
 6546TIP3   OH241128   1.351   0.304  15.106 -0.0470  0.1123  0.2253
 6546TIP3    H141129   1.438   0.343  15.104  0.8863 -1.7694  1.3276
 6546TIP3    H241130   1.357   0.228  15.049 -1.3035  0.5262 -0.5070
 6547TIP3   OH241131   2.442   3.677  14.487 -0.1059 -0.0042 -0.2940
 6547TIP3    H141132   2.434   3.770  14.465  3.3011  1.1481  2.3932
 6547TIP3    H241133   2.530   3.653  14.458  0.3116 -1.4074  1.8836
 6548TIP3   OH241134   2.992   1.960   1.078  0.0168  0.2004  0.1416
 6548TIP3    H141135   3.007   2.054   1.081 -1.0424  0.4083 -0.5819
 6548TIP3    H241136   3.079   1.921   1.087  0.6935  1.2885 -1.4003
 6549TIP3   OH241137   3.392   4.631  15.598  0.4564 -0.1043 -0.4115
 6549TIP3    H141138   3.468   4.642  15.655  0.3753  2.5290 -0.7193
 6549TIP3    H241139   3.424   4.649  15.510  0.2190 -2.5608 -1.0719
 6550TIP3   OH241140   6.205   4.831   4.618  0.1523 -0.7380  0.0436
 6550TIP3    H141141   6.281   4.883   4.593 -0.5960  0.5803  0.4082
 6550TIP3    H241142   6.138   4.896   4.641 -1.1766 -1.8549 -0.5440
 6551TIP3   OH241143   4.692   1.294  12.850  0.2362 -0.2186 -0.7307
 6551TIP3    H141144   4.655   1.379  12.825 -1.1843 -0.8755 -0.9393
 6551TIP3    H241145   4.658   1.277  12.937 -1.3785 -1.5844 -1.5711
 6552TIP3   OH241146   2.418   4.247   2.572 -0.2963  0.1121 -0.1124
 6552TIP3    H141147   2.472   4.316   2.611  1.3703 -1.2968  0.2158
 6552TIP3    H241148   2.332   4.258   2.611  0.1962  1.3995  0.6577
 6553TIP3   OH241149   2.310   2.567   3.788 -0.2212 -0.6747  0.0437
 6553TIP3    H141150   2.338   2.476   3.797 -0.5314 -0.6863  1.0527
 6553TIP3    H241151   2.300   2.580   3.694 -0.8418 -1.8861 -0.0728
 6554TIP3   OH241152   3.087   3.059  11.236 -0.0796 -0.8424  0.5910
 6554TIP3    H141153   3.073   3.149  11.264  0.2307 -0.0010 -1.7160
 6554TIP3    H241154   3.019   3.044  11.170  1.2128 -1.5070 -0.6414
 6555TIP3   OH241155   4.710   0.032  14.297  0.1591 -0.0057 -0.2369
 6555TIP3    H141156   4.784   0.092  14.290 -0.3770  0.4652 -2.8642
 6555TIP3    H241157   4.746  -0.053  14.271 -0.0406  0.0507 -0.6950
 6556TIP3   OH241158   5.614   1.547   5.622  0.5355  0.4603  0.9107
 6556TIP3    H141159   5.645   1.629   5.583 -0.2010  0.2776 -0.0742
 6556TIP3    H241160   5.695   1.502   5.649  1.0104  0.9633  0.3603
 6557TIP3   OH241161   5.277   3.629   2.937 -0.3691  0.3650 -0.0545
 6557TIP3    H141162   5.362   3.672   2.945 -0.6639  0.8842  0.4037
 6557TIP3    H241163   5.214   3.694   2.967 -0.6244 -1.2177  3.3901
 6558TIP3   OH241164   2.187   0.547   2.304 -0.2048 -0.4248  0.2501
 6558TIP3    H141165   2.195   0.640   2.325  0.6098 -0.0582 -1.5326
 6558TIP3    H241166   2.162   0.546   2.211 -0.8126 -1.9896  0.4086
 6559TIP3   OH241167   3.889   0.149   5.453 -0.5917 -0.0919  0.0893
 6559TIP3    H141168   3.884   0.134   5.548  0.3075 -0.3095  0.1104
 6559TIP3    H241169   3.798   0.147   5.424 -0.7724 -1.9233  0.6670
 6560TIP3   OH241170   4.487   3.706  12.880 -0.2091  0.1357 -0.0842
 6560TIP3    H141171   4.550   3.728  12.811 -1.2231  1.1394 -0.7217
 6560TIP3    H241172   4.416   3.661  12.834 -0.7203  0.4833  0.3525
 6561TIP3   OH241173   2.452   4.997  12.525  0.0698  0.3213 -0.4593
 6561TIP3    H141174   2.462   4.954  12.610  0.7208 -0.5482 -0.9579
 6561TIP3    H241175   2.387   4.945  12.479 -2.9745  2.7914  0.7250
 6562TIP3   OH241176   6.700   0.751  17.162  0.1680 -0.4936  0.0758
 6562TIP3    H141177   6.696   0.701  17.080 -0.2622 -0.4784  0.0821
 6562TIP3    H241178   6.706   0.842  17.133 -2.0519 -0.3036  0.0059
 6563TIP3   OH241179   0.148   1.265  15.517 -0.4583 -0.0375 -0.1827
 6563TIP3    H141180   0.096   1.184  15.515 -1.1345  0.3761 -2.1535
 6563TIP3    H241181   0.095   1.328  15.467  1.2005  0.8896 -0.8375
 6564TIP3   OH241182   6.102   5.093  13.723  0.3715  0.6022  0.3318
 6564TIP3    H141183   6.168   5.079  13.655 -1.0758 -1.1383 -0.8217
 6564TIP3    H241184   6.124   5.029  13.790  0.5453  0.8386  0.5002
 6565TIP3   OH241185   2.018   4.766  13.366 -0.2612 -0.1137 -0.4480
 6565TIP3    H141186   2.010   4.842  13.423  0.6890 -0.2304 -0.1510
 6565TIP3    H241187   1.970   4.697  13.411 -0.6481  0.1498 -0.4482
 6566TIP3   OH241188   0.043   1.566  13.871  0.1513 -0.1184 -0.4187
 6566TIP3    H141189   0.053   1.660  13.882  2.2747 -0.3011 -0.2996
 6566TIP3    H241190  -0.015   1.556  13.795 -0.7384  1.2470  0.0468
 6567TIP3   OH241191   3.933   2.521   3.366 -0.1793 -0.0255  0.5150
 6567TIP3    H141192   3.989   2.589   3.401 -0.3236  0.2267  0.2585
 6567TIP3    H241193   3.900   2.474   3.443  0.7991 -0.5111  0.6506
 6568TIP3   OH241194   0.047   1.955  12.514 -0.5958  0.5243  0.4107
 6568TIP3    H141195   0.104   2.016  12.561  0.2962  2.4105 -2.7297
 6568TIP3    H241196   0.107   1.893  12.472 -0.9234  1.2474 -1.2351
 6569TIP3   OH241197   5.564   1.870   5.289  0.0591 -0.3031 -0.3245
 6569TIP3    H141198   5.652   1.873   5.252  1.2363 -1.8475  2.0603
 6569TIP3    H241199   5.560   1.945   5.349  0.5282 -1.2508  0.9607
 6570TIP3   OH241200   1.999   4.455  16.278  0.5059 -0.0360  0.1673
 6570TIP3    H141201   1.932   4.523  16.288  2.2231  1.7757 -0.0632
 6570TIP3    H241202   1.957   4.376  16.311 -1.0770  1.4284  1.9264
 6571TIP3   OH241203   0.076   1.118  16.327  0.2116  0.4301  0.4046
 6571TIP3    H141204   0.071   1.151  16.237  0.2903  0.2881  0.3471
 6571TIP3    H241205   0.123   1.187  16.375 -2.9976  2.2790  1.1992
 6572TIP3   OH241206   5.080   2.215  15.328 -0.0254  0.2297 -0.1323
 6572TIP3    H141207   5.108   2.203  15.418  1.2877 -2.0906 -0.7727
 6572TIP3    H241208   5.135   2.286  15.295  0.2996  0.3078  0.5711
 6573TIP3   OH241209   1.812   5.947  14.226 -0.1907  0.0963  0.2410
 6573TIP3    H141210   1.741   5.977  14.283 -1.2822  2.0800 -1.9822
 6573TIP3    H241211   1.843   6.027  14.182  1.7819 -1.0821 -0.6466
 6574TIP3   OH241212   4.723   4.052  14.164 -0.7043  0.0396  0.4527
 6574TIP3    H141213   4.750   3.962  14.146 -1.2655 -0.1004  0.3216
 6574TIP3    H241214   4.771   4.075  14.244  2.8018  1.1105 -1.7432
 6575TIP3   OH241215   1.042   3.735   2.559 -0.4717  0.1803 -0.3712
 6575TIP3    H141216   1.109   3.670   2.538 -1.3402 -1.3446  1.3088
 6575TIP3    H241217   0.959   3.695   2.532 -0.9404  0.9961 -0.2019
 6576TIP3   OH241218   0.312   4.946  15.244 -0.0316  0.0772 -0.7268
 6576TIP3    H141219   0.337   4.899  15.165 -0.2415  0.2873 -0.9204
 6576TIP3    H241220   0.341   4.890  15.316 -0.0945 -0.2483 -0.9539
 6577TIP3   OH241221   5.094   0.540   1.264  0.2423  0.7381  0.5424
 6577TIP3    H141222   5.000   0.548   1.246 -0.1701  0.1151  2.2895
 6577TIP3    H241223   5.118   0.624   1.304  0.5028  0.9669 -0.0645
 6578TIP3   OH241224   4.083   3.659   5.564 -0.1223 -0.0687 -0.1658
 6578TIP3    H141225   4.142   3.718   5.613 -1.5636 -0.6753  2.5203
 6578TIP3    H241226   3.996   3.699   5.574 -0.5947 -0.6910 -1.5909
 6579TIP3   OH241227   5.650   5.004  12.526 -0.1066 -0.6490  0.3942
 6579TIP3    H141228   5.646   4.942  12.453 -1.5505 -2.1128  1.6442
 6579TIP3    H241229   5.693   5.082  12.489  0.5651 -1.8850 -1.5822
 6580TIP3   OH241230   0.775   6.181   6.577  0.1417  0.8210  0.1061
 6580TIP3    H141231   0.789   6.087   6.571 -0.3213  0.7095  0.7032
 6580TIP3    H241232   0.833   6.218   6.510 -0.3121  0.0639 -0.7233
 6581TIP3   OH241233   0.856   3.878  12.911  0.1316  0.4588  0.5266
 6581TIP3    H141234   0.890   3.934  12.981  0.7631  1.2186 -0.3791
 6581TIP3    H241235   0.772   3.916  12.888 -0.3965 -0.1915  1.3205
 6582TIP3   OH241236   6.226   5.794   2.603  0.0570  0.5211 -0.1278
 6582TIP3    H141237   6.166   5.786   2.529 -0.1341  1.4882 -0.0884
 6582TIP3    H241238   6.276   5.874   2.586 -0.0014  0.7683  0.7817
 6583TIP3   OH241239   3.439   1.499  16.652  0.4474 -0.3247  0.1048
 6583TIP3    H141240   3.349   1.470  16.634  0.0268  0.1162  1.4210
 6583TIP3    H241241   3.473   1.525  16.567 -0.6136 -0.6644 -0.4401
 6584TIP3   OH241242   6.757   0.217   0.622  0.0550  0.2451  0.0156
 6584TIP3    H141243   6.749   0.276   0.547 -2.2773  0.1412  0.1156
 6584TIP3    H241244   6.689   0.246   0.682  0.6232 -0.9008  1.2479
 6585TIP3   OH241245   0.372   4.338   1.453 -0.1307 -0.2842  0.4743
 6585TIP3    H141246   0.321   4.334   1.372 -0.3947  2.9330  0.3645
 6585TIP3    H241247   0.463   4.344   1.424  0.0768 -2.2872  0.5748
 6586TIP3   OH241248   2.749   1.109   3.148 -0.2700 -0.7284 -0.0471
 6586TIP3    H141249   2.669   1.137   3.194 -0.4946 -2.5637  0.7538
 6586TIP3    H241250   2.721   1.034   3.096  0.0541  1.0883 -3.0588
 6587TIP3   OH241251   5.531   4.195  13.341 -0.0893 -0.1442  0.2828
 6587TIP3    H141252   5.621   4.182  13.371  0.5137 -0.4806 -1.5698
 6587TIP3    H241253   5.531   4.283  13.303 -1.0667  0.6278  1.9418
 6588TIP3   OH241254   1.752   4.944   5.659  0.3574  0.3879 -0.1740
 6588TIP3    H141255   1.682   4.924   5.720  1.0089 -0.0935  0.4372
 6588TIP3    H241256   1.790   5.025   5.692  0.6233  0.1994 -0.0114
 6589TIP3   OH241257   4.664   0.570  15.854  0.6978 -0.0799 -0.0571
 6589TIP3    H141258   4.671   0.478  15.829 -2.5486 -0.0456 -1.6714
 6589TIP3    H241259   4.601   0.607  15.792  2.1788  3.3868  0.2652
 6590TIP3   OH241260   2.156   1.534  14.470 -0.5569 -0.3270  0.3338
 6590TIP3    H141261   2.162   1.513  14.376  1.7264  1.4930 -0.0018
 6590TIP3    H241262   2.075   1.585  14.477 -1.3591 -1.4284 -0.3976
 6591TIP3   OH241263   4.439   3.371   1.358  0.2841  0.3732  0.0639
 6591TIP3    H141264   4.451   3.383   1.264 -1.1155  2.9392  0.1138
 6591TIP3    H241265   4.497   3.436   1.398 -0.5504  0.6628  0.8520
 6592TIP3   OH241266   4.925   2.599  10.958 -0.3284  0.1359 -0.1458
 6592TIP3    H141267   4.958   2.603  11.048 -0.4923  1.5059 -0.1224
 6592TIP3    H241268   4.978   2.532  10.915 -0.7481 -1.0985  1.1602
 6593TIP3   OH241269   5.999   3.706  14.829 -0.4999  0.3272 -0.4179
 6593TIP3    H141270   6.064   3.742  14.889 -0.1194  0.0061 -0.6302
 6593TIP3    H241271   6.048   3.644  14.775 -1.1535 -0.6059  0.0281
 6594TIP3   OH241272   1.264   0.441  13.026  0.0987  0.6390  0.0984
 6594TIP3    H141273   1.355   0.435  12.998  0.1976  0.3037  0.4780
 6594TIP3    H241274   1.254   0.371  13.091 -0.2312  1.1406  0.5998
 6595TIP3   OH241275   0.227   3.033  15.625  0.3029 -0.2357  0.0671
 6595TIP3    H141276   0.233   2.938  15.628 -3.4735 -0.6701 -0.7479
 6595TIP3    H241277   0.200   3.058  15.713 -0.4592 -0.1368 -0.1923
 6596TIP3   OH241278   3.407   2.398   0.809  0.4307 -0.3112  0.6175
 6596TIP3    H141279   3.378   2.440   0.890 -0.1513  0.5426 -0.0246
 6596TIP3    H241280   3.500   2.381   0.823  0.2286 -0.6491  1.6595
 6597TIP3   OH241281   1.810   3.502  14.309  0.3047 -0.1949 -0.2714
 6597TIP3    H141282   1.765   3.450  14.376 -0.7146  1.0465  0.0625
 6597TIP3    H241283   1.748   3.572  14.289  1.7895  1.1268 -0.3936
 6598TIP3   OH241284   6.240   1.010  10.693 -0.3453  0.2056 -0.5686
 6598TIP3    H141285   6.164   1.023  10.749  0.8386  0.1370  1.1307
 6598TIP3    H241286   6.246   0.915  10.682  0.1000  0.1345  0.2111
 6599TIP3   OH241287   3.565   4.744   0.055  0.0513 -0.2482 -0.0829
 6599TIP3    H141288   3.564   4.705  -0.032  1.6855 -1.9756  0.5849
 6599TIP3    H241289   3.651   4.786   0.062 -0.5138  0.8863  0.3026
 6600TIP3   OH241290   4.551   0.755   3.553  0.3717  0.0953  0.0441
 6600TIP3    H141291   4.637   0.768   3.594  0.0049 -1.7940  1.6114
 6600TIP3    H241292   4.502   0.834   3.574  1.1882  0.4669  0.6172
 6601TIP3   OH241293   4.744   2.340   5.504 -0.0346 -0.3305 -0.3979
 6601TIP3    H141294   4.742   2.333   5.600 -0.2960  0.6384 -0.3177
 6601TIP3    H241295   4.824   2.295   5.479  1.2805  1.3868  0.4933
 6602TIP3   OH241296   5.895   4.615  14.497  0.4740  0.3202 -0.6069
 6602TIP3    H141297   5.890   4.699  14.453 -1.4225  0.8456  0.4829
 6602TIP3    H241298   5.804   4.584  14.502  1.0896 -1.7084 -0.8019
 6603TIP3   OH241299   3.412   1.372  14.297  0.2167 -0.4306  0.6208
 6603TIP3    H141300   3.441   1.456  14.334 -0.9628  0.4215 -0.3172
 6603TIP3    H241301   3.479   1.351  14.232 -0.3075  0.6455 -0.3101
 6604TIP3   OH241302   0.176   4.752   5.395  0.3147 -0.0510  0.0807
 6604TIP3    H141303   0.264   4.769   5.362  2.3341 -2.7270  3.3975
 6604TIP3    H241304   0.158   4.662   5.370 -0.5104 -0.2468  1.3096
 6605TIP3   OH241305   5.116   4.526  15.977  0.8139  0.7154  0.1953
 6605TIP3    H141306   5.125   4.431  15.978  2.2320  0.7663 -1.6204
 6605TIP3    H241307   5.022   4.542  15.983  0.6382 -0.6941  2.2347
 6606TIP3   OH241308   3.540   1.553   6.086 -0.4942 -0.0326  0.0189
 6606TIP3    H141309   3.601   1.592   6.024 -0.9195  0.6641  0.0381
 6606TIP3    H241310   3.579   1.467   6.106  0.3948  0.3325 -0.0824
 6607TIP3   OH241311   5.429   5.799  16.001 -0.2738  1.2084 -0.1015
 6607TIP3    H141312   5.476   5.870  16.044 -0.3283  2.1242 -1.4874
 6607TIP3    H241313   5.338   5.830  15.995 -0.4677  0.6738 -0.0101
 6608TIP3   OH241314   0.016   0.892   4.085  0.8222  0.4772  0.5484
 6608TIP3    H141315  -0.016   0.803   4.096  0.9875  0.2829 -0.4304
 6608TIP3    H241316  -0.059   0.941   4.049  1.3496  0.1924 -1.0382
 6609TIP3   OH241317   1.137   5.897  13.993 -0.4622 -0.2220  0.1172
 6609TIP3    H141318   1.182   5.981  13.992 -1.0251  0.0805  0.0879
 6609TIP3    H241319   1.058   5.912  14.045  0.0239 -1.0438  1.1257
 6610TIP3   OH241320   0.826   6.552  13.104  0.1985 -0.4494 -0.0267
 6610TIP3    H141321   0.743   6.572  13.060  0.5432 -0.7113 -0.8068
 6610TIP3    H241322   0.870   6.490  13.046  1.5182  0.6705 -0.2780
 6611TIP3   OH241323   0.371   5.088  11.646  0.0975  0.0370 -0.3270
 6611TIP3    H141324   0.344   5.156  11.584 -2.1530 -1.5374 -1.2186
 6611TIP3    H241325   0.317   5.104  11.724  0.0338 -0.3186 -0.2972
 6612TIP3   OH241326   3.613   5.783   2.541  0.9265 -0.3366  0.2130
 6612TIP3    H141327   3.593   5.876   2.556  0.8787  0.4322 -3.7242
 6612TIP3    H241328   3.554   5.737   2.601 -0.2155  2.1267  1.1555
 6613TIP3   OH241329   6.270   5.902   1.545  0.1676 -0.1408 -0.8245
 6613TIP3    H141330   6.342   5.948   1.503 -0.8058  1.3160 -0.9454
 6613TIP3    H241331   6.313   5.838   1.602  1.7357  2.7719  1.5721
 6614TIP3   OH241332   1.334   6.109   4.007 -0.5384 -0.1956 -0.2526
 6614TIP3    H141333   1.368   6.021   4.025  0.2485  0.5517  2.4008
 6614TIP3    H241334   1.413   6.164   3.999 -1.0282  0.4158 -1.0366
 6615TIP3   OH241335   5.302   0.800  15.425 -0.1208  0.1972  0.5898
 6615TIP3    H141336   5.230   0.736  15.421 -0.1324  0.2137  0.5259
 6615TIP3    H241337   5.295   0.849  15.343 -1.1511  1.4133  1.3697
 6616TIP3   OH241338   1.057   6.523   0.424  0.0417  0.4547 -0.3626
 6616TIP3    H141339   1.087   6.482   0.506 -1.0178  1.2135  0.4351
 6616TIP3    H241340   1.112   6.484   0.357  0.8802 -0.2723  0.6986
 6617TIP3   OH241341   5.097   1.873   2.525 -0.3510 -0.6077 -0.0902
 6617TIP3    H141342   5.118   1.859   2.432 -0.2274 -1.3061  0.0417
 6617TIP3    H241343   5.180   1.860   2.570  0.6464  3.8260 -0.2217
 6618TIP3   OH241344   6.581   2.829   2.477 -0.0334 -0.2487 -0.1586
 6618TIP3    H141345   6.600   2.855   2.387  0.1154 -1.7946 -0.5990
 6618TIP3    H241346   6.652   2.867   2.528  1.3008 -1.3991 -1.0519
 6619TIP3   OH241347   0.879   4.595  16.235  0.2816 -0.2619 -0.3984
 6619TIP3    H141348   0.884   4.516  16.181 -2.1715  0.1838 -1.4400
 6619TIP3    H241349   0.829   4.568  16.312  3.1450 -0.7088  1.4167
 6620TIP3   OH241350   4.386   4.716   2.428 -0.2985  0.3247  0.1388
 6620TIP3    H141351   4.391   4.775   2.354  0.2617  0.0498 -0.0426
 6620TIP3    H241352   4.450   4.647   2.410 -1.3064 -0.6315  0.0890
 6621TIP3   OH241353   2.359   4.117   4.630  0.4439  0.0401 -0.0193
 6621TIP3    H141354   2.390   4.138   4.542 -1.3284  0.3701 -0.5927
 6621TIP3    H241355   2.315   4.196   4.660  0.4710 -0.2814  0.9238
 6622TIP3   OH241356   1.563   6.589  10.313 -0.5585 -0.1668  0.1239
 6622TIP3    H141357   1.583   6.526  10.382  1.8331  0.0904 -0.2351
 6622TIP3    H241358   1.561   6.537  10.233 -0.6748 -0.0887  0.0755
 6623TIP3   OH241359   0.456   1.608   4.590  0.3577  0.6025 -0.3503
 6623TIP3    H141360   0.393   1.608   4.662 -0.6368 -0.2001 -1.1961
 6623TIP3    H241361   0.492   1.697   4.590 -0.0889  0.8061  0.7254
 6624TIP3   OH241362   4.632   2.343   2.569 -0.2050  0.1192  0.1569
 6624TIP3    H141363   4.576   2.270   2.540  3.2004 -3.4696  1.6875
 6624TIP3    H241364   4.710   2.336   2.514  1.1131  1.2127  1.7950
 6625TIP3   OH241365   5.004   5.329   5.971 -0.0421 -0.1316  0.0853
 6625TIP3    H141366   4.951   5.314   6.050  1.2376  0.3499  1.0787
 6625TIP3    H241367   5.059   5.404   5.994 -1.2474  1.5262 -2.1175
 6626TIP3   OH241368   2.389   2.144   2.099  0.0532  0.1300 -0.2190
 6626TIP3    H141369   2.294   2.139   2.113  0.1144 -0.4341  0.0378
 6626TIP3    H241370   2.411   2.060   2.059  0.1451  1.0603 -2.2350
 6627TIP3   OH241371   1.907   3.440   6.297 -0.3535  0.2012  0.5335
 6627TIP3    H141372   1.970   3.465   6.365 -0.3192 -2.3959  1.5870
 6627TIP3    H241373   1.961   3.411   6.224 -0.3437  0.2708  0.5135
 6628TIP3   OH241374   3.459   5.166   0.553 -0.0583  0.4485  0.4410
 6628TIP3    H141375   3.463   5.175   0.648  1.8306  1.3316  0.3221
 6628TIP3    H241376   3.551   5.156   0.526 -0.6995 -2.0839 -1.1066
 6629TIP3   OH241377   5.661   1.843   2.432 -0.0732  0.1484 -0.0443
 6629TIP3    H141378   5.649   1.834   2.526  0.7184 -2.2485 -0.0785
 6629TIP3    H241379   5.693   1.756   2.404 -1.2108  0.4721 -2.6554
 6630TIP3   OH241380   4.144   6.561   3.461 -0.1372 -0.3497  0.3228
 6630TIP3    H141381   4.172   6.640   3.509  2.3900 -2.1107  1.9964
 6630TIP3    H241382   4.069   6.529   3.510 -0.4931  0.4124  0.2878
 6631TIP3   OH241383   3.236   6.383   2.423  0.1505  0.0354  0.9395
 6631TIP3    H141384   3.146   6.414   2.434  0.6942  1.3737  1.8601
 6631TIP3    H241385   3.234   6.292   2.450 -0.5884  0.5317  2.6693
 6632TIP3   OH241386   1.197   5.666   5.827 -0.3359  0.1118  0.1549
 6632TIP3    H141387   1.218   5.602   5.759  2.5133  0.0748  0.9465
 6632TIP3    H241388   1.143   5.619   5.890 -1.6359 -0.3118 -1.2353
 6633TIP3   OH241389   1.618   5.686   1.379  0.2556  0.1523 -0.6772
 6633TIP3    H141390   1.641   5.753   1.444  1.4499 -0.4067 -0.4967
 6633TIP3    H241391   1.636   5.603   1.422  2.8106 -0.2288 -2.2562
 6634TIP3   OH241392   3.775   0.745   0.051  0.0305  0.0424 -0.1681
 6634TIP3    H141393   3.826   0.785  -0.019 -0.0354 -1.8072 -1.3333
 6634TIP3    H241394   3.797   0.652   0.047  0.7770 -0.0157  2.9366
 6635TIP3   OH241395   6.043   6.790   0.448 -0.0484  0.3847  0.0046
 6635TIP3    H141396   6.040   6.867   0.504  1.2244  1.1013 -0.8618
 6635TIP3    H241397   6.129   6.794   0.406 -0.5210 -0.7229 -1.1458
 6636TIP3   OH241398   6.185   3.482  11.643  0.3098 -0.5302  0.1446
 6636TIP3    H141399   6.190   3.552  11.708  0.5260  0.1917 -0.6310
 6636TIP3    H241400   6.182   3.528  11.559 -2.3308 -1.3521 -0.2833
 6637TIP3   OH241401   5.915   4.541   1.860 -0.0554  0.5554 -0.0147
 6637TIP3    H141402   5.838   4.596   1.867 -1.1935 -0.9710 -0.0953
 6637TIP3    H241403   5.944   4.550   1.769 -0.3522  0.8451 -0.0800
 6638TIP3   OH241404   6.165   0.626  13.558  0.1988  0.0538 -0.2303
 6638TIP3    H141405   6.117   0.700  13.595  1.8060  0.4584  1.1320
 6638TIP3    H241406   6.097   0.562  13.536 -0.9357  0.3301  2.2242
 6639TIP3   OH241407   3.824   1.392   0.404  0.4377 -0.0784 -0.1192
 6639TIP3    H141408   3.846   1.417   0.315 -0.0059  1.4422  0.1713
 6639TIP3    H241409   3.796   1.473   0.446 -1.9925 -1.2002  0.6323
 6640TIP3   OH241410   0.099   4.616  14.397  0.4367  0.0715  0.0305
 6640TIP3    H141411   0.063   4.536  14.357 -0.4623  0.3743  0.2227
 6640TIP3    H241412   0.106   4.678  14.325  0.0268  0.1978  0.0966
 6641TIP3   OH241413   5.673   3.353  11.001  0.0908  0.0238 -0.7729
 6641TIP3    H141414   5.608   3.393  10.943  0.0651 -0.3579 -1.0102
 6641TIP3    H241415   5.708   3.426  11.052 -1.0028  0.1487 -0.1667
 6642TIP3   OH241416   2.276   0.963  16.607 -0.1306 -0.3745 -0.2092
 6642TIP3    H141417   2.237   0.913  16.535  0.0218 -1.0619  0.1790
 6642TIP3    H241418   2.205   1.019  16.638 -1.5087 -2.9757  1.7544
 6643TIP3   OH241419   4.964   1.241  13.928 -0.3998  0.3502 -0.0836
 6643TIP3    H141420   4.930   1.154  13.944  0.8407 -0.2597 -0.6361
 6643TIP3    H241421   4.886   1.297  13.925 -1.1612 -0.6152  0.9096
 6644TIP3   OH241422   5.097   4.019  15.520  0.1205  0.0388 -0.3680
 6644TIP3    H141423   5.129   4.080  15.587  0.2490 -0.1236 -0.2789
 6644TIP3    H241424   5.151   3.941  15.532 -0.8413 -0.5480  0.3206
 6645TIP3   OH241425   5.267   4.772  12.158 -0.0568  0.0751  0.2133
 6645TIP3    H141426   5.204   4.706  12.189  1.7037 -1.2415  1.1921
 6645TIP3    H241427   5.285   4.826  12.235 -1.9625  2.2197 -0.7319
 6646TIP3   OH241428   2.661   5.126  12.691  0.9777 -0.4460 -0.6484
 6646TIP3    H141429   2.671   5.039  12.731  0.8989 -0.4080 -0.5435
 6646TIP3    H241430   2.703   5.185  12.753  0.1726 -0.2924 -0.2266
 6647TIP3   OH241431   5.142   4.122  16.472 -0.0352  0.0348 -0.0428
 6647TIP3    H141432   5.050   4.147  16.478  0.2960  1.5445 -0.6774
 6647TIP3    H241433   5.189   4.205  16.460  1.5323 -0.5825  1.3894
 6648TIP3   OH241434   5.506   4.419   5.367  0.3874 -0.2299  0.9216
 6648TIP3    H141435   5.452   4.424   5.446 -0.0914  2.1824  0.5227
 6648TIP3    H241436   5.477   4.339   5.322 -0.1420 -1.0132  2.5801
 6649TIP3   OH241437   4.044   2.704   3.563 -0.3589  0.1017  0.2860
 6649TIP3    H141438   4.001   2.726   3.646 -3.3214 -0.9708 -0.8352
 6649TIP3    H241439   4.056   2.789   3.520 -0.0863  0.5505  1.2102
 6650TIP3   OH241440   3.166   2.295  14.753 -0.2065 -0.1954  0.3935
 6650TIP3    H141441   3.119   2.379  14.751 -1.7504 -1.0175 -0.0292
 6650TIP3    H241442   3.097   2.230  14.738  1.2055 -1.4280 -1.0432
 6651TIP3   OH241443   0.215   4.105  17.227  0.2825  0.5560 -0.3929
 6651TIP3    H141444   0.237   4.157  17.305 -0.1029  2.3846 -1.4646
 6651TIP3    H241445   0.175   4.026  17.263  0.1679  1.3216  1.2837
 6652TIP3   OH241446   2.751   1.866  13.194  0.3173 -0.2317 -0.0591
 6652TIP3    H141447   2.705   1.792  13.154 -0.5651  0.7948 -1.0351
 6652TIP3    H241448   2.791   1.912  13.120 -0.1129  0.8957  0.3899
 6653TIP3   OH241449   0.210   5.948   2.517 -0.0010 -0.1828  0.0107
 6653TIP3    H141450   0.224   5.962   2.423 -0.2559 -2.0539 -0.3357
 6653TIP3    H241451   0.296   5.965   2.557 -0.1027  1.5191 -0.4076
 6654TIP3   OH241452   6.534   6.645   6.684 -0.3355  0.3775 -0.2110
 6654TIP3    H141453   6.476   6.626   6.757 -0.9179  0.1138 -0.7329
 6654TIP3    H241454   6.619   6.611   6.711 -0.6104  0.0353  0.2297
 6655TIP3   OH241455   1.514   0.955   4.594 -0.4530 -0.0032  0.2750
 6655TIP3    H141456   1.608   0.960   4.612  0.4204  0.7515 -3.6610
 6655TIP3    H241457   1.501   0.869   4.554 -1.4151  0.0040  0.5388
 6656TIP3   OH241458   0.278   3.259   2.934 -0.0056  0.2793  0.2354
 6656TIP3    H141459   0.260   3.253   2.840 -0.3546  0.0331  0.3176
 6656TIP3    H241460   0.313   3.348   2.945  0.4349  0.1708 -0.1880
 6657TIP3   OH241461   0.031   0.876   6.020 -0.2146  0.2469 -0.4305
 6657TIP3    H141462  -0.041   0.828   5.980  0.5149 -1.3577  0.1247
 6657TIP3    H241463   0.086   0.809   6.060  1.3549  1.4741 -0.4446
 6658TIP3   OH241464   6.466   4.370  16.564  0.2266 -0.3290  0.2505
 6658TIP3    H141465   6.383   4.331  16.591  0.0429 -0.4148 -0.4037
 6658TIP3    H241466   6.462   4.460  16.597 -0.9913  0.2828 -1.3953
 6659TIP3   OH241467   6.726   3.289   0.351 -0.1445 -0.6012 -0.2254
 6659TIP3    H141468   6.718   3.305   0.257 -1.1974 -1.8149 -0.3735
 6659TIP3    H241469   6.648   3.237   0.373 -0.9401  1.2737  1.6972
 6660TIP3   OH241470   2.104   0.771  13.523  0.1641 -0.0075 -0.2779
 6660TIP3    H141471   2.071   0.838  13.582 -1.9418  0.6826 -2.1124
 6660TIP3    H241472   2.151   0.820  13.455 -0.6233 -0.4458 -1.1515
 6661TIP3   OH241473   3.483   2.281   2.560 -0.0994  0.1054 -0.2820
 6661TIP3    H141474   3.502   2.358   2.614 -0.5188 -0.3507  0.5459
 6661TIP3    H241475   3.498   2.207   2.619 -0.0322 -0.4323 -0.9642
 6662TIP3   OH241476   4.317   1.123  11.661  0.0743 -0.1872 -0.0949
 6662TIP3    H141477   4.301   1.029  11.671 -0.3637 -0.2025 -0.8546
 6662TIP3    H241478   4.236   1.164  11.693  0.3931 -0.0477  0.5481
 6663TIP3   OH241479   2.062   0.781   2.793  0.3311  0.3135 -0.0823
 6663TIP3    H141480   2.005   0.718   2.748  0.6031  0.6992 -0.9938
 6663TIP3    H241481   2.044   0.768   2.886  0.6190 -1.3365 -0.2269
 6664TIP3   OH241482   3.947   2.493   2.456  0.6484 -0.2897  0.2267
 6664TIP3    H141483   4.023   2.524   2.505  0.5789 -1.7568  1.3408
 6664TIP3    H241484   3.896   2.443   2.520 -1.7648  1.4019 -0.2325
 6665TIP3   OH241485   4.581   5.743   5.805  0.2678  0.2059  0.4022
 6665TIP3    H141486   4.594   5.648   5.807  0.7076  0.2172 -0.6796
 6665TIP3    H241487   4.667   5.777   5.778  0.2593  0.9520  1.2926
 6666TIP3   OH241488   6.612   0.109  14.727 -0.1617  0.3519  0.2010
 6666TIP3    H141489   6.547   0.068  14.670  1.5845 -1.7343 -0.4752
 6666TIP3    H241490   6.591   0.077  14.815  0.9076 -1.8269 -0.2589
 6667TIP3   OH241491   6.156   3.954  12.849  0.2182 -0.2789 -0.6751
 6667TIP3    H141492   6.162   3.991  12.761 -0.7255 -0.4631 -0.8269
 6667TIP3    H241493   6.242   3.971  12.888  0.1032  1.2655 -1.0438
 6668TIP3   OH241494   5.965   1.232   2.875  0.4151 -0.1401 -0.6124
 6668TIP3    H141495   5.998   1.289   2.944 -1.6956  1.4935 -0.8630
 6668TIP3    H241496   6.021   1.154   2.880  3.5496  1.9241 -0.3652
 6669TIP3   OH241497   0.506   1.158  14.842 -0.1571 -0.1473  0.2209
 6669TIP3    H141498   0.425   1.131  14.799 -0.2585  1.5386 -0.7137
 6669TIP3    H241499   0.552   1.210  14.776  1.9527 -1.4633  0.5478
 6670TIP3   OH241500   2.904   1.762  15.990 -0.1763 -0.3664 -0.2977
 6670TIP3    H141501   2.991   1.755  15.952 -0.9312  0.2303 -2.2673
 6670TIP3    H241502   2.909   1.712  16.071  1.4516 -1.9843 -1.3273
 6671TIP3   OH241503   1.526   1.287  10.614 -0.2709  0.1203  0.1892
 6671TIP3    H141504   1.560   1.282  10.524  0.8217 -0.1951  0.6058
 6671TIP3    H241505   1.515   1.196  10.640 -1.6379  0.2089  0.0177
 6672TIP3   OH241506   0.949   2.894  15.032 -0.3192  0.2036 -0.2654
 6672TIP3    H141507   0.888   2.951  15.079  0.8934  1.4876 -0.1579
 6672TIP3    H241508   0.978   2.830  15.097 -1.9696 -0.8109 -0.4824
 6673TIP3   OH241509   1.041   4.663  16.021  0.2734  0.6174  0.3361
 6673TIP3    H141510   0.993   4.661  16.104 -1.9769  2.1073 -0.8345
 6673TIP3    H241511   1.036   4.754  15.993 -1.5486 -0.3039 -2.7652
 6674TIP3   OH241512   6.717   4.874  12.966  0.0316  0.2939 -0.3596
 6674TIP3    H141513   6.810   4.895  12.978  0.3230 -0.6374 -0.8277
 6674TIP3    H241514   6.671   4.937  13.020  0.7872  2.4796 -2.1057
 6675TIP3   OH241515   2.244   5.262  15.736 -0.1382 -0.5483  0.2537
 6675TIP3    H141516   2.240   5.263  15.832 -0.2689 -1.0528  0.2542
 6675TIP3    H241517   2.162   5.304  15.709 -0.7290 -1.6114  0.3569
 6676TIP3   OH241518   5.970   4.761   2.716 -0.0183  0.0645 -0.2017
 6676TIP3    H141519   5.925   4.821   2.657  0.0835  0.3246 -0.0125
 6676TIP3    H241520   5.932   4.777   2.802 -1.4852 -1.6108 -0.4953
 6677TIP3   OH241521   5.937   4.010   6.177  0.0097  0.5027 -0.3436
 6677TIP3    H141522   5.865   4.068   6.201 -0.9946 -1.3669  1.4316
 6677TIP3    H241523   5.902   3.956   6.106 -0.9786 -1.3853  1.4587
 6678TIP3   OH241524   4.133   6.233   0.739 -0.0479 -0.2173  0.3713
 6678TIP3    H141525   4.087   6.284   0.806  2.2934  2.2535  0.2994
 6678TIP3    H241526   4.167   6.299   0.678  0.6731 -2.1371 -1.4255
 6679TIP3   OH241527   2.520   2.759   0.994  0.1241 -0.3282  0.3592
 6679TIP3    H141528   2.478   2.726   0.915  0.8005 -1.6734  0.5162
 6679TIP3    H241529   2.450   2.765   1.058 -0.3618  0.4171 -0.2292
 6680TIP3   OH241530   5.104   1.817  12.045  0.1237  0.2825 -0.2552
 6680TIP3    H141531   5.152   1.758  11.987 -0.0448 -0.1136 -0.0020
 6680TIP3    H241532   5.165   1.837  12.116 -0.2569 -0.6804  0.3669
 6681TIP3   OH241533   3.620   4.784   2.673  0.5982 -0.0507  0.4698
 6681TIP3    H141534   3.700   4.809   2.627  1.5410  0.4962  2.3036
 6681TIP3    H241535   3.588   4.708   2.624  1.0803  0.9437 -1.5141
 6682TIP3   OH241536   2.149   1.814   1.167  0.6484 -0.1390 -0.0738
 6682TIP3    H141537   2.094   1.736   1.171  5.1763 -3.8053 -1.4489
 6682TIP3    H241538   2.163   1.837   1.259  0.9262 -2.3835  0.5034
 6683TIP3   OH241539   6.569   1.196  15.424  0.1452  0.3292  0.4092
 6683TIP3    H141540   6.525   1.275  15.393 -0.6188  1.0393  3.0534
 6683TIP3    H241541   6.629   1.173  15.353  0.6491  3.4753 -0.3389
 6684TIP3   OH241542   1.381   2.118  13.921 -0.3929  0.0196 -0.3575
 6684TIP3    H141543   1.426   2.093  14.002 -0.4583  1.0176 -0.0059
 6684TIP3    H241544   1.333   2.198  13.943  1.3215  1.5851 -1.9197
 6685TIP3   OH241545   5.641   4.359   4.891 -0.1566 -0.1525 -0.1051
 6685TIP3    H141546   5.562   4.322   4.853 -0.0098  0.0061 -0.5615
 6685TIP3    H241547   5.656   4.441   4.844  0.2365 -0.1422  0.0275
 6686TIP3   OH241548   1.992   0.268   4.031 -0.2366  0.1057  0.4227
 6686TIP3    H141549   1.936   0.192   4.017  0.1012  0.1519 -1.5063
 6686TIP3    H241550   1.943   0.341   3.994  0.7461  0.2660 -0.6189
 6687TIP3   OH241551   4.800   5.010   2.106 -0.0112  0.0578 -0.6480
 6687TIP3    H141552   4.780   4.920   2.080  1.1333 -0.7423  1.0641
 6687TIP3    H241553   4.838   5.002   2.194 -0.7480  2.3050 -0.0601
 6688TIP3   OH241554   3.303   3.001  10.922  0.1187 -0.1910 -0.0658
 6688TIP3    H141555   3.329   2.911  10.943  1.1233 -0.1907 -1.2080
 6688TIP3    H241556   3.212   2.993  10.893 -0.0738 -0.7066  0.6539
 6689TIP3   OH241557   5.444   0.132  12.384 -0.0702 -0.2080  0.2313
 6689TIP3    H141558   5.405   0.105  12.467  0.5857 -2.5702 -0.1575
 6689TIP3    H241559   5.518   0.073  12.372  0.1823  0.4369 -1.7842
 6690TIP3   OH241560   1.507   4.233   2.431  0.0469 -0.3131 -0.0307
 6690TIP3    H141561   1.427   4.180   2.433  0.1025 -0.3931  0.0565
 6690TIP3    H241562   1.570   4.184   2.483  0.5639 -0.9083 -1.1723
 6691TIP3   OH241563   6.350   0.226  16.848  0.2106  0.0117  0.0524
 6691TIP3    H141564   6.261   0.203  16.819  0.7452 -1.8768 -0.2104
 6691TIP3    H241565   6.340   0.313  16.886 -1.5673  0.2659 -0.8571
 6692TIP3   OH241566   4.397   5.955   5.234 -0.0991  0.2487 -0.6816
 6692TIP3    H141567   4.378   6.046   5.256  1.1013  0.4094 -0.2143
 6692TIP3    H241568   4.463   5.929   5.299 -0.5075 -0.9819 -0.7444
 6693TIP3   OH241569   5.710   4.546   2.245  0.2549  0.2563 -0.2078
 6693TIP3    H141570   5.650   4.608   2.287  0.4806  1.3882 -1.4663
 6693TIP3    H241571   5.765   4.601   2.189  0.4029 -1.0839 -1.4332
 6694TIP3   OH241572   5.924   3.058   0.474 -0.1059 -0.5159 -0.1947
 6694TIP3    H141573   5.860   2.987   0.482  1.7041 -2.4782 -1.7514
 6694TIP3    H241574   5.979   3.032   0.399  1.9733  1.4623  0.5322
 6695TIP3   OH241575   3.379   3.039   3.058  0.4670  0.1236  0.1724
 6695TIP3    H141576   3.396   3.086   3.140 -0.5789  1.8706 -0.5641
 6695TIP3    H241577   3.285   3.045   3.046  0.3384 -1.9255 -0.1536
 6696TIP3   OH241578   0.589   1.863  11.822 -0.0682 -0.3565 -1.1353
 6696TIP3    H141579   0.594   1.872  11.727 -0.1900 -0.2242 -1.1282
 6696TIP3    H241580   0.529   1.932  11.850 -1.8413 -1.8091 -1.1940
 6697TIP3   OH241581   6.662   1.579  12.422 -0.1971  0.0949  0.2599
 6697TIP3    H141582   6.675   1.625  12.339 -2.3049 -1.3610 -0.9625
 6697TIP3    H241583   6.712   1.630  12.486 -0.0600  2.3620 -1.5416
 6698TIP3   OH241584   0.147   0.099   6.583  0.2449 -0.5106  0.3363
 6698TIP3    H141585   0.164   0.066   6.671  0.0026 -1.8011 -0.0813
 6698TIP3    H241586   0.068   0.053   6.555  0.7452 -0.6788 -0.8336
 6699TIP3   OH241587   0.503   6.181  14.640 -0.3805  0.4422  0.0419
 6699TIP3    H141588   0.459   6.254  14.597 -1.3205  0.7705  1.4946
 6699TIP3    H241589   0.512   6.115  14.572 -0.2249  1.5936 -1.0959
 6700TIP3   OH241590   6.073   1.295   2.282 -0.3938 -0.1955  0.6753
 6700TIP3    H141591   6.023   1.313   2.362 -0.9964 -0.5204  0.3808
 6700TIP3    H241592   6.156   1.258   2.314 -1.1349 -1.5211  1.1254
 6701TIP3   OH241593   6.634   1.601   2.873  0.1122  0.4437  0.2032
 6701TIP3    H141594   6.642   1.648   2.956  0.1444  1.2332 -0.2389
 6701TIP3    H241595   6.540   1.588   2.861  0.1145  0.2177  0.4198
 6702TIP3   OH241596   1.332   5.141   2.167  0.3692  0.0918 -0.3099
 6702TIP3    H141597   1.323   5.095   2.250  0.1343  1.8259  0.6697
 6702TIP3    H241598   1.244   5.140   2.129  0.4703 -0.6736 -0.5374
 6703TIP3   OH241599   5.064   4.630  11.595  0.1832  0.1742  0.3418
 6703TIP3    H141600   5.003   4.652  11.525  2.2939  0.3538 -1.5694
 6703TIP3    H241601   5.052   4.536  11.608 -0.0103  0.0686 -0.5139
 6704TIP3   OH241602   2.358   6.422  16.750 -0.1845 -0.3857  0.8091
 6704TIP3    H141603   2.335   6.455  16.837 -1.4330 -1.9889  1.1474
 6704TIP3    H241604   2.426   6.357  16.767  1.6161  1.2466  0.2393
 6705TIP3   OH241605   4.607   6.259  14.512  0.3878  0.0169  0.6843
 6705TIP3    H141606   4.595   6.255  14.607  2.2034  0.4133  0.9805
 6705TIP3    H241607   4.586   6.349  14.489 -2.7104 -0.7175  0.2138
 6706TIP3   OH241608   0.130   4.138  16.693 -0.2694  0.5084 -0.4303
 6706TIP3    H141609   0.112   4.200  16.623  0.5241  1.3878  0.1310
 6706TIP3    H241610   0.043   4.111  16.724 -0.6210  0.9429 -1.0189
 6707TIP3   OH241611   4.412   1.820  12.132 -1.1855 -0.6296 -0.0193
 6707TIP3    H141612   4.431   1.880  12.204 -0.4652 -2.1769  1.1565
 6707TIP3    H241613   4.378   1.875  12.062  1.5727  1.4796  0.1499
 6708TIP3   OH241614   4.764   2.674   5.992 -0.3275  0.1386  0.3094
 6708TIP3    H141615   4.728   2.670   5.904 -0.3325  1.1525  0.2620
 6708TIP3    H241616   4.723   2.750   6.032  0.4843  0.3155  0.8264
 6709TIP3   OH241617   6.644   4.384  15.950 -0.7165  0.2074 -0.3918
 6709TIP3    H141618   6.629   4.430  16.032  1.1099  0.8250 -0.3610
 6709TIP3    H241619   6.726   4.336  15.964 -1.2398 -1.0209 -1.3047
 6710TIP3   OH241620   2.665   2.165   3.086 -0.4493 -0.0377 -0.0718
 6710TIP3    H141621   2.683   2.179   2.992 -0.7160  0.5390 -0.0431
 6710TIP3    H241622   2.629   2.249   3.115 -1.2085 -0.5125  0.3483
 6711TIP3   OH241623   3.853   4.309   1.041  0.0537  0.0182  0.4581
 6711TIP3    H141624   3.848   4.216   1.017  0.4755  0.3824 -1.1357
 6711TIP3    H241625   3.946   4.326   1.053  0.2547  0.8256 -1.8645
 6712TIP3   OH241626   1.176   0.810   4.652  0.4501 -0.2859  0.2803
 6712TIP3    H141627   1.094   0.796   4.604 -0.5329  1.8650  1.1952
 6712TIP3    H241628   1.183   0.734   4.710 -0.5456 -0.8491 -0.3040
 6713TIP3   OH241629   3.684   5.339  14.898 -0.6578 -0.0029  0.0695
 6713TIP3    H141630   3.610   5.399  14.911 -0.7483  0.2022 -1.2000
 6713TIP3    H241631   3.691   5.331  14.803  0.8332 -0.1767  0.1684
 6714TIP3   OH241632   6.596   6.282   4.236 -0.0564  0.0939 -0.0300
 6714TIP3    H141633   6.660   6.214   4.215  0.3275  0.5286 -0.2711
 6714TIP3    H241634   6.618   6.355   4.178 -1.5592 -0.2024 -1.0050
 6715TIP3   OH241635   2.734   6.610  12.104 -0.5731 -0.3245 -0.6008
 6715TIP3    H141636   2.803   6.644  12.047 -0.3076 -0.8714 -0.6089
 6715TIP3    H241637   2.762   6.521  12.126 -2.0477 -1.1533 -1.8880
 6716TIP3   OH241638   6.332   0.685  14.719 -0.0968  0.2656  0.7524
 6716TIP3    H141639   6.419   0.686  14.760 -0.1504  0.1620  0.8690
 6716TIP3    H241640   6.343   0.626  14.644  0.1356  0.8572  0.3138
 6717TIP3   OH241641   1.049   3.768  14.494  0.6722 -0.1948  0.4945
 6717TIP3    H141642   0.966   3.805  14.525  1.0704 -0.6470  2.1948
 6717TIP3    H241643   1.066   3.695  14.553  2.0827 -0.3736 -0.1006
 6718TIP3   OH241644   5.381   0.437  12.642 -0.0134  0.1225 -0.2967
 6718TIP3    H141645   5.322   0.460  12.570 -0.5318 -1.4203 -0.4082
 6718TIP3    H241646   5.322   0.418  12.715  0.3043 -1.5956 -0.4542
 6719TIP3   OH241647   3.025   1.687  14.415 -0.2360  0.1022  0.1391
 6719TIP3    H141648   3.052   1.605  14.454 -2.0598 -1.0229 -0.8197
 6719TIP3    H241649   2.993   1.740  14.488  0.5673 -0.1961  0.7098
 6720TIP3   OH241650   3.664   3.851   1.798  0.1831  0.1828 -0.2606
 6720TIP3    H141651   3.731   3.864   1.865  0.1315 -2.1820  0.3437
 6720TIP3    H241652   3.712   3.819   1.722  0.0298  1.1411 -0.7764
 6721TIP3   OH241653   2.482   5.415   4.575 -0.0975  0.4216  0.1343
 6721TIP3    H141654   2.512   5.503   4.598  1.0722  0.2930 -0.8030
 6721TIP3    H241655   2.450   5.423   4.485 -0.2933 -0.0396  0.1610
 6722TIP3   OH241656   3.791   0.658   3.005 -0.0927  0.0457 -0.1830
 6722TIP3    H141657   3.881   0.625   3.010 -1.0902 -3.1517 -0.9126
 6722TIP3    H241658   3.738   0.580   2.986 -2.8756  2.0416 -1.2620
 6723TIP3   OH241659   0.226   4.471   5.582  0.0783  0.1587 -0.0499
 6723TIP3    H141660   0.303   4.490   5.528  1.5103 -0.3395  1.7166
 6723TIP3    H241661   0.258   4.476   5.672 -2.1560  0.6592  0.7787
 6724TIP3   OH241662   4.535   1.637   4.863  0.2788  0.7690  0.3694
 6724TIP3    H141663   4.554   1.729   4.884  0.0687  1.0634 -0.6875
 6724TIP3    H241664   4.539   1.633   4.768 -1.8177  0.1574  0.2547
 6725TIP3   OH241665   4.217   4.920   0.975  0.6700 -0.1966 -0.6824
 6725TIP3    H141666   4.310   4.899   0.991  0.7880 -0.1536 -1.3084
 6725TIP3    H241667   4.185   4.951   1.060  0.5579 -2.6093  0.2409
 6726TIP3   OH241668   0.095   5.530   2.337  0.0475  0.0274  0.4040
 6726TIP3    H141669   0.098   5.547   2.243 -0.1618 -0.0796  0.3777
 6726TIP3    H241670   0.009   5.563   2.364  0.7214  1.5346  0.8394
 6727TIP3   OH241671   2.653   3.665   5.899  0.3377 -0.4116 -0.2454
 6727TIP3    H141672   2.581   3.721   5.929 -0.4208 -1.9908  1.0578
 6727TIP3    H241673   2.677   3.613   5.976  1.7674 -1.0953 -1.1035
 6728TIP3   OH241674   5.239   3.371   2.419 -0.0254  0.0555 -0.4018
 6728TIP3    H141675   5.161   3.350   2.368  0.2031  0.1822 -0.8024
 6728TIP3    H241676   5.278   3.446   2.374  0.0009  0.3763  0.1403
 6729TIP3   OH241677   0.149   0.784  12.580  0.1804  0.0967 -0.1837
 6729TIP3    H141678   0.088   0.791  12.506  0.6262 -0.9379 -0.6659
 6729TIP3    H241679   0.235   0.773  12.539  0.4288 -0.5476  0.4866
 6730TIP3   OH241680   2.071   0.540  16.187  0.0023  0.1354 -0.4283
 6730TIP3    H141681   1.992   0.491  16.208  0.1234  0.2716  0.3756
 6730TIP3    H241682   2.142   0.476  16.195  0.1160  0.3310  0.2242
 6731TIP3   OH241683   0.563   5.481   1.969 -0.0858  0.8245  0.0109
 6731TIP3    H141684   0.585   5.528   1.889 -0.3706 -0.2942 -0.7497
 6731TIP3    H241685   0.644   5.482   2.020  0.4396  0.6073 -0.7859
 6732TIP3   OH241686   3.888   2.526  12.543 -0.2676  0.3562  0.1172
 6732TIP3    H141687   3.948   2.502  12.614 -0.0080 -2.3105 -0.8960
 6732TIP3    H241688   3.924   2.607  12.508  0.0798  1.2947  2.4472
 6733TIP3   OH241689   0.545   1.957   1.109  0.9067  0.3404 -0.3846
 6733TIP3    H141690   0.620   2.006   1.075  0.7399 -0.6660 -2.3307
 6733TIP3    H241691   0.546   1.875   1.060 -0.5243 -0.3856  0.7303
 6734TIP3   OH241692   1.933   6.238  12.207  0.3705 -0.4976  0.7479
 6734TIP3    H141693   1.967   6.304  12.268  0.6172 -1.3230  1.5410
 6734TIP3    H241694   1.838   6.237  12.223 -0.1930  2.1379 -1.7982
 6735TIP3   OH241695   1.690   1.381  16.177 -0.2453 -0.0003  0.1483
 6735TIP3    H141696   1.617   1.428  16.137  1.4462  1.6052 -1.2549
 6735TIP3    H241697   1.759   1.383  16.111  1.5199 -0.3259  1.8715
 6736TIP3   OH241698   6.620   6.577  11.336 -0.3788  0.8332  0.2304
 6736TIP3    H141699   6.600   6.563  11.429  0.1031  2.1594  0.5595
 6736TIP3    H241700   6.539   6.556  11.290 -0.3554 -0.7395  0.8526
 6737TIP3   OH241701   2.937   3.750   2.477 -0.0486 -0.0053 -0.4534
 6737TIP3    H141702   2.943   3.794   2.393 -0.1651  0.6678 -0.1153
 6737TIP3    H241703   2.914   3.819   2.539  0.3795 -0.4230  0.1882
 6738TIP3   OH241704   2.015   0.286   1.607 -0.0788 -0.3518  1.1448
 6738TIP3    H141705   1.971   0.368   1.582  0.7496  0.1033  1.1330
 6738TIP3    H241706   1.946   0.221   1.607 -0.7299  0.3240  1.0050
 6739TIP3   OH241707   3.198   0.213   5.552  0.2912  0.1022 -0.0677
 6739TIP3    H141708   3.223   0.149   5.485  0.9669  0.1372  0.1463
 6739TIP3    H241709   3.274   0.270   5.560 -0.2222  0.8013 -0.0896
 6740TIP3   OH241710   1.831   0.212   0.771  0.3671 -0.5337 -0.0273
 6740TIP3    H141711   1.821   0.119   0.753  0.7192 -0.1419 -2.5037
 6740TIP3    H241712   1.925   0.228   0.764  0.2039  0.1933 -0.6663
 6741TIP3   OH241713   6.441   3.380  12.026  0.1849 -0.1687  0.2566
 6741TIP3    H141714   6.465   3.471  12.041  0.1638 -0.0720 -0.2759
 6741TIP3    H241715   6.470   3.361  11.937 -1.0814 -0.2464 -0.1676
 6742TIP3   OH241716   2.358   0.636  11.084  0.5024  0.1456 -0.5423
 6742TIP3    H141717   2.317   0.654  10.999  1.4346  0.4498 -0.9418
 6742TIP3    H241718   2.328   0.548  11.107 -0.3650  0.3583 -0.8171
 6743TIP3   OH241719   1.218   3.117   4.169 -0.1686 -0.1280 -0.0172
 6743TIP3    H141720   1.191   3.045   4.112 -2.4358  0.8676 -0.3245
 6743TIP3    H241721   1.153   3.117   4.239  0.5157  0.8597  0.6455
 6744TIP3   OH241722   3.637   4.303  15.298 -0.1758  0.5518  0.3772
 6744TIP3    H141723   3.584   4.348  15.232 -1.9849 -1.1971  0.5369
 6744TIP3    H241724   3.617   4.348  15.380 -1.6734 -0.2257  0.4729
 6745TIP3   OH241725   5.812   2.581  14.063 -0.3572 -0.0693 -0.1011
 6745TIP3    H141726   5.881   2.647  14.073  1.0839 -1.7285  1.9765
 6745TIP3    H241727   5.829   2.519  14.134 -2.3267 -2.0704 -1.2739
 6746TIP3   OH241728   4.479   6.309  15.935  0.7635 -0.0035 -0.2429
 6746TIP3    H141729   4.509   6.376  15.874  1.1239  1.1162  1.1189
 6746TIP3    H241730   4.423   6.252  15.882  2.1394  0.1166 -1.9321
 6747TIP3   OH241731   4.440   4.023  15.658 -0.2677 -0.1841 -0.0770
 6747TIP3    H141732   4.523   4.063  15.685  0.7008 -2.4131  0.4665
 6747TIP3    H241733   4.428   4.052  15.568  2.3039 -1.5007 -0.9489
 6748TIP3   OH241734   4.810   2.590   5.286 -0.1416  0.8821  0.6577
 6748TIP3    H141735   4.875   2.641   5.334 -0.7828  0.7284  1.7305
 6748TIP3    H241736   4.785   2.520   5.346 -1.3418  0.9766  0.2967
 6749TIP3   OH241737   0.683   0.509  15.866 -0.0044 -0.3528  0.6989
 6749TIP3    H141738   0.663   0.527  15.958 -0.0396 -0.4344  0.7066
 6749TIP3    H241739   0.609   0.457  15.835  0.8272 -1.8335  1.0870
 6750TIP3   OH241740   2.110   5.112   5.792  0.3721 -0.2546 -0.4658
 6750TIP3    H141741   2.089   5.029   5.834 -1.1126  0.2217 -0.2245
 6750TIP3    H241742   2.067   5.107   5.706  0.8497 -0.0020 -0.7270
 6751TIP3   OH241743   5.267   0.191  11.597  0.0798 -0.6866 -0.2107
 6751TIP3    H141744   5.257   0.098  11.616 -0.5157 -0.4734  0.5881
 6751TIP3    H241745   5.261   0.234  11.683 -0.1124  0.1257 -0.6162
 6752TIP3   OH241746   3.768   6.304   5.809 -0.3988  0.6464  0.2004
 6752TIP3    H141747   3.691   6.248   5.820 -0.8937  1.2511 -0.0913
 6752TIP3    H241748   3.841   6.244   5.795 -0.3397 -0.0852  2.9450
 6753TIP3   OH241749   0.049   4.913   2.300 -0.1122 -0.2466  0.3095
 6753TIP3    H141750   0.060   4.976   2.230  2.0751 -0.0024  0.7940
 6753TIP3    H241751   0.058   4.828   2.258  1.8268 -0.0876  0.3354
 6754TIP3   OH241752   2.106   0.086   3.805 -0.2787 -0.5369  0.0578
 6754TIP3    H141753   2.038   0.137   3.760 -0.1283  0.2967  0.7517
 6754TIP3    H241754   2.122   0.134   3.886  1.2318 -0.6601 -0.1468
 6755TIP3   OH241755   3.042   6.605  12.229  0.2092  0.7596 -0.3846
 6755TIP3    H141756   3.023   6.651  12.147  0.5748  1.5726 -0.0224
 6755TIP3    H241757   3.001   6.659  12.296 -0.4088 -0.0948 -0.0466
 6756TIP3   OH241758   1.858   4.811  12.923  0.4567  0.5896  0.5623
 6756TIP3    H141759   1.826   4.901  12.914 -1.9291 -0.2278  0.0700
 6756TIP3    H241760   1.841   4.789  13.015  1.7737  0.8778  0.8865
 6757TIP3   OH241761   4.159   1.716   0.153 -0.0488  0.2702 -0.0464
 6757TIP3    H141762   4.230   1.778   0.170  0.1885  0.0694 -0.2910
 6757TIP3    H241763   4.194   1.631   0.179  0.1255  0.0360 -0.9851
 6758TIP3   OH241764   5.255   6.197  13.640 -0.2620 -0.1394  0.1594
 6758TIP3    H141765   5.188   6.266  13.639  0.8770  1.0275  0.7149
 6758TIP3    H241766   5.266   6.173  13.548 -0.0317  1.0978 -0.1563
 6759TIP3   OH241767   0.365   0.685   1.724  0.3398 -0.1092  0.6471
 6759TIP3    H141768   0.420   0.722   1.793  0.9680  0.1962 -0.0045
 6759TIP3    H241769   0.409   0.603   1.699 -0.1761 -0.4908  0.9735
 6760TIP3   OH241770   0.848   1.558   3.292  0.0606 -0.2466  0.1895
 6760TIP3    H141771   0.847   1.576   3.198  1.0498  0.2365  0.2576
 6760TIP3    H241772   0.880   1.468   3.299 -1.5289 -0.8637  0.0125
 6761TIP3   OH241773   0.903   1.243   3.259 -0.7455  0.0479 -0.4835
 6761TIP3    H141774   0.811   1.253   3.284 -0.1136 -1.6538  3.1127
 6761TIP3    H241775   0.914   1.148   3.247  0.6411  0.1729 -0.3678
 6762TIP3   OH241776   3.476   3.989  16.245  0.5679 -0.6166 -0.1368
 6762TIP3    H141777   3.427   3.915  16.279 -0.1769 -0.0745 -0.0030
 6762TIP3    H241778   3.489   4.046  16.321  0.6848 -0.3614 -0.3447
 6763TIP3   OH241779   2.686   3.467  11.110 -0.1937  0.4603 -0.0466
 6763TIP3    H141780   2.698   3.384  11.063 -0.9817  1.3598 -1.9471
 6763TIP3    H241781   2.598   3.496  11.084 -1.8467 -0.1719  4.0433
 6764TIP3   OH241782   0.870   0.832   2.824 -0.4502  0.0461 -0.1875
 6764TIP3    H141783   0.849   0.823   2.917  0.5636 -2.0514 -0.0979
 6764TIP3    H241784   0.908   0.747   2.800 -2.6955 -0.3007 -3.0572
 6765TIP3   OH241785   2.200   0.458  11.512  0.7434  0.3668 -0.0346
 6765TIP3    H141786   2.228   0.430  11.425  0.9340 -1.3362  0.5443
 6765TIP3    H241787   2.126   0.516  11.495  0.5432 -0.2184 -1.3114
 6766TIP3   OH241788   2.615   0.480   1.463  0.2247 -0.0757 -0.7626
 6766TIP3    H141789   2.591   0.474   1.371  1.1317 -2.4115 -0.9277
 6766TIP3    H241790   2.581   0.565   1.492 -0.5459  0.4747 -3.0862
 6767TIP3   OH241791   4.134   0.082  11.942  0.0814 -0.8014 -0.1971
 6767TIP3    H141792   4.125   0.176  11.956  1.2999 -0.7185  0.1408
 6767TIP3    H241793   4.044   0.051  11.927 -0.3773  0.3353  0.1165
 6768TIP3   OH241794   1.435   0.933   3.260  0.4196  0.2314  0.0767
 6768TIP3    H141795   1.491   0.862   3.230 -0.1063 -0.2444  0.2048
 6768TIP3    H241796   1.370   0.890   3.317  0.2324  0.8417  0.3309
 6769TIP3   OH241797   0.246   5.987  15.773 -0.2186 -0.0752 -0.1907
 6769TIP3    H141798   0.230   5.911  15.717  0.5882 -0.8166  0.5535
 6769TIP3    H241799   0.211   5.962  15.859  2.0651 -0.5552  0.6803
 6770TIP3   OH241800   3.910   5.784  12.885  0.4586  0.2769 -0.4986
 6770TIP3    H141801   3.851   5.748  12.819 -1.4457 -0.6670  1.5747
 6770TIP3    H241802   3.990   5.732  12.877  0.2116  0.0819 -1.9099
 6771TIP3   OH241803   3.438   5.917  17.150 -0.2865 -0.5277  0.2432
 6771TIP3    H141804   3.501   5.846  17.163  0.4708  0.0973  0.0670
 6771TIP3    H241805   3.461   5.981  17.217 -2.3093 -1.3381  1.7901
 6772TIP3   OH241806   6.689   4.450  16.876 -0.0419  0.1094  0.4421
 6772TIP3    H141807   6.676   4.372  16.930  0.1166  1.0834  1.9396
 6772TIP3    H241808   6.773   4.485  16.905  1.7724 -1.1424 -2.7987
 6773TIP3   OH241809   4.739   2.019  11.015  0.2984 -0.7518 -0.1000
 6773TIP3    H141810   4.824   2.058  10.996  1.3624 -2.5269  0.6947
 6773TIP3    H241811   4.719   1.967  10.937  1.7462 -3.1878  1.0233
 6774TIP3   OH241812   1.078   6.697   1.264 -0.1177  0.5362  0.2376
 6774TIP3    H141813   1.140   6.625   1.253 -1.6959 -0.7684 -0.5611
 6774TIP3    H241814   1.078   6.715   1.358  0.6295 -0.2048  0.3897
 6775TIP3   OH241815   2.256   5.092   0.631 -0.1213 -0.6462 -0.0985
 6775TIP3    H141816   2.338   5.042   0.633  0.0800 -0.3488 -0.6541
 6775TIP3    H241817   2.279   5.177   0.670 -0.0293 -0.3766 -0.7295
 6776TIP3   OH241818   3.100   1.930   4.765  0.3636 -0.6329  0.1615
 6776TIP3    H141819   3.043   2.006   4.775 -2.2251 -2.2429 -1.1851
 6776TIP3    H241820   3.052   1.859   4.807  1.7251 -1.9424 -0.4256
 6777TIP3   OH241821   5.231   1.569   0.266 -0.3781  0.4421 -0.4320
 6777TIP3    H141822   5.169   1.618   0.321  0.5341 -0.4298  1.4893
 6777TIP3    H241823   5.297   1.537   0.328  1.7395  0.9215 -2.3153
 6778TIP3   OH241824   6.571   2.798   5.419 -0.0658 -0.0938 -0.2979
 6778TIP3    H141825   6.549   2.743   5.494  1.4749  0.5801  0.7118
 6778TIP3    H241826   6.662   2.825   5.435  0.1386  0.4927 -2.1576
 6779TIP3   OH241827   1.751   0.629  14.766  0.1590 -0.0611 -0.4191
 6779TIP3    H141828   1.816   0.697  14.749  0.8643 -0.8406 -0.8591
 6779TIP3    H241829   1.720   0.647  14.855  0.3972  0.7791 -0.5011
 6780TIP3   OH241830   6.426   3.259  14.079 -0.4691  0.1563  0.6403
 6780TIP3    H141831   6.353   3.277  14.019 -0.4248 -1.8520 -0.0997
 6780TIP3    H241832   6.386   3.261  14.166 -1.0340  0.7698  0.3834
 6781TIP3   OH241833   3.382   1.687  16.430  0.1971  0.2450  0.8235
 6781TIP3    H141834   3.316   1.631  16.471 -1.2216  0.5934 -0.8569
 6781TIP3    H241835   3.399   1.646  16.345  1.1766  0.8846  0.6913
 6782TIP3   OH241836   1.446   4.005   2.046 -0.1675  0.2609  0.1005
 6782TIP3    H141837   1.490   4.035   1.967 -3.3536  1.3935 -1.4242
 6782TIP3    H241838   1.402   4.083   2.081 -0.3395 -0.5950  1.9472
 6783TIP3   OH241839   6.274   5.798   1.279 -0.5683 -0.2005 -0.2626
 6783TIP3    H141840   6.190   5.772   1.317 -1.6180  1.4103 -1.3358
 6783TIP3    H241841   6.336   5.788   1.351 -1.9440 -0.0739  1.0051
 6784TIP3   OH241842   3.001   0.472  13.250  0.1916  0.3968 -0.1102
 6784TIP3    H141843   2.965   0.552  13.289  0.2802  1.3560 -1.9124
 6784TIP3    H241844   3.069   0.503  13.190  1.1317 -1.1370  0.1281
 6785TIP3   OH241845   4.690   3.602  16.604  0.3634 -0.7217 -0.2830
 6785TIP3    H141846   4.620   3.582  16.542 -0.7443  1.5094  0.1495
 6785TIP3    H241847   4.770   3.598  16.552 -0.3419 -0.7260 -1.4136
 6786TIP3   OH241848   6.307   0.877   5.678 -0.2983  0.5884 -0.3306
 6786TIP3    H141849   6.379   0.883   5.615  1.3018  1.0348  1.4527
 6786TIP3    H241850   6.261   0.961   5.671  1.2427  1.5735  0.5901
 6787TIP3   OH241851   0.166   6.267  10.819 -0.4812 -0.7061 -0.4705
 6787TIP3    H141852   0.097   6.322  10.782  1.2594 -0.2779 -3.3586
 6787TIP3    H241853   0.231   6.329  10.852 -0.8370 -1.1146  1.1105
 6788TIP3   OH241854   6.121   5.945  13.460 -0.1312  0.2370 -0.2294
 6788TIP3    H141855   6.112   5.910  13.371  0.6280  0.8719 -0.5738
 6788TIP3    H241856   6.044   6.001  13.471 -0.1962  0.2065 -0.5167
 6789TIP3   OH241857   0.341   0.827   5.317  0.6943 -0.0910 -0.1843
 6789TIP3    H141858   0.286   0.778   5.256  1.2748 -0.6098 -0.3010
 6789TIP3    H241859   0.353   0.768   5.391  1.2950 -0.0767 -0.2677
 6790TIP3   OH241860   0.576   2.039  16.134 -0.1184 -0.1842 -0.4591
 6790TIP3    H141861   0.537   2.109  16.081 -0.3008 -0.8646 -1.2434
 6790TIP3    H241862   0.511   1.969  16.133 -0.6020  0.1817  1.5996
 6791TIP3   OH241863   5.636   0.960  11.462 -0.2191 -0.6347 -0.0725
 6791TIP3    H141864   5.619   0.885  11.520 -0.5616 -0.0300  0.6301
 6791TIP3    H241865   5.687   1.020  11.516 -2.8626  1.1761  0.6060
 6792TIP3   OH241866   2.670   4.722   2.718 -0.4240 -0.4306 -0.7521
 6792TIP3    H141867   2.610   4.707   2.791 -0.4682  2.0396 -0.1783
 6792TIP3    H241868   2.752   4.748   2.759 -0.3558  0.6993 -1.5441
 6793TIP3   OH241869   3.765   1.261  12.851  0.5851 -0.0082  0.0363
 6793TIP3    H141870   3.809   1.248  12.935  0.4733  0.4965  0.1779
 6793TIP3    H241871   3.687   1.311  12.873  0.7068  0.3804 -0.4080
 6794TIP3   OH241872   1.274   1.849   4.605  0.0067 -0.6156  0.1974
 6794TIP3    H141873   1.197   1.795   4.585 -0.4271 -0.1937  0.6913
 6794TIP3    H241874   1.286   1.903   4.528 -1.5645  0.8943  0.9327
 6795TIP3   OH241875   1.694   2.905  12.368  0.2713 -0.0451 -0.2414
 6795TIP3    H141876   1.708   2.849  12.292  0.0150  0.5665 -0.7526
 6795TIP3    H241877   1.699   2.846  12.443  2.0147 -0.4251 -0.6241
 6796TIP3   OH241878   1.598   2.735  16.954 -0.0632 -0.0126  0.1025
 6796TIP3    H141879   1.578   2.692  16.872  0.8876 -1.5179  0.6202
 6796TIP3    H241880   1.627   2.823  16.929 -2.7982  0.6975 -0.9227
 6797TIP3   OH241881   0.142   3.768   2.470  0.2101  0.3697 -0.2113
 6797TIP3    H141882   0.230   3.790   2.441 -0.1522  1.3193 -0.6063
 6797TIP3    H241883   0.126   3.824   2.546  0.4658 -0.8104  0.7550
 6798TIP3   OH241884   3.103   4.918  12.788  0.4076  0.3648 -0.5323
 6798TIP3    H141885   3.080   5.008  12.810  0.6613  0.4369 -0.5507
 6798TIP3    H241886   3.064   4.864  12.857  0.8633  0.5511 -0.1292
 6799TIP3   OH241887   0.696   6.123   1.749 -0.0564 -0.4108 -0.3125
 6799TIP3    H141888   0.699   6.113   1.844 -0.8101 -1.1697 -0.3586
 6799TIP3    H241889   0.769   6.070   1.718 -0.2080 -0.6919 -0.1930
 6800TIP3   OH241890   3.838   5.940   2.733  0.5488 -0.0721  0.4630
 6800TIP3    H141891   3.840   5.870   2.798 -1.1470  1.0876  1.8258
 6800TIP3    H241892   3.746   5.958   2.719  0.9352  1.2577 -0.5786
 6801TIP3   OH241893   1.426   6.302   6.057  0.1437 -0.0406  0.1260
 6801TIP3    H141894   1.335   6.326   6.038 -0.7449 -2.1763  1.3308
 6801TIP3    H241895   1.443   6.336   6.145  0.1130 -0.6333  0.3636
 6802TIP3   OH241896   4.924   1.749   3.630 -0.5891 -0.4451  0.7616
 6802TIP3    H141897   4.966   1.693   3.695 -1.7269 -0.6042  1.3829
 6802TIP3    H241898   4.873   1.688   3.575 -2.1835 -0.0275  1.7081
 6803TIP3   OH241899   6.632   0.428   2.600 -0.4676  0.1350  0.2991
 6803TIP3    H141900   6.540   0.404   2.610 -0.2690 -0.4911  0.6724
 6803TIP3    H241901   6.658   0.390   2.516 -0.4361 -0.0516  0.3934
 6804TIP3   OH241902   3.481   3.681  11.821  0.9096  0.3686  0.5737
 6804TIP3    H141903   3.487   3.592  11.788  0.4065  0.5375  0.0121
 6804TIP3    H241904   3.544   3.684  11.893  0.4684 -0.6224  1.0250
 6805TIP3   OH241905   5.046   3.887  14.916  0.4648  0.3029  0.1789
 6805TIP3    H141906   5.107   3.895  14.842  2.4944 -1.0536  1.6133
 6805TIP3    H241907   4.971   3.840  14.880  1.1309  0.2246 -1.1660
 6806TIP3   OH241908   5.228   6.658  14.351  0.0604 -0.0769  0.0761
 6806TIP3    H141909   5.273   6.741  14.336  1.0466 -0.5988  0.0693
 6806TIP3    H241910   5.152   6.682  14.405 -0.4309  1.0100 -1.0372
 6807TIP3   OH241911   0.162   4.778   4.818 -0.2660  0.1646  0.1782
 6807TIP3    H141912   0.113   4.858   4.797 -0.6719 -0.1444 -0.0675
 6807TIP3    H241913   0.097   4.707   4.808 -0.2572 -0.0743  1.6521
 6808TIP3   OH241914   0.847   2.910   4.514  0.6060 -0.6109 -0.3267
 6808TIP3    H141915   0.797   2.874   4.440 -1.0865  0.4652  0.2465
 6808TIP3    H241916   0.882   2.833   4.558 -0.4235 -1.4102 -0.8507
 6809TIP3   OH241917   0.391   5.228   2.595 -0.1314 -0.5998  0.1843
 6809TIP3    H141918   0.431   5.217   2.508  0.0970  1.7003 -0.0797
 6809TIP3    H241919   0.459   5.200   2.656 -0.1605 -1.9073 -0.3469
 6810TIP3   OH241920   4.087   6.268   3.428  0.0042  0.0098  0.2474
 6810TIP3    H141921   4.057   6.179   3.410  0.6902 -0.5411  1.6664
 6810TIP3    H241922   4.007   6.320   3.431 -0.2882 -0.0642 -2.8256
 6811TIP3   OH241923   0.906   1.255   1.774  0.2930 -0.4817 -0.0976
 6811TIP3    H141924   0.943   1.332   1.818  1.7874 -0.3311 -1.5091
 6811TIP3    H241925   0.815   1.278   1.756  0.4569  0.5663  0.3710
 6812TIP3   OH241926   5.018   1.157   1.757 -0.4807  0.1028 -0.2009
 6812TIP3    H141927   4.983   1.085   1.810 -0.2168 -0.7145 -1.1199
 6812TIP3    H241928   5.021   1.123   1.668  0.6724  0.8858 -0.4814
 6813TIP3   OH241929   5.366   0.271   1.360 -0.2107  0.5810 -0.4843
 6813TIP3    H141930   5.304   0.297   1.292 -0.9002 -0.0061 -0.0976
 6813TIP3    H241931   5.392   0.354   1.401  0.9010  1.0403 -2.0009
 6814TIP3   OH241932   4.883   3.552  16.995  0.0808  0.6496  0.2932
 6814TIP3    H141933   4.958   3.612  16.997 -0.1134  0.9014  0.0770
 6814TIP3    H241934   4.922   3.465  17.003  0.4521  0.7340 -0.5005
 6815TIP3   OH241935   0.811   3.309   3.987 -0.4454  0.4776 -0.0448
 6815TIP3    H141936   0.759   3.228   3.981 -1.0100  0.6466  1.7427
 6815TIP3    H241937   0.751   3.372   4.026  1.3553  0.3495  3.3212
 6816TIP3   OH241938   1.353   3.476  11.334 -0.6215  0.2587  0.1141
 6816TIP3    H141939   1.342   3.496  11.241  1.7200 -0.2213 -0.3221
 6816TIP3    H241940   1.440   3.509  11.356 -0.9722  0.0318  2.0562
 6817TIP3   OH241941   0.233   5.453  15.849 -0.7028 -0.0672  0.2176
 6817TIP3    H141942   0.236   5.548  15.859 -2.4618 -0.0413  0.7197
 6817TIP3    H241943   0.158   5.437  15.792  0.1050 -1.1249 -0.5873
 6818TIP3   OH241944   0.567   1.819  12.801  0.0586  0.1178 -0.3617
 6818TIP3    H141945   0.477   1.823  12.770  0.3349  0.6068 -1.1249
 6818TIP3    H241946   0.590   1.726  12.796 -0.4267 -0.0186 -0.0799
 6819TIP3   OH241947   4.097   3.912   5.720  0.3107  0.2155 -0.3822
 6819TIP3    H141948   4.088   3.969   5.644 -0.9094  0.3183 -0.1834
 6819TIP3    H241949   4.191   3.902   5.732  0.5163  0.6876 -1.5345
 6820TIP3   OH241950   1.020   1.623  14.311 -0.1732  0.3095  0.0425
 6820TIP3    H141951   0.989   1.534  14.300 -0.8258  0.7580 -2.4726
 6820TIP3    H241952   0.941   1.677  14.306  0.3728  1.1125 -0.0697
 6821TIP3   OH241953   6.090   4.535   2.639  0.1936  0.4083 -0.2770
 6821TIP3    H141954   6.046   4.611   2.679  0.5850 -0.3585  1.7721
 6821TIP3    H241955   6.130   4.569   2.560 -0.7300  2.0450 -0.0872
 6822TIP3   OH241956   3.024   6.557  15.106  0.4738  0.1845  0.5043
 6822TIP3    H141957   2.963   6.600  15.166 -1.0486  0.9993 -1.5039
 6822TIP3    H241958   3.095   6.525  15.162  0.0415  2.4628  2.5072
 6823TIP3   OH241959   5.809   2.860   1.050  0.1343 -0.1267 -0.2267
 6823TIP3    H141960   5.892   2.903   1.031 -0.7230  1.0240 -1.5565
 6823TIP3    H241961   5.777   2.902   1.130  0.7959 -0.5575  0.2760
 6824TIP3   OH241962   6.230   1.388  15.472  0.1688 -0.3449  0.5058
 6824TIP3    H141963   6.189   1.302  15.481 -0.2261 -0.1967  0.1487
 6824TIP3    H241964   6.269   1.405  15.558  0.9865 -1.2512  0.3316
 6825TIP3   OH241965   3.344   2.840  17.050 -0.0462  0.0538 -0.1256
 6825TIP3    H141966   3.382   2.771  17.104 -0.0698 -0.0363 -0.2222
 6825TIP3    H241967   3.257   2.807  17.026  1.0863 -1.2667 -2.7112
 6826TIP3   OH241968   6.548   5.860  11.993  0.6402 -0.6729 -0.7357
 6826TIP3    H141969   6.522   5.867  11.901 -1.0468 -0.0048 -0.2399
 6826TIP3    H241970   6.617   5.927  12.003  0.7004 -0.6151 -1.4537
 6827TIP3   OH241971   4.204   2.945   4.609  0.1147  0.3695 -0.5528
 6827TIP3    H141972   4.290   2.985   4.624  0.5277 -0.8516  0.5820
 6827TIP3    H241973   4.197   2.938   4.513  0.1218  2.8246 -0.7896
 6828TIP3   OH241974   4.256   2.136  15.690  0.1927 -0.1039 -0.4580
 6828TIP3    H141975   4.189   2.202  15.676  0.5196  0.3692  0.1713
 6828TIP3    H241976   4.226   2.087  15.767 -0.0119 -0.6524 -0.8761
 6829TIP3   OH241977   5.927   0.947   2.333  0.4576 -0.0540 -0.1351
 6829TIP3    H141978   5.949   0.906   2.416 -1.2509  1.9979  1.4526
 6829TIP3    H241979   6.004   0.934   2.278  2.0846 -0.5355  2.1335
 6830TIP3   OH241980   3.404   3.890  11.085  0.6844  0.1948 -0.2524
 6830TIP3    H141981   3.326   3.864  11.037  0.4713  1.4572 -0.6182
 6830TIP3    H241982   3.381   3.878  11.177  0.9133 -1.7231 -0.3942
 6831TIP3   OH241983   2.093   2.953  16.658 -0.0382 -0.3446 -0.5366
 6831TIP3    H141984   2.165   2.997  16.703  0.3545 -2.8479  1.5728
 6831TIP3    H241985   2.113   2.962  16.565  0.7206  2.5283 -0.1910
 6832TIP3   OH241986   2.495   6.815  14.392  0.6362  0.0364  0.2938
 6832TIP3    H141987   2.414   6.778  14.356 -0.5524  1.7417  1.0851
 6832TIP3    H241988   2.498   6.783  14.482  2.0993 -1.8624 -0.3469
 6833TIP3   OH241989   1.930   6.296   2.862 -1.0793  0.0998 -0.2399
 6833TIP3    H141990   1.949   6.308   2.955 -0.0997  1.0007 -0.5431
 6833TIP3    H241991   1.891   6.209   2.857 -0.1189 -0.4277  0.8834
 6834TIP3   OH241992   2.276   4.490  11.480 -0.7564  0.0787  0.4117
 6834TIP3    H141993   2.258   4.488  11.574 -1.4771  2.8340  0.4440
 6834TIP3    H241994   2.369   4.511  11.474 -0.8943  0.7719  0.5600
 6835TIP3   OH241995   6.273   3.401   0.800  0.5704 -0.1938  0.0785
 6835TIP3    H141996   6.343   3.454   0.838  0.9257 -0.1279 -0.6574
 6835TIP3    H241997   6.276   3.420   0.707 -0.3936 -0.2377  0.0291
 6836TIP3   OH241998   5.632   1.783  12.893 -0.6719  0.9421 -0.4540
 6836TIP3    H141999   5.566   1.744  12.836  0.6848 -2.8617  0.2657
 6836TIP3    H242000   5.599   1.769  12.981 -0.5188  2.3173 -0.1612
 6837TIP3   OH242001   2.952   2.287  16.466  0.0928  0.5472 -0.1814
 6837TIP3    H142002   3.036   2.244  16.447 -0.1902 -0.2629  0.3454
 6837TIP3    H242003   2.902   2.278  16.385 -0.2620 -0.8610  0.1645
 6838TIP3   OH242004   0.665   0.715  16.948  0.4982  0.3691  0.2048
 6838TIP3    H142005   0.599   0.700  17.016  1.5222  0.6384  1.3084
 6838TIP3    H242006   0.693   0.628  16.922 -0.2237  0.2545 -0.2200
 6839TIP3   OH242007   2.974   6.228   5.048  0.6797 -0.0620  0.0648
 6839TIP3    H142008   2.934   6.236   4.961  1.0311  1.0266 -0.0132
 6839TIP3    H242009   3.067   6.215   5.030  1.0340  1.9113  0.2627
 6840TIP3   OH242010   5.841   4.177   6.603  0.2541 -0.1998 -0.0570
 6840TIP3    H142011   5.810   4.248   6.660 -0.1242 -1.1929  1.0107
 6840TIP3    H242012   5.931   4.201   6.582  0.1376  0.5860  0.3067
 6841TIP3   OH242013   2.764   1.207  12.198  0.2170 -0.0567 -0.2755
 6841TIP3    H142014   2.763   1.262  12.120  2.3446  0.2634 -0.1544
 6841TIP3    H242015   2.783   1.119  12.165  2.8138  0.3526 -0.0822
 6842TIP3   OH242016   1.059   3.339   1.265 -0.0473 -0.3275  0.5437
 6842TIP3    H142017   1.128   3.315   1.204 -0.2778  0.6953 -0.1457
 6842TIP3    H242018   1.006   3.260   1.275  1.3812 -1.2247  1.3422
 6843TIP3   OH242019   6.612   5.994  14.831  0.2111  0.5204 -0.1243
 6843TIP3    H142020   6.543   5.937  14.795  1.2168 -0.3522 -0.7188
 6843TIP3    H242021   6.676   6.002  14.760  0.4223  1.8581  0.1938
 6844TIP3   OH242022   6.801   1.327   4.699  0.2448 -1.1357 -0.4228
 6844TIP3    H142023   6.848   1.261   4.751  0.8872  0.6604  1.3712
 6844TIP3    H242024   6.869   1.374   4.652  0.1955  0.5872  1.1335
 6845TIP3   OH242025   1.657   0.663  16.661  0.2580 -0.4252 -0.3317
 6845TIP3    H142026   1.694   0.679  16.749  2.9289 -1.6903 -1.1235
 6845TIP3    H242027   1.590   0.730  16.652  1.0298  0.8207  2.0516
 6846TIP3   OH242028   0.886   6.162   4.410 -0.5213  0.0581  0.3559
 6846TIP3    H142029   0.904   6.093   4.346  1.4085 -0.3115  1.1901
 6846TIP3    H242030   0.956   6.226   4.397 -0.3603  0.2071  1.7213
 6847TIP3   OH242031   3.710   1.228   3.933 -0.6254  0.3212  0.4555
 6847TIP3    H142032   3.631   1.221   3.880  0.0340 -2.0744 -0.3425
 6847TIP3    H242033   3.779   1.253   3.871 -0.7803  2.9061  1.2344
 6848TIP3   OH242034   4.386   1.060   1.597  0.3530 -0.7363  0.0110
 6848TIP3    H142035   4.296   1.076   1.625 -0.8778 -1.7168 -3.0253
 6848TIP3    H242036   4.433   1.140   1.620 -1.6431  0.4034  0.3469
 6849TIP3   OH242037   5.614   1.037   3.017 -0.0980  0.1330 -0.4205
 6849TIP3    H142038   5.695   0.994   2.989  0.0285  0.7611 -1.0580
 6849TIP3    H242039   5.558   0.966   3.047  0.2339 -0.4434 -1.1398
 6850TIP3   OH242040   4.587   1.033   1.851 -0.2964 -0.3049 -0.3573
 6850TIP3    H142041   4.568   0.971   1.780 -0.8363 -0.5012 -0.0427
 6850TIP3    H242042   4.534   1.003   1.925 -2.0986  1.6365 -0.7505
 6851TIP3   OH242043   2.027   6.289   1.864 -0.1121 -0.1812 -0.7416
 6851TIP3    H142044   2.029   6.363   1.802  1.0243  1.0563  0.6840
 6851TIP3    H242045   2.104   6.236   1.840 -1.4142 -1.4511 -2.3266
 6852TIP3   OH242046   2.792   3.948   5.832  0.4080 -0.0389 -0.2203
 6852TIP3    H142047   2.851   4.022   5.821  1.2482 -0.4885  0.9348
 6852TIP3    H242048   2.841   3.873   5.798 -0.5646 -0.0518 -1.6940
 6853TIP3   OH242049   3.497   2.095   2.219  0.1559  0.1980 -0.9162
 6853TIP3    H142050   3.563   2.030   2.241  0.4667 -0.8746 -4.4039
 6853TIP3    H242051   3.415   2.058   2.252  0.7314 -0.4691 -0.2011
 6854TIP3   OH242052   6.620   1.117   5.581  0.0441 -0.2020  0.1234
 6854TIP3    H142053   6.542   1.102   5.528  0.3305 -2.7024  0.2791
 6854TIP3    H242054   6.683   1.156   5.520 -0.9188  0.7455 -0.2993
 6855TIP3   OH242055   0.926   0.486  14.312  0.3324  0.7684  0.5946
 6855TIP3    H142056   0.944   0.496  14.218  2.4811 -1.6070  0.6317
 6855TIP3    H242057   1.011   0.461  14.350 -0.9878 -0.8734  2.6980
 6856TIP3   OH242058   3.471   3.172   3.278 -0.2120  0.6939 -0.1637
 6856TIP3    H142059   3.497   3.263   3.286  0.9636  0.2367  2.4208
 6856TIP3    H242060   3.552   3.125   3.259 -0.8771  0.1981 -1.9452
 6857TIP3   OH242061   5.575   6.609  16.079  0.2725 -0.4745  0.0957
 6857TIP3    H142062   5.583   6.699  16.047 -0.8624 -1.1958 -2.5403
 6857TIP3    H242063   5.546   6.618  16.170  1.2838  1.7929  0.2469
 6858TIP3   OH242064   2.797   5.202  15.262 -0.4575 -0.1028  0.4117
 6858TIP3    H142065   2.753   5.132  15.214 -0.4263  0.8726 -1.1046
 6858TIP3    H242066   2.730   5.238  15.319 -1.0709  0.0206 -0.3719
 6859TIP3   OH242067   6.723   1.956  13.232  0.4540  0.0649 -0.3696
 6859TIP3    H142068   6.770   2.036  13.256 -0.2348  0.0482  1.1625
 6859TIP3    H242069   6.631   1.978  13.246  0.3206 -1.3832  1.3929
 6860TIP3   OH242070   5.335   5.068   2.613 -0.0424 -0.2095  0.4291
 6860TIP3    H142071   5.400   5.137   2.603 -0.5663  0.2734  0.3492
 6860TIP3    H242072   5.251   5.113   2.613 -0.5201 -0.9963 -1.4890
 6861TIP3   OH242073   3.926   6.078   3.275  0.1276 -0.4505  0.3465
 6861TIP3    H142074   3.837   6.101   3.249 -0.4355 -1.8688  0.8961
 6861TIP3    H242075   3.914   6.025   3.355  1.5839  0.9410  1.5499
 6862TIP3   OH242076   2.389   1.167   5.799 -0.1870 -0.0713  0.5724
 6862TIP3    H142077   2.432   1.211   5.725 -1.2391 -1.9288 -1.2671
 6862TIP3    H242078   2.456   1.161   5.866  2.0301 -1.5659 -1.6139
 6863TIP3   OH242079   1.654   3.754   1.295 -0.2955  0.4937  0.1757
 6863TIP3    H142080   1.644   3.845   1.264  0.1826  0.4891 -0.0052
 6863TIP3    H242081   1.606   3.751   1.377  1.1216  1.3945  1.0914
 6864TIP3   OH242082   4.164   2.805  12.700  0.5663  0.0182  0.7706
 6864TIP3    H142083   4.164   2.725  12.647  0.2256  0.4714  0.0657
 6864TIP3    H242084   4.189   2.874  12.638  1.5454  0.3648  1.5271
 6865TIP3   OH242085   3.049   1.382  16.080 -0.1103 -0.0370 -0.2599
 6865TIP3    H142086   3.023   1.455  16.136 -0.3431  0.5931 -1.1717
 6865TIP3    H242087   2.966   1.349  16.043  0.0750 -0.1846 -0.5498
 6866TIP3   OH242088   6.631   4.344   0.510  0.3524  0.3316 -0.2006
 6866TIP3    H142089   6.541   4.333   0.541  0.1255 -0.1438 -1.0020
 6866TIP3    H242090   6.671   4.258   0.524  0.3398  0.2035 -0.9177
 6867TIP3   OH242091   2.435   3.566  11.013  0.2237  0.4947  0.5560
 6867TIP3    H142092   2.341   3.560  10.998  0.3669 -0.5474  0.0029
 6867TIP3    H242093   2.455   3.660  11.005 -0.2024  0.4049 -2.9927
 6868TIP3   OH242094   0.895   2.586   2.602  0.8634  0.3835  0.1380
 6868TIP3    H142095   0.933   2.542   2.678  1.3807  3.0071  1.5087
 6868TIP3    H242096   0.953   2.660   2.585  0.2315  0.4097 -2.2687
 6869TIP3   OH242097   3.661   3.851  15.708 -0.3206 -0.9727  0.2517
 6869TIP3    H142098   3.613   3.890  15.782 -1.7607  0.3198 -1.2774
 6869TIP3    H242099   3.670   3.922  15.645  0.1224 -2.2377 -1.1788
 6870TIP3   OH242100   5.314   6.246   3.069  0.1048 -0.5498  0.0999
 6870TIP3    H142101   5.243   6.184   3.058  0.7222 -0.8966 -2.3569
 6870TIP3    H242102   5.273   6.332   3.061 -0.0951 -0.7390 -0.9274
 6871TIP3   OH242103   6.599   4.172  12.183  0.6038 -0.1970 -0.5759
 6871TIP3    H142104   6.654   4.094  12.177  0.6941 -0.1330 -0.5758
 6871TIP3    H242105   6.579   4.194  12.092 -0.5879 -1.0469 -0.5378
 6872TIP3   OH242106   1.017   3.296  13.353 -0.1690  0.3102  0.4481
 6872TIP3    H142107   0.937   3.345  13.332  0.9895  1.5737 -1.2299
 6872TIP3    H242108   1.087   3.360  13.346  1.0918 -0.9247  1.2550
 6873TIP3   OH242109   1.806   6.661   2.643  0.2467 -0.0669  0.1467
 6873TIP3    H142110   1.764   6.731   2.694  0.7985 -0.3311  0.9795
 6873TIP3    H242111   1.737   6.594   2.634 -0.1372  0.3738 -0.2517
 6874TIP3   OH242112   4.652   1.188  13.793  0.0835  0.5341 -0.5456
 6874TIP3    H142113   4.684   1.110  13.838 -0.4534  0.2064 -0.7334
 6874TIP3    H242114   4.721   1.253  13.807  0.3814  0.1302 -0.1082
 6875TIP3   OH242115   0.569   4.147  15.494 -0.0112 -0.2785 -0.2745
 6875TIP3    H142116   0.624   4.091  15.549 -0.1389 -0.7466 -0.6136
 6875TIP3    H242117   0.627   4.219  15.468 -0.0529  0.1341  0.7499
 6876TIP3   OH242118   5.270   5.933   3.551  0.2355 -0.0429  0.0723
 6876TIP3    H142119   5.181   5.940   3.516  0.1841  0.7987  0.3689
 6876TIP3    H242120   5.259   5.888   3.635  0.1109 -0.0455  0.0542
 6877TIP3   OH242121   6.150   1.866  15.992  0.0728 -0.3458  0.0963
 6877TIP3    H142122   6.119   1.924  16.061  0.6577 -1.4294  1.3216
 6877TIP3    H242123   6.225   1.821  16.031  1.2849 -0.0003 -1.7372
 6878TIP3   OH242124   5.101   1.311  13.693  0.2628 -0.3824  0.1761
 6878TIP3    H142125   5.078   1.403  13.684  3.6152  0.5860  0.2803
 6878TIP3    H242126   5.058   1.283  13.774  0.2436  1.4393  0.8306
 6879TIP3   OH242127   3.059   6.142  15.580 -0.0407  0.0696 -0.8843
 6879TIP3    H142128   3.031   6.089  15.506 -0.9511 -0.9906  0.1776
 6879TIP3    H242129   3.049   6.232  15.549  2.3413 -0.2815 -3.0019
 6880TIP3   OH242130   2.357   2.752   6.067  0.1911 -0.3529  0.2229
 6880TIP3    H142131   2.270   2.759   6.105  0.2673  0.7366  0.2246
 6880TIP3    H242132   2.407   2.699   6.130 -1.0921 -3.1542 -0.9494
 6881TIP3   OH242133   1.797   3.420   1.815 -0.6683  0.0337  0.5987
 6881TIP3    H142134   1.867   3.360   1.843  0.2934  0.7301 -0.2317
 6881TIP3    H242135   1.745   3.369   1.753 -0.7552 -0.4023  1.0171
 6882TIP3   OH242136   0.835   2.491  14.997 -0.1922 -1.0202 -0.1061
 6882TIP3    H142137   0.780   2.427  15.043  0.0658  0.3639  2.2836
 6882TIP3    H242138   0.773   2.543  14.947 -0.5391 -2.2939 -1.0522
 6883TIP3   OH242139   5.326   1.413  10.552  0.0864 -0.0545 -0.5601
 6883TIP3    H142140   5.234   1.438  10.557 -0.0104 -0.5536  0.5338
 6883TIP3    H242141   5.327   1.335  10.497 -0.1695 -0.1861 -0.3761
 6884TIP3   OH242142   0.454   1.138   6.357  0.3701 -0.3567  0.6831
 6884TIP3    H142143   0.441   1.067   6.294 -0.7559 -0.8646  1.4610
 6884TIP3    H242144   0.513   1.199   6.312  0.1197 -1.0233 -0.6003
 6885TIP3   OH242145   6.689   3.098   4.808 -0.3743  0.2637 -0.0247
 6885TIP3    H142146   6.711   3.106   4.715  1.1805 -0.2696  0.2757
 6885TIP3    H242147   6.645   3.181   4.829 -0.4676  0.5166 -1.1482
 6886TIP3   OH242148   6.297   3.193  14.596 -0.4751  0.3884  0.4342
 6886TIP3    H142149   6.373   3.176  14.652 -0.5931  1.4545  0.9330
 6886TIP3    H242150   6.276   3.107  14.559  0.1500 -0.1810  1.3340
 6887TIP3   OH242151   1.197   6.136   1.158  0.6242 -0.1616 -0.5015
 6887TIP3    H142152   1.134   6.165   1.092 -0.1788  0.6916  0.5943
 6887TIP3    H242153   1.246   6.066   1.115  0.7514  0.9665 -2.2916
 6888TIP3   OH242154   4.411   3.464   2.376  0.3796 -0.2055 -0.0986
 6888TIP3    H142155   4.425   3.553   2.408 -0.8490 -0.1420  0.3279
 6888TIP3    H242156   4.415   3.471   2.280 -0.1545  0.3992 -0.0820
 6889TIP3   OH242157   5.613   5.556   2.150 -0.2975  0.0368 -0.0663
 6889TIP3    H142158   5.583   5.570   2.240 -1.3217  0.5896 -0.4759
 6889TIP3    H242159   5.674   5.483   2.156  2.4852  2.2624  1.6498
 6890TIP3   OH242160   6.499   3.481  11.221 -0.4945 -0.8331 -0.7270
 6890TIP3    H142161   6.471   3.415  11.157 -1.3397 -2.2470  0.9732
 6890TIP3    H242162   6.512   3.430  11.302 -3.0359  1.2782  1.1891
 6891TIP3   OH242163   6.321   4.872  14.165  0.1739 -0.1435 -0.5217
 6891TIP3    H142164   6.256   4.914  14.223 -0.2085 -2.3118  0.7312
 6891TIP3    H242165   6.394   4.934  14.163 -1.0012  1.3351 -0.1411
 6892TIP3   OH242166   1.619   3.117  14.021 -0.3362  0.0619 -0.3732
 6892TIP3    H142167   1.690   3.058  14.043  0.6826  1.8361  1.4261
 6892TIP3    H242168   1.601   3.165  14.102 -2.5573  0.7204 -1.1832
 6893TIP3   OH242169   4.033   4.499  16.964  0.0364 -0.2109  0.4172
 6893TIP3    H142170   4.105   4.444  16.996  1.4165  1.6044  0.5538
 6893TIP3    H242171   3.975   4.510  17.039  0.9283  0.3586  1.0322
 6894TIP3   OH242172   3.650   4.309   1.573  0.1160  0.5340  0.0786
 6894TIP3    H142173   3.605   4.227   1.594 -0.8380  0.7013 -1.2012
 6894TIP3    H242174   3.582   4.376   1.581  1.1835  1.4647  2.4744
 6895TIP3   OH242175   1.076   2.566   0.260  0.3676 -0.2710  0.0833
 6895TIP3    H142176   1.045   2.612   0.182 -0.2785 -1.8104 -0.6248
 6895TIP3    H242177   1.162   2.531   0.235  0.8320  0.4897  0.5945
 6896TIP3   OH242178   4.176   0.212  17.125  0.2685  0.0121 -0.5858
 6896TIP3    H142179   4.149   0.124  17.098 -1.3884  0.9296 -2.1827
 6896TIP3    H242180   4.095   0.263  17.121  1.4981  1.9996 -1.4214
 6897TIP3   OH242181   4.425   6.449   2.385 -0.0453 -0.2977 -0.0777
 6897TIP3    H142182   4.369   6.388   2.433  2.5175 -3.4944 -0.8615
 6897TIP3    H242183   4.437   6.408   2.299  1.0957  1.8098 -0.9844
 6898TIP3   OH242184   5.834   2.971  15.840  0.5036  0.0723  0.5936
 6898TIP3    H142185   5.801   3.025  15.767 -0.1874  0.7884  1.4183
 6898TIP3    H242186   5.790   2.887  15.829  1.2231 -0.1910 -0.4249
 6899TIP3   OH242187   0.492   3.732  17.214 -0.3858 -0.2521  0.1617
 6899TIP3    H142188   0.578   3.690  17.220 -0.8566 -1.1873  0.5430
 6899TIP3    H242189   0.510   3.825  17.224  0.2435 -0.6518  3.9846
 6900TIP3   OH242190   2.574   0.386  13.808  0.4839 -0.6873  0.1362
 6900TIP3    H142191   2.625   0.405  13.887  0.0826 -0.1309  0.2656
 6900TIP3    H242192   2.483   0.395  13.836  0.3506  0.0314 -0.5225
 6901TIP3   OH242193   3.028   3.301   2.163 -0.2189 -0.1929  0.0461
 6901TIP3    H142194   3.014   3.384   2.208 -2.5563 -0.9654  0.8581
 6901TIP3    H242195   2.955   3.293   2.102  0.6994 -1.0627 -1.0006
 6902TIP3   OH242196   1.656   3.299  15.748  0.0139 -0.2124  0.6850
 6902TIP3    H142197   1.660   3.394  15.733  0.1736 -0.3772 -0.3374
 6902TIP3    H242198   1.661   3.291  15.843 -0.7975  0.8482  0.8435
 6903TIP3   OH242199   2.345   6.443   6.041  0.4010  0.6527 -0.0892
 6903TIP3    H142200   2.321   6.443   5.948  1.3405 -2.8694 -0.4577
 6903TIP3    H242201   2.308   6.525   6.074 -1.9276  1.0097 -3.0673
 6904TIP3   OH242202   3.031   5.707  13.669 -0.2553 -0.1154 -0.1711
 6904TIP3    H142203   3.081   5.754  13.601 -0.5755 -2.4107 -2.1347
 6904TIP3    H242204   3.094   5.694  13.740  0.3742  1.5594 -0.3745
 6905TIP3   OH242205   3.846   4.435  11.550  0.1219 -0.0424 -0.0831
 6905TIP3    H142206   3.860   4.530  11.544 -0.1693 -0.0903 -2.4751
 6905TIP3    H242207   3.759   4.422  11.513 -0.7742 -1.0847  2.2082
 6906TIP3   OH242208   2.296   6.607  11.836 -0.0698  0.2962 -0.2028
 6906TIP3    H142209   2.282   6.660  11.915 -0.7961  0.0274 -0.1386
 6906TIP3    H242210   2.284   6.669  11.764  1.0218  0.6362 -0.1026
 6907TIP3   OH242211   5.229   3.367   1.480 -0.3536 -0.0493  0.4632
 6907TIP3    H142212   5.282   3.358   1.401 -0.3404 -0.5088  0.5217
 6907TIP3    H242213   5.149   3.319   1.461 -0.3229 -0.2171  0.7510
 6908TIP3   OH242214   4.224   5.260  16.229  0.6494 -0.4131 -0.0262
 6908TIP3    H142215   4.133   5.249  16.202  0.4690 -0.5367  0.5951
 6908TIP3    H242216   4.267   5.178  16.203  0.7415 -0.0838 -0.9187
 6909TIP3   OH242217   5.230   2.572  15.806 -0.4659 -0.5707 -0.0217
 6909TIP3    H142218   5.170   2.646  15.817 -0.4841 -0.3014 -1.7260
 6909TIP3    H242219   5.315   2.606  15.834 -0.4880  0.0801 -0.7091
 6910TIP3   OH242220   3.557   1.203   2.441 -0.1424 -0.1976 -0.7738
 6910TIP3    H142221   3.585   1.157   2.362 -1.8677  2.9357 -3.5240
 6910TIP3    H242222   3.468   1.232   2.420 -0.0256  2.2497  1.5863
 6911TIP3   OH242223   2.565   2.416  13.739  0.1317  0.8342  0.1172
 6911TIP3    H142224   2.546   2.446  13.828  0.8896  1.7931 -0.0296
 6911TIP3    H242225   2.583   2.496  13.690 -0.0132  0.2952 -0.8412
 6912TIP3   OH242226   2.066   0.019  10.566  0.1195 -0.5172 -0.0710
 6912TIP3    H142227   2.068   0.060  10.479 -0.0460  0.5146  0.3930
 6912TIP3    H242228   2.158   0.003  10.587  0.1928 -0.3012 -0.2226
 6913TIP3   OH242229   6.771   4.905  11.231  0.1008 -0.1560  0.0102
 6913TIP3    H142230   6.858   4.945  11.230 -0.0416  0.2473 -2.6568
 6913TIP3    H242231   6.711   4.977  11.214 -0.5878 -0.7575 -0.1835
 6914TIP3   OH242232   5.478   5.817   3.002 -0.1128  0.3765  0.5225
 6914TIP3    H142233   5.506   5.795   2.913  0.0740 -1.6204  1.0306
 6914TIP3    H242234   5.383   5.825   2.996 -0.0386  0.9776  0.0172
 6915TIP3   OH242235   4.492   4.275   3.938 -0.3039  0.4350 -0.6478
 6915TIP3    H142236   4.483   4.365   3.908 -0.8782  0.5470 -0.1483
 6915TIP3    H242237   4.423   4.227   3.891 -0.2792  0.3389 -0.5864
 6916TIP3   OH242238   2.097   1.811  15.915  1.0300  0.7823 -0.1417
 6916TIP3    H142239   2.037   1.839  15.847  0.0049 -0.5674  0.1753
 6916TIP3    H242240   2.095   1.882  15.980 -0.0105  0.8621 -0.2565
 6917TIP3   OH242241   4.975   1.232   5.806 -0.1923 -0.3905 -0.7298
 6917TIP3    H142242   4.949   1.216   5.897 -1.1292 -0.1819 -0.9492
 6917TIP3    H242243   5.047   1.294   5.812 -1.1404  0.6862 -0.1743
 6918TIP3   OH242244   3.868   1.496   0.945 -0.0753 -0.2414  0.3469
 6918TIP3    H142245   3.928   1.446   1.001  1.5394  1.4274  0.1761
 6918TIP3    H242246   3.924   1.559   0.900 -1.9944  1.4750  0.2595
 6919TIP3   OH242247   2.063   2.153  11.995  0.1142 -0.2626 -0.2831
 6919TIP3    H142248   2.149   2.194  12.010  0.1002 -0.6828  1.0580
 6919TIP3    H242249   2.083   2.066  11.963  0.2387 -0.7283  0.9903
 6920TIP3   OH242250   5.651   1.803   3.527 -0.2555  0.3699  0.3833
 6920TIP3    H142251   5.742   1.776   3.536 -0.1545  0.8873  0.9197
 6920TIP3    H242252   5.654   1.886   3.480 -0.5925 -0.6703 -1.6147
 6921TIP3   OH242253   1.074   1.301  14.313 -0.2285 -0.4938 -0.1316
 6921TIP3    H142254   0.991   1.258  14.292 -0.0731 -1.5873  1.3665
 6921TIP3    H242255   1.126   1.294  14.233 -1.4135 -0.1488 -0.9567
 6922TIP3   OH242256   0.013   3.458   0.961  0.0073  0.5401 -0.5107
 6922TIP3    H142257  -0.007   3.447   0.869  3.0953 -0.5916 -1.1906
 6922TIP3    H242258  -0.058   3.413   1.007 -0.1554 -1.3539 -2.4610
 6923TIP3   OH242259   0.471   5.633  15.242  0.4359  0.5135 -0.2317
 6923TIP3    H142260   0.409   5.628  15.170  0.1426 -1.2146  0.0828
 6923TIP3    H242261   0.552   5.664  15.203  0.2263 -0.2148 -1.2796
 6924TIP3   OH242262   4.626   3.833  16.288 -0.0166  0.4410  0.2861
 6924TIP3    H142263   4.702   3.816  16.232 -1.8240  1.6416 -2.7832
 6924TIP3    H242264   4.560   3.771  16.258 -1.2784  1.5766  0.6424
 6925TIP3   OH242265   4.653   6.334  12.692 -0.0393  0.0010  0.2888
 6925TIP3    H142266   4.666   6.329  12.597 -3.0582 -0.1957 -0.2075
 6925TIP3    H242267   4.655   6.243  12.722  1.1568  0.0783  0.4909
 6926TIP3   OH242268   5.556   3.807  16.741 -0.2141  0.5683  0.1074
 6926TIP3    H142269   5.637   3.803  16.690 -0.0229  0.2778  0.4286
 6926TIP3    H242270   5.487   3.790  16.677 -0.0449  1.0717 -0.2171
 6927TIP3   OH242271   3.487   4.913   2.158 -0.1164 -0.0696  0.4319
 6927TIP3    H142272   3.451   4.962   2.084 -0.9517  0.4656  1.1648
 6927TIP3    H242273   3.536   4.978   2.209  0.2689 -0.3850  0.4678
 6928TIP3   OH242274   0.551   2.645   4.493  0.4933  0.4106 -0.0050
 6928TIP3    H142275   0.460   2.645   4.462  0.3405  0.4602  0.4324
 6928TIP3    H242276   0.555   2.716   4.557  1.1839  1.2675 -0.9775
 6929TIP3   OH242277   4.394   0.342  11.400  0.0384 -0.2753 -0.0022
 6929TIP3    H142278   4.411   0.435  11.414 -2.3137  1.1403 -4.3609
 6929TIP3    H242279   4.305   0.329  11.433  0.7091 -1.3139  1.4758
 6930TIP3   OH242280   0.788   1.855   5.620 -0.2399  0.2947  0.6312
 6930TIP3    H142281   0.867   1.852   5.567 -1.2074  1.5917 -0.9792
 6930TIP3    H242282   0.801   1.930   5.678  0.4784 -0.6515  1.7590
 6931TIP3   OH242283   4.499   0.701   2.151  0.1128  0.2750 -0.3161
 6931TIP3    H142284   4.547   0.782   2.168  0.0034  0.5626 -1.3025
 6931TIP3    H242285   4.465   0.712   2.062  0.1605 -0.8884 -0.4872
 6932TIP3   OH242286   1.202   2.917   0.999  0.3779  0.2446 -0.6645
 6932TIP3    H142287   1.185   2.835   0.951  1.0738 -0.6793  0.6205
 6932TIP3    H242288   1.294   2.937   0.981  1.8432 -2.1380  3.0813
 6933TIP3   OH242289   6.048   6.143  12.326  0.2407  0.6798  0.3048
 6933TIP3    H142290   6.092   6.218  12.287  0.4057  0.9137  0.9207
 6933TIP3    H242291   5.990   6.111  12.258  0.7595  0.8732 -0.2373
 6934TIP3   OH242292   3.240   0.865   2.282 -0.4424 -0.6890 -0.7683
 6934TIP3    H142293   3.243   0.960   2.271 -1.4758 -0.5739 -0.2266
 6934TIP3    H242294   3.154   0.840   2.249 -1.1350 -1.0995  1.2151
 6935TIP3   OH242295   3.698   6.361  13.224 -0.4514 -0.1863  0.3645
 6935TIP3    H142296   3.672   6.270  13.210  0.2474 -0.0404 -2.3548
 6935TIP3    H242297   3.700   6.400  13.137  0.0147  2.2602  1.3697
 6936TIP3   OH242298   0.994   4.563   5.208  0.2986  0.0970 -0.4014
 6936TIP3    H142299   0.931   4.605   5.151 -1.5732 -0.2678  1.2767
 6936TIP3    H242300   1.079   4.597   5.180 -0.9362  3.9281 -0.1049
 6937TIP3   OH242301   2.471   1.932  11.316  0.4649 -0.4321  0.2300
 6937TIP3    H142302   2.504   1.992  11.382  1.6720  0.1156 -0.8295
 6937TIP3    H242303   2.378   1.955  11.307  0.6893  0.6361  0.5177
 6938TIP3   OH242304   4.080   1.939  16.966  0.9429  0.3645 -0.0093
 6938TIP3    H142305   4.037   1.856  16.945  0.9159  0.7329 -1.5215
 6938TIP3    H242306   4.168   1.930  16.931  1.1127  0.7723  0.3084
 6939TIP3   OH242307   4.335   0.213   0.942 -0.1969 -0.0906 -0.0898
 6939TIP3    H142308   4.362   0.297   0.980 -2.0360  0.4472  0.1227
 6939TIP3    H242309   4.289   0.168   1.012  1.6025 -1.7571  0.0957
 6940TIP3   OH242310   3.939   5.238  14.256 -0.3055  0.3140 -0.1719
 6940TIP3    H142311   3.881   5.204  14.188 -0.7059  0.2729  0.1786
 6940TIP3    H242312   3.908   5.328  14.270  0.3408  0.6124 -0.6585
 6941TIP3   OH242313   6.674   5.293   2.569 -0.4947  1.0396 -0.6771
 6941TIP3    H142314   6.768   5.299   2.585 -0.2795 -0.5843 -1.2275
 6941TIP3    H242315   6.666   5.266   2.478 -1.3972 -1.3403  0.0408
 6942TIP3   OH242316   5.258   3.560   4.460  0.4098  0.0708 -0.4673
 6942TIP3    H142317   5.186   3.525   4.408  0.5215 -1.4470  0.3431
 6942TIP3    H242318   5.252   3.516   4.544  0.9441  1.6068  0.4276
 6943TIP3   OH242319   2.716   1.452   1.122  0.4684  0.5255  0.1331
 6943TIP3    H142320   2.807   1.423   1.120  1.1055  2.3242  1.0152
 6943TIP3    H242321   2.674   1.403   1.052  1.6483 -1.7490  0.9245
 6944TIP3   OH242322   2.154   1.899   5.120 -0.6573  0.3935 -0.3093
 6944TIP3    H142323   2.238   1.943   5.132 -0.3945 -0.6341  2.3036
 6944TIP3    H242324   2.109   1.950   5.053  2.5747  0.1126 -2.9344
 6945TIP3   OH242325   6.782   4.916   3.966  0.5505 -0.0312  0.0355
 6945TIP3    H142326   6.731   4.997   3.972  1.8576  0.7310  2.7305
 6945TIP3    H242327   6.834   4.926   3.887 -0.2893  1.1512 -0.3991
 6946TIP3   OH242328   2.316   3.081  16.760  0.8132 -0.1808  0.0308
 6946TIP3    H142329   2.340   3.095  16.851  1.5552 -1.2772  0.0198
 6946TIP3    H242330   2.398   3.058  16.716  0.1805 -1.6163 -0.4949
 6947TIP3   OH242331   1.353   4.170   5.367  0.2795  0.2809  0.2933
 6947TIP3    H142332   1.357   4.258   5.404  1.1045  0.0037  0.9091
 6947TIP3    H242333   1.435   4.161   5.319  0.2679 -0.1960  0.3599
 6948TIP3   OH242334   1.230   3.831   1.987  0.5805 -0.1808  0.1017
 6948TIP3    H142335   1.316   3.869   1.968  0.1085  0.9216  0.0837
 6948TIP3    H242336   1.195   3.887   2.057  0.5353 -1.5969  1.2593
 6949TIP3   OH242337   5.355   5.628  14.243 -0.3517 -0.0998 -0.4687
 6949TIP3    H142338   5.262   5.649  14.247 -0.3226  0.0125 -0.3965
 6949TIP3    H242339   5.378   5.605  14.333 -0.4149 -0.5692 -0.5673
 6950TIP3   OH242340   4.235   5.230  15.925  0.7998  0.1355  0.2320
 6950TIP3    H142341   4.150   5.234  15.882  0.8564  0.3526  0.1373
 6950TIP3    H242342   4.298   5.227  15.853  0.9841  2.1633  0.2416
 6951TIP3   OH242343   4.541   3.857  12.019  0.7611  0.3765  0.2758
 6951TIP3    H142344   4.630   3.846  12.052  1.6445  1.9849 -1.4188
 6951TIP3    H242345   4.545   3.830  11.927 -0.5540  0.2969  0.2192
 6952TIP3   OH242346   5.951   2.387  14.318 -0.7261 -0.0562 -0.1080
 6952TIP3    H142347   6.037   2.360  14.349 -0.5889 -0.8216 -1.1168
 6952TIP3    H242348   5.948   2.481  14.335 -0.3541 -0.3018  1.4451
 6953TIP3   OH242349   3.969   2.329  17.093 -0.5603 -0.1570 -0.0700
 6953TIP3    H142350   3.949   2.403  17.151 -0.0760 -0.0932  0.0236
 6953TIP3    H242351   4.063   2.337  17.075 -0.6601 -0.3162 -0.6752
 6954TIP3   OH242352   2.075   2.755   0.884 -0.0962 -0.2701  0.2091
 6954TIP3    H142353   2.022   2.829   0.913 -1.4344 -1.6095  1.3560
 6954TIP3    H242354   2.085   2.768   0.790 -1.3297  0.7250  0.1794
 6955TIP3   OH242355   0.360   4.782   4.533  0.5195 -0.6222  0.6585
 6955TIP3    H142356   0.329   4.770   4.622 -1.1465  0.1157  0.2002
 6955TIP3    H242357   0.350   4.696   4.492 -1.2448 -0.3566  0.4519
 6956TIP3   OH242358   3.443   0.336   5.652 -0.1064 -0.4011  0.1210
 6956TIP3    H142359   3.490   0.342   5.569  0.4950 -0.6687  0.4279
 6956TIP3    H242360   3.425   0.427   5.676 -0.7823 -0.3507 -0.5736
 6957TIP3   OH242361   0.977   5.020  16.723 -0.1531 -0.3376  0.4626
 6957TIP3    H142362   1.010   5.050  16.638  2.1456  0.8966  1.6886
 6957TIP3    H242363   0.887   5.052  16.727  0.3702  1.4031 -0.6830
 6958TIP3   OH242364   4.357   2.191   2.629  0.3285 -0.1416 -0.5555
 6958TIP3    H142365   4.383   2.114   2.578  0.2005  0.6704 -1.9136
 6958TIP3    H242366   4.301   2.241   2.569  1.4995  1.6770 -0.1997
 6959TIP3   OH242367   2.355   1.023  13.192  0.3291 -0.4880  0.3603
 6959TIP3    H142368   2.417   0.963  13.152  1.0015  0.3146  0.1589
 6959TIP3    H242369   2.345   1.094  13.128  1.7106  1.0073  1.7160
 6960TIP3   OH242370   2.659   3.439   0.395 -0.0697  0.3439  0.2234
 6960TIP3    H142371   2.628   3.360   0.439 -1.9824  1.6025  1.2660
 6960TIP3    H242372   2.691   3.407   0.310 -1.4723 -1.4771  0.2994
 6961TIP3   OH242373   0.342   0.596  16.182 -0.6209 -0.3443 -0.5781
 6961TIP3    H142374   0.427   0.585  16.140  0.7749  2.3394  1.2789
 6961TIP3    H242375   0.350   0.550  16.265 -0.7738  0.3217 -0.1847
 6962TIP3   OH242376   1.363   2.132  16.215  0.2598  0.3541 -0.6167
 6962TIP3    H142377   1.424   2.143  16.288  0.2117  0.5870 -0.6107
 6962TIP3    H242378   1.418   2.128  16.137  0.2474  1.1128 -0.6641
 6963TIP3   OH242379   4.969   5.601   6.178  0.0210  0.2374 -0.6475
 6963TIP3    H142380   5.060   5.613   6.152  0.2249  0.6216  0.2122
 6963TIP3    H242381   4.971   5.601   6.273 -0.6150 -1.8880 -0.5842
 6964TIP3   OH242382   2.272   0.853   2.160 -0.4654 -0.9983 -0.1856
 6964TIP3    H142383   2.179   0.861   2.181 -0.2843  0.5703  0.1273
 6964TIP3    H242384   2.314   0.831   2.243 -0.2322  1.2386  0.3427
 6965TIP3   OH242385   6.212   3.715  11.839  0.2841  0.0119  0.1035
 6965TIP3    H142386   6.118   3.729  11.829  0.4394  0.2183 -1.1557
 6965TIP3    H242387   6.253   3.792  11.800  0.9843  0.2691  1.2789
 6966TIP3   OH242388   4.498   3.412   3.346  0.5606  0.3724 -0.3559
 6966TIP3    H142389   4.472   3.362   3.423  0.0603 -1.1094 -1.4300
 6966TIP3    H242390   4.593   3.415   3.350  0.5186  0.9097  0.6526
 6967TIP3   OH242391   6.469   4.929  12.171 -0.3503  0.1327  0.5351
 6967TIP3    H142392   6.458   4.961  12.082 -2.2242 -0.1447  0.6148
 6967TIP3    H242393   6.542   4.979  12.207  1.0042 -0.3609 -1.4011
 6968TIP3   OH242394   5.565   1.137   1.360  0.1438  0.3649  0.1181
 6968TIP3    H142395   5.566   1.202   1.290 -1.3967 -0.7125 -0.9571
 6968TIP3    H242396   5.648   1.089   1.349 -0.2495 -0.0547 -1.2549
 6969TIP3   OH242397   5.734   4.174   6.114  0.5014  0.0659  0.3450
 6969TIP3    H142398   5.648   4.208   6.088  0.0374  0.4418  2.2316
 6969TIP3    H242399   5.794   4.246   6.095  0.2552  0.1671 -0.0773
 6970TIP3   OH242400   2.803   4.858  13.409 -0.3088  0.1372 -0.4598
 6970TIP3    H142401   2.767   4.947  13.403 -0.0454  0.1896 -1.4806
 6970TIP3    H242402   2.783   4.819  13.324 -0.4046 -0.7825 -0.0203
 6971TIP3   OH242403   2.672   4.517   1.483 -0.2239 -0.1969 -0.3912
 6971TIP3    H142404   2.658   4.547   1.573  0.2585 -0.3442 -0.2675
 6971TIP3    H242405   2.658   4.596   1.430  0.8448  0.2218 -0.0805
 6972TIP3   OH242406   3.074   1.818  13.668  0.2237 -0.3234  0.5188
 6972TIP3    H142407   3.044   1.775  13.589  2.2767 -1.2617  0.1809
 6972TIP3    H242408   3.064   1.911  13.650 -1.0719 -0.5517 -0.0757
 6973TIP3   OH242409   1.965   2.069   5.384 -0.1762 -0.2389 -0.2083
 6973TIP3    H142410   1.882   2.085   5.429 -0.4516 -1.9475 -0.0419
 6973TIP3    H242411   1.975   1.974   5.385  2.3437 -0.0403  0.7948
 6974TIP3   OH242412   5.892   5.121  11.869  0.2860 -0.1934  0.6427
 6974TIP3    H142413   5.975   5.149  11.907  0.0473  0.9008  0.3689
 6974TIP3    H242414   5.826   5.143  11.935  0.3306 -2.4430  1.5341
 6975TIP3   OH242415   1.727   3.626  15.492 -0.0318  0.3920 -0.5840
 6975TIP3    H142416   1.768   3.646  15.576  0.2705 -0.2746 -0.5712
 6975TIP3    H242417   1.642   3.671  15.497 -0.7103 -0.9446  0.7440
 6976TIP3   OH242418   6.776   1.296  15.989  0.1230 -0.5767  0.2637
 6976TIP3    H142419   6.759   1.202  15.994  0.5739 -0.6494  0.5333
 6976TIP3    H242420   6.844   1.304  15.922 -0.0827 -0.4212  0.0757
 6977TIP3   OH242421   5.314   6.328  16.224 -0.1867  0.5300  0.0508
 6977TIP3    H142422   5.249   6.392  16.251 -1.8435 -0.8435 -0.5317
 6977TIP3    H242423   5.290   6.248  16.270  0.6989 -0.1805 -0.6812
 6978TIP3   OH242424   3.591   0.129  12.239  0.0492  0.5477 -0.6952
 6978TIP3    H142425   3.520   0.070  12.265  1.7654 -2.0312 -1.4393
 6978TIP3    H242426   3.548   0.200  12.191 -2.3306  1.0404  1.8949
 6979TIP3   OH242427   0.322   1.994  14.473  0.0475 -0.1146  0.0483
 6979TIP3    H142428   0.374   1.916  14.456  1.1539  0.6410 -0.1309
 6979TIP3    H242429   0.314   1.997  14.568  1.8639  0.7015  0.2109
 6980TIP3   OH242430   6.599   4.960  16.139 -0.1941  0.0531 -0.3883
 6980TIP3    H142431   6.517   4.996  16.105  0.6731  2.2491 -0.3020
 6980TIP3    H242432   6.618   4.887  16.081 -0.7402  1.3246 -2.2652
 6981TIP3   OH242433   2.008   6.694   0.904 -0.1550  0.0135  0.8104
 6981TIP3    H142434   2.058   6.717   0.982 -1.9181  2.0136  1.4560
 6981TIP3    H242435   2.047   6.747   0.835 -0.8713  1.0181  1.1554
 6982TIP3   OH242436   5.712   5.031  14.415  0.3394  0.4149 -0.2482
 6982TIP3    H142437   5.764   4.964  14.370 -0.2231 -0.3989  0.2872
 6982TIP3    H242438   5.692   4.992  14.500 -1.8247  0.3689 -0.7222
 6983TIP3   OH242439   0.406   0.053   3.897 -0.1103 -0.3811  0.4374
 6983TIP3    H142440   0.435  -0.036   3.879  0.1786 -0.6747  2.1595
 6983TIP3    H242441   0.486   0.100   3.920 -0.0175  0.7835 -1.9390
 6984TIP3   OH242442   5.847   3.587  14.047 -0.4310  0.4346  0.1598
 6984TIP3    H142443   5.783   3.527  14.007  1.3280 -0.5681 -1.3275
 6984TIP3    H242444   5.823   3.673  14.013 -1.6055  0.2394  0.4550
 6985TIP3   OH242445   6.672   5.960  11.579 -0.2732  0.1170 -0.6531
 6985TIP3    H142446   6.621   5.913  11.512 -0.2322  0.5941 -1.0214
 6985TIP3    H242447   6.608   5.986  11.644 -0.0559 -2.1074  0.5589
 6986TIP3   OH242448   4.911   2.676  16.496  0.1507  0.2313 -0.4643
 6986TIP3    H142449   4.818   2.655  16.489  0.0972  0.6088 -1.0144
 6986TIP3    H242450   4.925   2.695  16.588 -0.8675  2.5526 -0.7122
 6987TIP3   OH242451   4.112   2.196  10.518 -0.4557 -0.0120 -0.1573
 6987TIP3    H142452   4.196   2.156  10.542 -0.8329 -0.7303 -0.0041
 6987TIP3    H242453   4.136   2.268  10.459  0.3542  0.5935  0.8710
 6988TIP3   OH242454   5.367   5.459  12.904  0.1179  0.5552 -0.4293
 6988TIP3    H142455   5.384   5.513  12.827  1.5215 -0.1026 -0.5991
 6988TIP3    H242456   5.327   5.380  12.869  1.4664 -0.0748 -0.5852
 6989TIP3   OH242457   0.192   3.297   0.716  0.3833  0.2147 -0.3417
 6989TIP3    H142458   0.174   3.247   0.796  1.8988 -2.3880 -1.5089
 6989TIP3    H242459   0.282   3.329   0.728  0.1456  0.9705 -0.4903
 6990TIP3   OH242460   5.532   3.460   5.256 -0.3601 -0.0015  0.1193
 6990TIP3    H142461   5.543   3.485   5.348 -1.0630 -0.7473  0.4221
 6990TIP3    H242462   5.559   3.537   5.206  2.7932 -0.5153  0.8222
 6991TIP3   OH242463   4.387   6.353  16.605  0.3856  0.1457 -0.1472
 6991TIP3    H142464   4.407   6.440  16.570 -1.1220  1.0754  1.1599
 6991TIP3    H242465   4.340   6.308  16.535 -0.6340  1.1676 -0.1497
 6992TIP3   OH242466   2.476   3.271  15.873  0.2239  0.6577 -0.1797
 6992TIP3    H142467   2.515   3.347  15.916  0.6908 -0.2623  1.0695
 6992TIP3    H242468   2.385   3.298  15.856 -0.2208  0.7956  2.1446
 6993TIP3   OH242469   6.268   3.767   1.848  0.8559  0.4571 -0.1849
 6993TIP3    H142470   6.356   3.794   1.874  0.8915 -0.5811  0.8546
 6993TIP3    H242471   6.241   3.706   1.916 -0.7769  0.9464 -0.3649
 6994TIP3   OH242472   5.462   2.963   0.494 -0.0708 -0.0821 -0.7135
 6994TIP3    H142473   5.468   3.033   0.560  1.1458 -0.1720 -0.7223
 6994TIP3    H242474   5.437   2.885   0.544  0.8324 -0.1471 -0.3582
 6995TIP3   OH242475   1.139   0.554   0.919  0.5982 -0.4774 -0.3892
 6995TIP3    H142476   1.175   0.642   0.914 -0.0834 -0.1910 -0.3485
 6995TIP3    H242477   1.087   0.553   0.999 -1.2422 -0.1987 -1.5267
 6996TIP3   OH242478   0.008   1.612  10.609 -0.4322  0.3213  0.4786
 6996TIP3    H142479   0.095   1.572  10.605  0.4767  2.2770 -0.6772
 6996TIP3    H242480  -0.037   1.581  10.530 -0.5973 -0.2347  0.7845
 6997TIP3   OH242481   3.102   3.619  13.075 -0.1586 -0.4581 -0.3117
 6997TIP3    H142482   3.040   3.559  13.033 -0.6712 -0.6360  0.6664
 6997TIP3    H242483   3.184   3.571  13.077 -0.3067 -0.7230 -0.4595
 6998TIP3   OH242484   2.563   5.767   3.979  0.5265 -0.4209  0.5604
 6998TIP3    H142485   2.647   5.805   3.954 -0.2497  1.1400  0.1768
 6998TIP3    H242486   2.515   5.840   4.018 -0.4602 -1.4144  1.2504
 6999TIP3   OH242487   5.495   1.398  12.863 -0.6130 -0.0069  0.4568
 6999TIP3    H142488   5.587   1.383  12.882 -0.5334 -0.6235 -0.3560
 6999TIP3    H242489   5.448   1.352  12.933 -0.3153 -0.3548  0.4308
 7000TIP3   OH242490   6.587   0.825   4.293  0.6909  0.0539  0.2547
 7000TIP3    H142491   6.617   0.779   4.371  2.2586 -1.6582 -1.2557
 7000TIP3    H242492   6.609   0.916   4.308  0.9277 -0.2327  1.8064
 7001TIP3   OH242493   2.088   4.450  14.984  0.2449  0.1650  0.7683
 7001TIP3    H142494   2.158   4.439  15.048  1.1374  0.4189 -0.1319
 7001TIP3    H242495   2.100   4.377  14.923  1.1447  1.4312 -0.6492
 7002TIP3   OH242496   5.563   6.604   2.690 -0.6194 -0.0362 -0.3784
 7002TIP3    H142497   5.615   6.665   2.638 -0.7504  1.3374  1.0344
 7002TIP3    H242498   5.620   6.580   2.763  0.4788 -3.7946 -2.2128
 7003TIP3   OH242499   0.061   2.949  12.207 -1.2767  0.1292 -0.3721
 7003TIP3    H142500  -0.017   2.902  12.237 -0.3271 -1.4038 -0.2494
 7003TIP3    H242501   0.102   2.981  12.287 -1.4424  0.4048 -0.3955
 7004TIP3   OH242502   3.673   0.270   2.395 -0.3973 -0.5187 -0.2454
 7004TIP3    H142503   3.624   0.333   2.341 -0.1911 -1.1335 -1.1861
 7004TIP3    H242504   3.746   0.243   2.339  0.5072 -0.2968  0.8030
 7005TIP3   OH242505   3.480   0.716  12.471 -0.5489  0.6107  0.0081
 7005TIP3    H142506   3.509   0.631  12.438  0.9761  1.1156 -0.0363
 7005TIP3    H242507   3.561   0.764  12.488 -1.2489  0.8158  3.4689
 7006TIP3   OH242508   2.099   3.027   0.063 -0.7413  0.4407 -0.5406
 7006TIP3    H142509   2.114   2.998  -0.027  0.0912  1.7129 -0.8319
 7006TIP3    H242510   2.022   2.978   0.091 -0.2492 -0.9313 -1.4973
 7007TIP3   OH242511   2.475   4.977  16.276  0.4940  0.0507  0.0933
 7007TIP3    H142512   2.506   5.059  16.238  1.4025 -0.2542  0.1366
 7007TIP3    H242513   2.439   4.928  16.203 -0.7380  0.7767  0.1860
 7008TIP3   OH242514   3.625   5.398  12.751 -0.5096 -0.0987 -0.3141
 7008TIP3    H142515   3.627   5.333  12.681  0.0894  0.1708 -0.5569
 7008TIP3    H242516   3.533   5.404  12.777 -0.3390 -2.9013  1.4357
 7009TIP3   OH242517   4.199   3.308  12.755 -0.1506 -0.3388 -0.2379
 7009TIP3    H142518   4.229   3.255  12.828 -2.3208 -1.1548  0.1393
 7009TIP3    H242519   4.227   3.261  12.677 -0.3825 -1.0365  0.0937
 7010TIP3   OH242520   0.707   6.594   4.579 -0.1724 -0.8652  0.1107
 7010TIP3    H142521   0.749   6.508   4.578  1.1705 -0.2253 -0.8698
 7010TIP3    H242522   0.715   6.624   4.670  1.4266 -0.8035 -0.0338
 7011TIP3   OH242523   5.218   2.592   3.575  0.5668 -0.1076  0.4065
 7011TIP3    H142524   5.171   2.662   3.620 -1.5480  0.3606 -2.2535
 7011TIP3    H242525   5.311   2.616   3.583  0.1615  0.9449  2.7113
 7012TIP3   OH242526   1.879   5.070  12.021  0.1546 -0.2936  0.1262
 7012TIP3    H142527   1.796   5.061  11.974  0.6424 -1.8289 -0.5327
 7012TIP3    H242528   1.884   5.163  12.043 -0.7890  0.2259 -1.5992
 7013TIP3   OH242529   5.802   0.881  14.059  0.1254 -0.1892  0.0871
 7013TIP3    H142530   5.832   0.966  14.028  0.3525  0.2709  1.4874
 7013TIP3    H242531   5.731   0.902  14.120 -1.8655 -1.1645 -1.7673
 7014TIP3   OH242532   6.236   6.374   5.036 -0.4127  0.1100  0.0666
 7014TIP3    H142533   6.280   6.440   5.090 -1.3637  0.2007  0.7513
 7014TIP3    H242534   6.152   6.358   5.080 -1.0611 -0.0863 -1.1766
 7015TIP3   OH242535   2.063   2.734  16.824  0.4120 -0.4110  0.0507
 7015TIP3    H142536   2.049   2.817  16.779  0.7666  0.0813  0.8303
 7015TIP3    H242537   2.020   2.669  16.769 -1.7736  0.5691  0.4864
 7016TIP3   OH242538   6.664   5.662  15.027  0.0475 -0.3113  0.1387
 7016TIP3    H142539   6.705   5.663  14.940  1.5217  0.5414  0.7968
 7016TIP3    H242540   6.570   5.664  15.010  0.3062 -0.3345 -1.4292
 7017TIP3   OH242541   4.380   0.545   5.698 -0.6630  0.2359 -0.0364
 7017TIP3    H142542   4.385   0.504   5.785  1.4666 -0.2137 -0.2977
 7017TIP3    H242543   4.381   0.639   5.715  0.2463  0.1543  0.4564
 7018TIP3   OH242544   2.508   5.941  15.953  0.0895 -0.2349  0.0461
 7018TIP3    H142545   2.451   5.984  15.888 -0.0674 -1.4738 -0.6630
 7018TIP3    H242546   2.587   5.920  15.904  0.3973 -0.2288  0.5428
 7019TIP3   OH242547   2.270   0.109   1.104 -0.5806  0.8824  0.1808
 7019TIP3    H142548   2.225   0.143   1.181  1.2913  1.9323  0.8744
 7019TIP3    H242549   2.326   0.181   1.075 -0.0664 -0.0343 -1.2346
 7020TIP3   OH242550   4.592   4.083  16.578 -0.6599 -0.1393  0.1562
 7020TIP3    H142551   4.511   4.052  16.620 -0.2504  2.3224  3.1984
 7020TIP3    H242552   4.562   4.146  16.513 -1.2228 -2.4113 -1.9634
 7021TIP3   OH242553   5.220   5.159   5.058  0.0336 -0.1954 -0.0028
 7021TIP3    H142554   5.287   5.097   5.087 -0.0082 -0.2573 -0.0388
 7021TIP3    H242555   5.266   5.214   4.994 -0.0614 -0.5046 -0.3378
 7022TIP3   OH242556   4.171   3.944   3.139  0.0698 -0.6438 -0.2395
 7022TIP3    H142557   4.147   3.924   3.229 -1.9071 -0.8253 -0.7538
 7022TIP3    H242558   4.156   3.862   3.091 -0.0842 -0.2315 -0.9180
 7023TIP3   OH242559   1.996   2.567   3.470 -0.0745 -0.0332  0.1615
 7023TIP3    H142560   2.021   2.578   3.378  0.8014 -1.0414  0.2591
 7023TIP3    H242561   1.917   2.620   3.480 -1.0064 -0.9875 -1.5384
 7024TIP3   OH242562   1.842   0.977   0.578  0.1764 -0.0308  0.9094
 7024TIP3    H142563   1.796   0.903   0.617  1.5553 -1.3587  0.1230
 7024TIP3    H242564   1.859   1.036   0.651  1.3510 -1.7282  2.0702
 7025TIP3   OH242565   5.618   5.000  13.549 -0.2347 -0.2246 -0.1699
 7025TIP3    H142566   5.575   4.974  13.467 -0.8359  0.3096 -0.0277
 7025TIP3    H242567   5.571   5.079  13.577 -2.4443 -2.2984  2.5417
 7026TIP3   OH242568   3.023   5.521   1.338  0.2072  0.0662 -0.4463
 7026TIP3    H142569   3.086   5.460   1.376 -0.3677 -1.0546 -1.2334
 7026TIP3    H242570   3.033   5.601   1.390  4.1614  0.9419 -2.1101
 7027TIP3   OH242571   3.808   4.028   0.661  0.8220 -0.3404  0.4155
 7027TIP3    H142572   3.787   3.967   0.591  0.1127 -0.2001  0.5050
 7027TIP3    H242573   3.897   4.058   0.640  0.6006 -0.2684 -0.4487
 7028TIP3   OH242574   4.108   5.390  16.952  0.4384 -0.6288 -0.2673
 7028TIP3    H142575   4.116   5.408  17.046  0.4896 -0.7258 -0.2534
 7028TIP3    H242576   4.124   5.296  16.944 -0.7098 -0.8527 -0.2243
 7029TIP3   OH242577   3.169   1.843   3.112 -0.2204  0.3523 -0.2872
 7029TIP3    H142578   3.206   1.870   3.196 -0.5961 -0.6541  0.2206
 7029TIP3    H242579   3.103   1.778   3.135  0.7553 -1.1109 -1.4542
 7030TIP3   OH242580   2.667   0.252   2.966  0.1369 -0.3132  0.3655
 7030TIP3    H142581   2.609   0.255   3.042 -0.3336 -1.2930  0.0654
 7030TIP3    H242582   2.635   0.321   2.909  0.8029  0.7656  1.2582
 7031TIP3   OH242583   4.752   0.833  13.046 -0.4878 -0.2888  0.3380
 7031TIP3    H142584   4.684   0.778  13.086 -0.2228 -1.2132 -0.4669
 7031TIP3    H242585   4.736   0.827  12.952  0.9999 -0.9214  0.1037
 7032TIP3   OH242586   2.826   0.198  14.025 -0.0765 -0.2794 -0.1082
 7032TIP3    H142587   2.854   0.248  14.102  1.4995 -1.7085  0.3261
 7032TIP3    H242588   2.773   0.126  14.061 -0.0724 -0.4525 -0.4425
 7033TIP3   OH242589   3.951   0.326  12.561  0.2384  0.0629  0.2620
 7033TIP3    H142590   4.037   0.285  12.565 -0.1714 -0.8331  0.1890
 7033TIP3    H242591   3.931   0.332  12.468 -1.0363 -2.5316  0.2785
 7034TIP3   OH242592   5.085   4.499   4.444 -0.5490 -0.5255  0.2307
 7034TIP3    H142593   5.103   4.411   4.477  1.0298 -0.9340 -1.5706
 7034TIP3    H242594   5.084   4.554   4.522 -0.5768 -1.9687  1.2935
 7035TIP3   OH242595   2.016   6.784  11.643 -0.0827 -0.4601  0.2979
 7035TIP3    H142596   1.925   6.785  11.612 -0.1455 -0.8905  0.4704
 7035TIP3    H242597   2.064   6.833  11.576 -0.5167  0.1823  0.4443
 7036TIP3   OH242598   4.261   1.041  10.713 -0.4786 -0.0672 -0.1568
 7036TIP3    H142599   4.341   0.992  10.733 -1.1069 -1.2077 -0.3449
 7036TIP3    H242600   4.261   1.049  10.618 -0.5164  0.0634 -0.1457
 7037TIP3   OH242601   0.456   6.346   2.829 -0.0064  0.0255  0.1068
 7037TIP3    H142602   0.379   6.395   2.856  0.1683  0.3036  0.0990
 7037TIP3    H242603   0.511   6.409   2.783  0.0104 -0.2819 -0.3101
 7038TIP3   OH242604   0.402   4.423   5.362  0.0003 -0.5524 -0.4964
 7038TIP3    H142605   0.446   4.347   5.324 -0.1058  0.0959 -1.9990
 7038TIP3    H242606   0.473   4.473   5.403  0.4671 -0.2951 -1.5634
 7039TIP3   OH242607   5.654   1.228  14.293 -0.1075 -0.0386  0.6140
 7039TIP3    H142608   5.621   1.227  14.383  2.0113 -2.7962  1.5201
 7039TIP3    H242609   5.660   1.136  14.269  1.1387  0.5700 -1.6762
 7040TIP3   OH242610   4.283   1.615  11.993 -0.0046 -0.5647  0.0584
 7040TIP3    H142611   4.344   1.670  12.042  0.1802 -0.7630  0.0503
 7040TIP3    H242612   4.202   1.617  12.044 -0.6653  1.3646 -0.9602
 7041TIP3   OH242613   6.677   6.404   0.568 -0.5299 -0.1382  0.6220
 7041TIP3    H142614   6.609   6.340   0.546  1.2900 -2.8207  2.1879
 7041TIP3    H242615   6.751   6.379   0.513  0.5135  0.0146  1.9178
 7042TIP3   OH242616   6.429   5.272  12.375  0.1944 -0.2847  0.2062
 7042TIP3    H142617   6.360   5.210  12.398  0.1902 -0.4557 -0.2603
 7042TIP3    H242618   6.501   5.218  12.345  0.5359 -0.1047  0.6898
 7043TIP3   OH242619   1.483   1.363  16.603 -0.0146  0.5492 -0.6439
 7043TIP3    H142620   1.460   1.309  16.678 -0.9888  1.8184  0.0237
 7043TIP3    H242621   1.423   1.333  16.534 -3.1842  3.0207  0.7432
 7044TIP3   OH242622   5.171   6.134  11.306  0.1844  0.5255 -0.2613
 7044TIP3    H142623   5.076   6.129  11.309  0.1280  0.6956  3.4922
 7044TIP3    H242624   5.201   6.079  11.379  3.0962 -0.6765 -2.1605
 7045TIP3   OH242625   1.398   5.125   3.150  0.2814 -0.5097  0.0494
 7045TIP3    H142626   1.447   5.200   3.184  0.0293 -0.6725  0.7656
 7045TIP3    H242627   1.450   5.049   3.176 -1.0091 -0.7789  1.9923
 7046TIP3   OH242628   4.753   0.619   3.122 -0.2129  0.7129  0.0862
 7046TIP3    H142629   4.713   0.706   3.122 -0.4020  0.6539  1.8104
 7046TIP3    H242630   4.679   0.558   3.122 -0.0791  0.5242 -0.8702
 7047TIP3   OH242631   2.879   3.999  12.743 -0.2405  0.2394 -0.0729
 7047TIP3    H142632   2.833   4.005  12.827  0.0975 -0.8032  0.2002
 7047TIP3    H242633   2.868   3.908  12.716 -0.1650  0.5138 -1.0685
 7048TIP3   OH242634   3.974   2.635  14.664 -0.1767  0.2385 -0.6712
 7048TIP3    H142635   3.931   2.668  14.743 -0.6641  0.3880 -0.9976
 7048TIP3    H242636   4.056   2.597  14.696 -0.0658  0.8798 -0.1683
 7049TIP3   OH242637   1.542   5.946   5.172 -0.6399 -0.3808 -0.1623
 7049TIP3    H142638   1.534   5.944   5.077 -0.6815 -0.7872 -0.1524
 7049TIP3    H242639   1.629   5.909   5.190 -1.7372 -3.0517  0.0826
 7050TIP3   OH242640   0.155   1.114  11.111  0.7695  0.1146 -0.0358
 7050TIP3    H142641   0.215   1.060  11.163  0.9780 -0.5750 -0.9728
 7050TIP3    H242642   0.073   1.064  11.110 -0.2937  1.6595  2.3389
 7051TIP3   OH242643   1.162   3.326   5.004 -0.5714  0.4289  0.6135
 7051TIP3    H142644   1.118   3.258   5.055 -0.2706 -0.5835 -0.4130
 7051TIP3    H242645   1.095   3.392   4.989 -1.5563 -0.7055 -0.2404
 7052TIP3   OH242646   6.411   4.981  14.515 -0.0160  0.1548  0.4224
 7052TIP3    H142647   6.496   4.964  14.474  0.0143  1.2794 -0.0246
 7052TIP3    H242648   6.350   4.990  14.442 -0.4632 -0.2884  0.7287
 7053TIP3   OH242649   1.642   5.530  16.468  0.1142  0.9743  0.1157
 7053TIP3    H142650   1.554   5.568  16.478 -0.1867  0.0145  1.2545
 7053TIP3    H242651   1.657   5.482  16.549  2.4219  2.5108  0.6985
 7054TIP3   OH242652   0.347   5.089   3.758  0.5578 -0.6430 -0.4103
 7054TIP3    H142653   0.409   5.076   3.830  0.9237  0.9327 -0.3932
 7054TIP3    H242654   0.273   5.134   3.799  0.4235 -0.4553 -0.8564
 7055TIP3   OH242655   1.618   4.317  16.529 -0.5410 -0.3150  0.3157
 7055TIP3    H142656   1.590   4.333  16.438  2.1952  2.5317 -0.2074
 7055TIP3    H242657   1.555   4.366  16.582 -0.2855  0.7277 -0.3211
 7056TIP3   OH242658   5.951   2.317  14.842  0.1301 -0.0670  0.1290
 7056TIP3    H142659   5.924   2.398  14.799 -0.1056 -1.4543 -2.6064
 7056TIP3    H242660   5.875   2.259  14.834  1.6582 -1.9845 -2.1187
 7057TIP3   OH242661   1.503   1.105  11.265 -0.1795  0.0190 -0.0578
 7057TIP3    H142662   1.417   1.115  11.304  0.3862 -0.8295  1.5126
 7057TIP3    H242663   1.563   1.101  11.340  1.6736  3.8666 -1.0650
 7058TIP3   OH242664   6.740   2.311   1.184  0.0718 -0.1026  0.7907
 7058TIP3    H142665   6.725   2.403   1.202 -1.0626 -0.3701  1.2682
 7058TIP3    H242666   6.779   2.277   1.264 -0.0944 -0.1658  0.8460
 7059TIP3   OH242667   4.511   0.862  16.273  0.1201 -0.1736 -0.0822
 7059TIP3    H142668   4.440   0.912  16.313  0.9498  1.1817 -0.2244
 7059TIP3    H242669   4.547   0.809  16.344  0.4598  0.9033  0.5737
 7060TIP3   OH242670   3.519   2.978   5.385 -0.8696  0.3699 -0.4872
 7060TIP3    H142671   3.538   3.070   5.367  1.0260 -0.1037 -1.0600
 7060TIP3    H242672   3.426   2.978   5.408 -0.8887  2.4405 -0.3138
 7061TIP3   OH242673   4.446   2.656  14.925 -0.1275 -0.3765  0.1116
 7061TIP3    H142674   4.502   2.657  15.003  0.4840 -1.0792 -0.3022
 7061TIP3    H242675   4.369   2.606  14.952 -1.1216  1.5305  1.0322
 7062TIP3   OH242676   2.590   2.060   0.435 -0.3238 -0.2788 -0.2764
 7062TIP3    H142677   2.615   1.973   0.466  0.8640 -0.3360 -1.3145
 7062TIP3    H242678   2.583   2.113   0.514  0.4338 -0.9515  0.2593
 7063TIP3   OH242679   1.488   2.759   2.358 -0.1096  0.4030 -0.5174
 7063TIP3    H142680   1.453   2.772   2.447 -0.7782 -0.1063 -0.6949
 7063TIP3    H242681   1.556   2.825   2.350  0.0269  0.3984  0.4132
 7064TIP3   OH242682   0.405   5.795  12.793  0.4929  0.3727 -0.0818
 7064TIP3    H142683   0.343   5.751  12.852  1.3790  1.3851  1.6774
 7064TIP3    H242684   0.350   5.852  12.740 -0.3792 -0.9079 -0.6212
 7065TIP3   OH242685   1.803   1.136   2.555 -0.5035 -0.3358 -0.2017
 7065TIP3    H142686   1.728   1.108   2.607  1.3310 -0.5806  2.4573
 7065TIP3    H242687   1.847   1.055   2.530  1.4259 -0.1748  2.3235
 7066TIP3   OH242688   6.298   0.588  14.470 -0.1990 -0.1591 -0.3783
 7066TIP3    H142689   6.297   0.638  14.388 -1.3700 -1.2092 -1.0476
 7066TIP3    H242690   6.210   0.600  14.506 -0.3652 -1.3912 -0.3495
 7067TIP3   OH242691   5.327   2.137  12.772 -0.3061  0.1794 -0.4182
 7067TIP3    H142692   5.283   2.086  12.840 -0.7242  0.5678 -0.3889
 7067TIP3    H242693   5.399   2.181  12.817 -1.8833  2.2054  0.3114
 7068TIP3   OH242694   5.596   5.140  15.799 -0.5883  0.1327  0.0993
 7068TIP3    H142695   5.603   5.053  15.838 -0.5484 -0.0879 -0.3953
 7068TIP3    H242696   5.647   5.135  15.719 -0.2692  0.7269  0.2586
 7069TIP3   OH242697   5.097   0.361  16.570  0.4118  0.3669 -0.6576
 7069TIP3    H142698   5.018   0.348  16.518 -1.1325 -0.9752  1.8699
 7069TIP3    H242699   5.149   0.283  16.554 -1.3661 -1.4652  1.8478
 7070TIP3   OH242700   1.399   1.837  12.182 -0.6963 -0.1858  0.3785
 7070TIP3    H142701   1.451   1.910  12.147 -0.0783 -0.2547  1.1255
 7070TIP3    H242702   1.463   1.768  12.198 -1.2991 -0.9581 -0.4671
 7071TIP3   OH242703   6.755   1.390   1.026  0.1266  0.1605  0.3189
 7071TIP3    H142704   6.748   1.319   1.089 -2.9410 -1.1904 -1.3700
 7071TIP3    H242705   6.723   1.467   1.073 -0.7723 -0.5212  0.8518
 7072TIP3   OH242706   6.743   2.165   0.955 -0.8352  0.0045  0.3346
 7072TIP3    H142707   6.744   2.249   0.908 -1.1811 -0.7155 -1.0016
 7072TIP3    H242708   6.738   2.190   1.048 -0.4187  1.4641 -0.0020
 7073TIP3   OH242709   5.523   3.499  14.796  0.4581  0.0850  0.0722
 7073TIP3    H142710   5.530   3.588  14.761  1.3757  0.1275  0.3329
 7073TIP3    H242711   5.584   3.448  14.743  1.2227 -0.0235  1.0303
 7074TIP3   OH242712   3.604   5.402  16.451 -0.3831  0.2002  0.5834
 7074TIP3    H142713   3.600   5.385  16.357  0.5015 -1.6364  0.8251
 7074TIP3    H242714   3.631   5.493  16.458  1.3238 -0.1273 -0.9853
 7075TIP3   OH242715   0.494   2.994  13.036 -0.6259 -0.5724 -0.5168
 7075TIP3    H142716   0.502   2.961  13.125  2.4142  2.5251  0.5786
 7075TIP3    H242717   0.486   2.915  12.982 -1.4759 -2.5938  2.3357
 7076TIP3   OH242718   3.941   5.464   0.070 -0.4128 -0.1226 -0.4071
 7076TIP3    H142719   4.030   5.435   0.087 -0.9129 -0.8669  1.1709
 7076TIP3    H242720   3.918   5.517   0.147 -0.9201  1.0570 -1.3519
 7077TIP3   OH242721   4.742   1.583   3.505  0.4626  0.1218 -0.1457
 7077TIP3    H142722   4.669   1.642   3.525  0.5373 -0.5306  2.4904
 7077TIP3    H242723   4.725   1.552   3.417 -0.4943  2.7205 -0.9722
 7078TIP3   OH242724   5.332   0.696   0.990  0.2512 -0.1696  0.1374
 7078TIP3    H142725   5.421   0.698   1.026  0.6357 -1.1403 -0.7183
 7078TIP3    H242726   5.283   0.758   1.045  1.3332  0.0330  0.9166
 7079TIP3   OH242727   6.263   4.734  14.553 -0.0562 -0.8085  0.1837
 7079TIP3    H142728   6.317   4.812  14.567  0.9667 -1.7993  2.2141
 7079TIP3    H242729   6.315   4.662  14.589 -0.9073 -2.4959 -1.7080
 7080TIP3   OH242730   1.748   4.937   3.231 -0.2386  0.2787 -0.1272
 7080TIP3    H142731   1.678   4.951   3.295  0.6302  0.3966  0.8193
 7080TIP3    H242732   1.706   4.950   3.146 -1.4943 -0.1976  0.3963
 7081TIP3   OH242733   6.087   1.081  12.032  0.0697 -0.0016 -0.3906
 7081TIP3    H142734   6.050   1.033  12.106  1.4294 -0.3997  0.0612
 7081TIP3    H242735   6.011   1.110  11.981 -0.8245 -2.1625 -0.3918
 7082TIP3   OH242736   3.865   1.722  11.365 -0.2328 -0.4062  0.1092
 7082TIP3    H142737   3.912   1.802  11.343 -0.5563 -0.3032 -0.2124
 7082TIP3    H242738   3.781   1.731  11.321  0.3748 -1.7176 -1.4010
 7083TIP3   OH242739   3.524   2.842   1.774 -0.5702 -0.8066  0.4061
 7083TIP3    H142740   3.482   2.894   1.842  1.3973  1.3767  0.0728
 7083TIP3    H242741   3.603   2.808   1.815  0.8105  0.8062 -0.7885
 7084TIP3   OH242742   3.303   0.458   6.226 -0.2666  0.2161 -0.0501
 7084TIP3    H142743   3.348   0.375   6.243 -0.6940 -0.2868 -1.3051
 7084TIP3    H242744   3.235   0.436   6.162 -0.3736  1.5405 -0.4116
 7085TIP3   OH242745   1.936   3.544  11.567  0.1895  0.3467  0.2538
 7085TIP3    H142746   1.974   3.469  11.613 -2.2750 -0.4086  1.2556
 7085TIP3    H242747   1.937   3.519  11.475 -0.8588 -1.1060  0.5988
 7086TIP3   OH242748   2.579   1.511   2.792  0.3338  1.1831  0.1020
 7086TIP3    H142749   2.489   1.533   2.814  0.4270  0.6453  1.0398
 7086TIP3    H242750   2.572   1.447   2.721  0.0181  2.2385 -0.8443
 7087TIP3   OH242751   1.343   0.172  16.906 -0.3980 -0.0436 -0.2544
 7087TIP3    H142752   1.411   0.132  16.961 -1.3445  0.6395  1.4966
 7087TIP3    H242753   1.262   0.160  16.956 -1.4017  0.1560 -1.7720
 7088TIP3   OH242754   0.847   5.584  16.641 -0.2289  0.1461 -0.2809
 7088TIP3    H142755   0.821   5.495  16.668  0.1959 -0.0202 -0.4091
 7088TIP3    H242756   0.795   5.601  16.563  0.2617 -0.3068 -0.7128
 7089TIP3   OH242757   6.398   4.032   0.836  0.2064 -0.5759 -0.5918
 7089TIP3    H142758   6.426   3.964   0.897 -0.2615  0.4237  0.8230
 7089TIP3    H242759   6.306   4.013   0.818  0.0028 -0.2009  0.0098
 7090TIP3   OH242760   2.992   2.434  11.572 -1.3589 -0.4297 -0.0243
 7090TIP3    H142761   3.066   2.420  11.632 -2.1353 -2.7454  0.4995
 7090TIP3    H242762   3.024   2.401  11.488 -1.4955 -0.5859 -0.0145
 7091TIP3   OH242763   6.427   4.717   0.302 -0.0094 -0.1107  0.0638
 7091TIP3    H142764   6.398   4.806   0.284 -0.2139 -0.2306 -0.2152
 7091TIP3    H242765   6.500   4.703   0.241 -0.3777 -0.3437 -0.3338
 7092TIP3   OH242766   4.055   3.632   0.375 -0.0208  0.5860  0.1719
 7092TIP3    H142767   4.085   3.577   0.448  0.4804 -1.9605 -1.7916
 7092TIP3    H242768   4.134   3.646   0.322 -0.7239  0.8180 -0.8382
 7093TIP3   OH242769   3.395   1.609   3.861  0.1348  0.4599 -0.2893
 7093TIP3    H142770   3.367   1.592   3.771 -0.7473 -0.8554  0.1899
 7093TIP3    H242771   3.488   1.587   3.861  0.0010 -0.1526 -0.7457
 7094TIP3   OH242772   4.699   6.281  14.998  0.2457 -0.2858  0.1058
 7094TIP3    H142773   4.717   6.255  14.908  1.5487 -0.0800  0.2774
 7094TIP3    H242774   4.671   6.200  15.042  0.9700 -0.6950 -0.1628
 7095TIP3   OH242775   5.880   2.822   0.073 -0.0784  0.1197  0.0764
 7095TIP3    H142776   5.842   2.892   0.021 -0.7522  0.3158  0.8061
 7095TIP3    H242777   5.923   2.765   0.010 -2.6110 -0.7660 -0.9646
 7096TIP3   OH242778   0.221   0.829   1.225 -0.2280  0.0928  0.4652
 7096TIP3    H142779   0.268   0.793   1.300  0.4696 -1.3116 -0.5892
 7096TIP3    H242780   0.242   0.770   1.153 -2.3086  0.3583 -0.4420
 7097TIP3   OH242781   5.142   3.391  14.398 -0.1720  0.3159  0.5729
 7097TIP3    H142782   5.178   3.362  14.314  0.7277 -0.7836  1.3030
 7097TIP3    H242783   5.142   3.487  14.393  2.6341  0.3699  0.4165
 7098TIP3   OH242784   1.081   5.089   2.087 -0.3403 -0.7731  0.6123
 7098TIP3    H142785   0.996   5.098   2.043  0.1903 -0.4435 -0.3677
 7098TIP3    H242786   1.076   5.003   2.128 -0.9606 -0.9860  0.1251
 7099TIP3   OH242787   1.683   4.266  13.894  0.7398 -0.0505 -0.5752
 7099TIP3    H142788   1.620   4.205  13.858  1.6116 -0.8689 -0.7626
 7099TIP3    H242789   1.692   4.240  13.986  1.2738 -0.3654 -0.7095
 7100TIP3   OH242790   2.031   4.869  14.294 -0.2322  0.1775  0.5584
 7100TIP3    H142791   2.086   4.834  14.224  1.0871  3.1376 -0.0635
 7100TIP3    H242792   2.094   4.895  14.362 -0.9535  2.1096  0.5478
 7101TIP3   OH242793   1.982   1.839  10.718 -0.1990  0.1310  0.0581
 7101TIP3    H142794   1.924   1.898  10.670 -0.3924  0.9704  1.2758
 7101TIP3    H242795   2.016   1.779  10.652 -0.2279  1.4200 -1.1601
 7102TIP3   OH242796   3.535   0.775  13.842  0.3536  0.3103  0.0472
 7102TIP3    H142797   3.453   0.824  13.840  0.5500  0.7344  1.5245
 7102TIP3    H242798   3.558   0.769  13.934  1.9131  0.0626 -0.3191
 7103TIP3   OH242799   0.924   4.465  13.740  0.1273  0.2514 -0.5256
 7103TIP3    H142800   0.917   4.516  13.820 -0.2006  0.6876 -0.8301
 7103TIP3    H242801   0.857   4.397  13.749 -0.5611  0.8801 -0.8508
 7104TIP3   OH242802   5.573   5.978   2.405  0.2694  0.8137 -0.4171
 7104TIP3    H142803   5.553   5.989   2.312  1.4883  2.2935 -0.5315
 7104TIP3    H242804   5.658   5.934   2.407  0.5799  1.4123 -0.0240
 7105TIP3   OH242805   6.734   6.713   0.319  0.1369  0.2767  0.3753
 7105TIP3    H142806   6.777   6.664   0.249 -1.3772  0.7594 -0.9560
 7105TIP3    H242807   6.674   6.651   0.359  0.6077  0.1569  0.9231
 7106TIP3   OH242808   4.024   4.898   5.844 -0.0861  0.6263 -0.0616
 7106TIP3    H142809   3.943   4.848   5.836 -0.9046  1.9217 -0.3584
 7106TIP3    H242810   4.069   4.883   5.761 -1.1677  1.7176 -0.9008
 7107TIP3   OH242811   0.297   6.027   5.290 -0.0068  0.2667  0.5073
 7107TIP3    H142812   0.366   6.081   5.329 -0.5054  0.7837  0.6881
 7107TIP3    H242813   0.326   6.012   5.200  0.9887 -0.6514  0.9486
 7108TIP3   OH242814   2.390   4.652  11.214 -0.1981  0.0048  0.2806
 7108TIP3    H142815   2.297   4.653  11.237 -0.5268 -0.9290 -0.8820
 7108TIP3    H242816   2.410   4.743  11.190 -1.1339 -0.0023 -0.6010
 7109TIP3   OH242817   1.279   2.176  16.797  0.4093  0.1850 -0.3075
 7109TIP3    H142818   1.334   2.224  16.736 -0.4858 -0.2355 -1.5050
 7109TIP3    H242819   1.236   2.243  16.849  0.6548  0.5938 -0.6231
 7110TIP3   OH242820   6.386   5.527   2.381 -0.2476 -0.0817  0.0105
 7110TIP3    H142821   6.300   5.568   2.372 -0.6408 -0.9026 -0.1178
 7110TIP3    H242822   6.367   5.441   2.419  0.1637 -1.5513 -2.8318
 7111TIP3   OH242823   2.802   2.070  12.407 -0.3773 -0.3955  0.4313
 7111TIP3    H142824   2.723   2.055  12.355 -0.2997  0.9546 -0.1110
 7111TIP3    H242825   2.782   2.147  12.459  1.3040  1.3306 -1.3129
 7112TIP3   OH242826   1.609   4.287   3.633 -0.3135  0.1301  0.2456
 7112TIP3    H142827   1.608   4.192   3.626 -1.2444  0.2103 -1.2332
 7112TIP3    H242828   1.520   4.310   3.660 -0.1372  0.5803  0.4529
 7113TIP3   OH242829   3.574   0.199   2.676  0.0984 -0.3844  0.0433
 7113TIP3    H142830   3.533   0.257   2.611 -1.0333 -0.7538  0.3973
 7113TIP3    H242831   3.645   0.251   2.713 -0.1557  0.3553 -0.4808
 7114TIP3   OH242832   2.593   2.143  16.041 -0.3520  0.4778  0.0260
 7114TIP3    H142833   2.620   2.051  16.039 -0.9720  0.2968  0.0651
 7114TIP3    H242834   2.634   2.178  16.120  1.5778  0.7655 -1.0159
 7115TIP3   OH242835   1.793   0.827  12.056  0.0523  0.0365 -0.3124
 7115TIP3    H142836   1.820   0.856  11.969 -1.1295  0.3935 -0.5767
 7115TIP3    H242837   1.758   0.738  12.042  0.7921 -0.3064 -0.0258
 7116TIP3   OH242838   0.808   2.799   1.341  0.5762 -0.3961 -0.2168
 7116TIP3    H142839   0.739   2.865   1.346 -2.3957 -3.3828  2.7621
 7116TIP3    H242840   0.786   2.747   1.264 -0.6611 -1.3829  0.7626
 7117TIP3   OH242841   4.105   6.563   0.740  0.3832 -0.1381 -0.1202
 7117TIP3    H142842   4.123   6.583   0.832  0.0831 -1.7413  0.3182
 7117TIP3    H242843   4.090   6.648   0.700 -0.0319  0.5646  1.4357
 7118TIP3   OH242844   5.647   2.097  14.522  0.6852  0.1715  0.1691
 7118TIP3    H142845   5.608   2.115  14.436  0.8089 -2.2842 -0.4807
 7118TIP3    H242846   5.740   2.119  14.511  1.2126 -2.3777 -1.1717
 7119TIP3   OH242847   3.359   1.755  14.998 -0.4520 -0.1985 -0.4996
 7119TIP3    H142848   3.349   1.678  14.942 -1.7977 -0.9221  0.6801
 7119TIP3    H242849   3.340   1.723  15.086  0.4442  1.1748  0.2304
 7120TIP3   OH242850   0.393   5.382  16.095 -0.0186  0.3964  0.8653
 7120TIP3    H142851   0.471   5.330  16.073 -1.4562 -1.5202  0.0430
 7120TIP3    H242852   0.357   5.408  16.011 -0.9794  0.1562  1.1917
 7121TIP3   OH242853   0.867   4.624   2.191  0.2336  0.0744 -0.2284
 7121TIP3    H142854   0.953   4.625   2.233 -0.1567 -0.2042  0.5847
 7121TIP3    H242855   0.877   4.683   2.116  0.6777  1.3346  0.7829
 7122TIP3   OH242856   4.631   2.630  16.507  0.2681  0.8205 -0.1279
 7122TIP3    H142857   4.611   2.658  16.596  0.4651 -1.3955  0.6917
 7122TIP3    H242858   4.546   2.611  16.468  0.1193  2.6635 -0.7657
 7123TIP3   OH242859   3.732   0.217   0.216 -0.0617 -0.4766  0.6934
 7123TIP3    H142860   3.661   0.154   0.207 -1.4828  1.2252 -0.6867
 7123TIP3    H242861   3.784   0.206   0.136  0.2388 -0.5152  0.8900
 7124TIP3   OH242862   4.505   3.364  12.671  0.5683  0.6807 -0.0841
 7124TIP3    H142863   4.543   3.342  12.756  0.7075  0.1785 -0.2741
 7124TIP3    H242864   4.447   3.439  12.689 -0.3138 -0.1504  0.6722
 7125TIP3   OH242865   0.034   2.251  15.107 -0.8188  0.0795  0.2285
 7125TIP3    H142866   0.126   2.273  15.116 -0.8466  1.0862 -1.5704
 7125TIP3    H242867   0.031   2.186  15.037 -1.5012  0.2734  0.0707
 7126TIP3   OH242868   1.122   1.566  11.370  0.5663 -0.4946 -0.0015
 7126TIP3    H142869   1.049   1.614  11.409  0.3391 -1.0461  0.2643
 7126TIP3    H242870   1.087   1.479  11.352  1.0613 -0.6602 -0.1844
 7127TIP3   OH242871   5.142   2.157   0.622  0.2244  0.4928 -0.1961
 7127TIP3    H142872   5.156   2.071   0.661  1.1395  0.5061 -0.4613
 7127TIP3    H242873   5.227   2.201   0.632 -0.4405  1.6332  0.6068
 7128TIP3   OH242874   5.519   5.045   1.906 -0.3380  0.3117  0.1939
 7128TIP3    H142875   5.431   5.008   1.910  0.0775 -0.5441  2.7677
 7128TIP3    H242876   5.517   5.118   1.968  0.9750 -0.2398  0.9125
 7129TIP3   OH242877   2.728   0.140  16.191  0.1822 -0.4399 -0.3322
 7129TIP3    H142878   2.729   0.235  16.175  2.2216 -0.3692 -0.0818
 7129TIP3    H242879   2.681   0.130  16.274 -0.4254  0.2974 -0.5678
 7130TIP3   OH242880   1.180   0.291   0.827  0.1766 -0.4108  0.3495
 7130TIP3    H142881   1.215   0.319   0.742 -2.1547 -0.7617 -0.8229
 7130TIP3    H242882   1.156   0.373   0.871  0.0697 -0.2706  0.0351
 7131TIP3   OH242883   5.028   5.939   1.113 -0.3101 -0.4734  0.2019
 7131TIP3    H142884   4.958   5.875   1.125 -0.3988 -0.3085  0.5751
 7131TIP3    H242885   5.018   5.969   1.022 -1.8240  0.8274  0.7464
 7132TIP3   OH242886   3.555   1.040  14.910 -0.4857 -0.2952  0.0439
 7132TIP3    H142887   3.551   1.135  14.923 -0.8840 -0.2120 -0.6514
 7132TIP3    H242888   3.511   1.003  14.986  0.0950  0.0513  0.5641
 7133TIP3   OH242889   2.259   3.867  11.758 -0.5183  0.0934 -0.7953
 7133TIP3    H142890   2.226   3.906  11.677 -2.6149 -1.9830 -1.0759
 7133TIP3    H242891   2.192   3.802  11.781  1.9359 -2.1631  0.4588
 7134TIP3   OH242892   1.993   0.154  10.840  0.1891 -0.5685  0.3921
 7134TIP3    H142893   1.998   0.116  10.752 -0.4899  0.3906 -0.0843
 7134TIP3    H242894   2.078   0.195  10.853 -0.9234  2.6991 -1.4878
 7135TIP3   OH242895   0.051   0.303  13.113 -0.4776  0.5344 -0.4886
 7135TIP3    H142896   0.142   0.273  13.116 -0.1609  1.2069 -2.1535
 7135TIP3    H242897   0.001   0.226  13.086 -0.7046 -0.3046  2.0349
 7136TIP3   OH242898   6.334   4.375  15.921 -0.2729  0.2188  0.0896
 7136TIP3    H142899   6.322   4.323  15.842  0.5221  0.2948 -0.0915
 7136TIP3    H242900   6.414   4.425  15.905  0.8381 -0.9784  1.5908
 7137TIP3   OH242901   1.663   4.441  15.998  0.3361  0.6676  0.2054
 7137TIP3    H142902   1.702   4.462  15.914  0.7590 -1.1032 -0.0975
 7137TIP3    H242903   1.627   4.523  16.030 -0.0901  1.3361 -1.8311
 7138TIP3   OH242904   4.011   5.929   0.662  0.4040  0.1530  0.6462
 7138TIP3    H142905   3.976   6.017   0.679  1.7344  0.4704  1.8868
 7138TIP3    H242906   3.953   5.871   0.711 -1.6248  0.0703 -1.6424
 7139TIP3   OH242907   0.571   5.972  14.830 -0.0334 -0.2452 -0.3134
 7139TIP3    H142908   0.618   5.901  14.785  0.9566  0.1901  0.0360
 7139TIP3    H242909   0.545   6.031  14.759  0.7061 -0.0417 -0.4208
 7140TIP3   OH242910   2.899   3.155   6.881  0.6404 -0.3190  0.5503
 7140TIP3    H142911   2.916   3.244   6.850 -1.1214 -0.7542 -1.9998
 7140TIP3    H242912   2.805   3.154   6.899  0.4078 -1.9406 -0.5757
 7141TIP3   OH242913   1.836   1.974   0.486  0.0838  0.4067 -0.3789
 7141TIP3    H142914   1.805   1.967   0.396  0.3153  1.4414 -0.5435
 7141TIP3    H242915   1.905   1.908   0.493 -0.9275 -0.6972 -0.5194
 7142TIP3   OH242916   3.048   6.489  11.270 -0.6553  0.3511 -0.1040
 7142TIP3    H142917   3.032   6.582  11.290 -0.1940  0.2435  0.7911
 7142TIP3    H242918   3.144   6.481  11.270 -0.6897 -0.5804  2.0688
 7143TIP3   OH242919   2.658   0.057  12.163 -0.3541 -0.0526 -0.3397
 7143TIP3    H142920   2.585   0.033  12.220  0.4389 -1.3931  0.1731
 7143TIP3    H242921   2.686  -0.025  12.124  1.2493  0.3165 -0.0544
 7144TIP3   OH242922   0.285   2.704  12.698 -0.4561  0.4245  0.6199
 7144TIP3    H142923   0.317   2.624  12.740 -0.5267 -0.8880 -1.6897
 7144TIP3    H242924   0.213   2.732  12.754 -0.7397 -1.4004  1.2474
 7145TIP3   OH242925   4.099   0.818  12.423  0.0854  0.4142 -0.0923
 7145TIP3    H142926   4.070   0.727  12.430 -1.9623  0.5719 -3.9814
 7145TIP3    H242927   4.185   0.812  12.380  0.2796  0.3451  0.2950
 7146TIP3   OH242928   2.803   4.996   4.694 -0.2049 -0.2971  0.1375
 7146TIP3    H142929   2.880   5.042   4.729  0.1327 -1.2027  0.6266
 7146TIP3    H242930   2.808   4.909   4.734  0.1255 -1.3492 -2.0442
 7147TIP3   OH242931   5.715   0.954   0.810 -0.4988  0.2151 -0.1456
 7147TIP3    H142932   5.712   0.875   0.756  0.4940  0.3097 -0.3741
 7147TIP3    H242933   5.798   0.947   0.857 -0.3671  1.1509 -0.2260
 7148TIP3   OH242934   3.715   6.435  12.027  0.2389  0.6051 -0.0750
 7148TIP3    H142935   3.795   6.416  12.076  0.5263  0.3935 -0.6174
 7148TIP3    H242936   3.703   6.529  12.038  1.5490  0.9741 -1.4095
 7149TIP3   OH242937   4.107   2.750  16.864 -0.3073 -0.4076  0.4048
 7149TIP3    H142938   4.029   2.748  16.920 -0.1355  1.0243  0.7370
 7149TIP3    H242939   4.090   2.818  16.800 -0.5220 -2.0730 -1.4115
 7150TIP3   OH242940   2.231   0.583  10.851 -0.2156  0.3168  0.0506
 7150TIP3    H142941   2.258   0.492  10.853  1.7511  0.8512 -0.1966
 7150TIP3    H242942   2.139   0.581  10.824 -0.6337 -1.6414  1.4769
 7151TIP3   OH242943   3.186   5.426  11.421 -0.4788  0.1498  0.2787
 7151TIP3    H142944   3.252   5.420  11.490 -0.5216  0.0077  0.3066
 7151TIP3    H242945   3.106   5.392  11.460 -0.0936 -1.5769 -0.3591
 7152TIP3   OH242946   5.158   6.807   3.359  0.9322  0.3164  0.4107
 7152TIP3    H142947   5.217   6.766   3.295  1.6667 -0.1036  1.3275
 7152TIP3    H242948   5.200   6.790   3.443 -0.3925  0.2256  1.0680
 7153TIP3   OH242949   0.497   6.592   4.371  0.2426  0.6492  0.3695
 7153TIP3    H142950   0.488   6.545   4.288  0.0510 -1.2917  1.4354
 7153TIP3    H242951   0.590   6.587   4.392 -0.0871 -1.5215  1.6673
 7154TIP3   OH242952   3.201   4.940  11.319  0.7669 -0.5427  0.2188
 7154TIP3    H142953   3.171   5.016  11.269 -0.0360 -0.7997  0.2862
 7154TIP3    H242954   3.252   4.978  11.391 -0.2058  0.0018  0.6597
 7155TIP3   OH242955   4.262   4.107   1.939 -0.3460 -0.3367 -0.1853
 7155TIP3    H142956   4.356   4.111   1.956 -0.5661  1.2549  0.8430
 7155TIP3    H242957   4.225   4.065   2.016 -0.6010  0.1848 -0.0204
 7156TIP3   OH242958   2.462   2.025  16.778  0.2515  0.4828  0.0378
 7156TIP3    H142959   2.387   2.078  16.806  0.5514  1.1259 -0.3589
 7156TIP3    H242960   2.478   2.050  16.687  0.0013 -0.7642 -0.3756
 7157TIP3   OH242961   6.469   3.884   5.348  0.5812 -0.9130  0.4471
 7157TIP3    H142962   6.485   3.835   5.429 -0.4031  0.7990  1.7530
 7157TIP3    H242963   6.539   3.858   5.290  2.2879 -1.0118  2.4361
 7158TIP3   OH242964   4.326   3.509   1.105  0.3226  0.4134 -0.2637
 7158TIP3    H142965   4.294   3.441   1.046  1.3171  0.0372 -0.3857
 7158TIP3    H242966   4.248   3.560   1.127 -0.0481  0.6510 -1.9936
 7159TIP3   OH242967   5.556   2.794   5.395 -0.0814 -0.6017 -0.1404
 7159TIP3    H142968   5.568   2.829   5.483  0.6750  2.5085 -1.3593
 7159TIP3    H242969   5.620   2.723   5.388  2.4995  1.5265  0.6457
 7160TIP3   OH242970   2.178   3.566  16.380  0.4293 -0.1498  0.2564
 7160TIP3    H142971   2.145   3.486  16.423  2.6246 -0.4851  1.4698
 7160TIP3    H242972   2.151   3.557  16.289 -0.2124 -1.8006  0.5668
 7161TIP3   OH242973   6.370   2.432  10.573 -0.1876  0.2274 -0.4528
 7161TIP3    H142974   6.309   2.484  10.522 -0.7644  1.1162  1.0582
 7161TIP3    H242975   6.332   2.344  10.574 -0.4299  0.3226 -1.1055
 7162TIP3   OH242976   6.579   3.073   0.611 -0.1258 -0.6636 -0.2456
 7162TIP3    H142977   6.653   3.134   0.605  0.8480 -1.8503 -0.9225
 7162TIP3    H242978   6.593   3.013   0.538 -2.0293 -0.6599 -0.6518
 7163TIP3   OH242979   2.845   6.503   3.290 -0.7705  0.3788  0.1282
 7163TIP3    H142980   2.752   6.524   3.280 -0.8646  1.1454  2.0364
 7163TIP3    H242981   2.890   6.572   3.242 -1.1971  0.7624  0.2667
 7164TIP3   OH242982   2.674   6.273   2.695  0.3634  0.0708  0.0260
 7164TIP3    H142983   2.735   6.245   2.764  0.8438 -0.4038 -0.5840
 7164TIP3    H242984   2.629   6.193   2.669 -0.0666  0.3099  0.0206
 7165TIP3   OH242985   6.001   2.627  17.077 -0.2576  0.2300  0.5855
 7165TIP3    H142986   6.090   2.638  17.112 -0.1364 -1.6100  0.9525
 7165TIP3    H242987   6.001   2.679  16.997  1.6164 -0.8263 -0.1552
 7166TIP3   OH242988   5.174   5.993  15.785 -0.0776 -0.8783  0.7046
 7166TIP3    H142989   5.145   6.061  15.723  0.3217 -1.4353 -0.1161
 7166TIP3    H242990   5.269   6.003  15.788 -0.1081 -0.7766  1.3299
 7167TIP3   OH242991   5.717   1.346   2.457 -0.2099 -0.4205  0.3120
 7167TIP3    H142992   5.722   1.292   2.379  1.0397  0.2691 -0.1153
 7167TIP3    H242993   5.636   1.319   2.500 -1.6916  0.1711 -1.9427
 7168TIP3   OH242994   2.132   5.681  15.317  0.8665 -0.4586  0.0162
 7168TIP3    H142995   2.228   5.684  15.309  0.8697 -0.5490  0.0202
 7168TIP3    H242996   2.115   5.710  15.406  0.8997 -0.6038  0.0700
 7169TIP3   OH242997   1.949   4.804  14.700  0.2029 -0.0531 -0.1602
 7169TIP3    H142998   2.024   4.782  14.756  1.3554  0.3011 -1.5286
 7169TIP3    H242999   1.931   4.896  14.719 -0.8342 -0.5061  1.2152
 7170TIP3   OH243000   1.712   4.922   4.428 -0.5609  0.4436 -0.1413
 7170TIP3    H143001   1.639   4.953   4.481 -1.4451 -1.2465 -0.3216
 7170TIP3    H243002   1.678   4.920   4.338 -0.6720 -1.3131 -0.0975
 7171TIP3   OH243003   0.890   1.955  15.832  0.3048  0.1658  0.5483
 7171TIP3    H143004   0.956   1.910  15.885 -1.3008  0.4588  2.9803
 7171TIP3    H243005   0.897   2.047  15.858 -0.8775  0.2348  0.6939
 7172TIP3   OH243006   1.024   6.204  13.669  0.0379  0.1235  0.3020
 7172TIP3    H143007   0.991   6.282  13.714  0.0613 -0.1892  0.8712
 7172TIP3    H243008   1.013   6.224  13.576  1.7967  1.5907  0.3555
 7173TIP3   OH243009   6.425   1.590   1.763 -0.0194 -0.5186 -0.1380
 7173TIP3    H143010   6.481   1.623   1.693  0.1541 -0.8676 -0.1679
 7173TIP3    H243011   6.368   1.526   1.720 -1.7445  1.1792 -0.4867
 7174TIP3   OH243012   4.527   2.659  12.777 -0.1260  0.1029 -0.3361
 7174TIP3    H143013   4.611   2.694  12.804 -0.8297  1.9536 -0.4261
 7174TIP3    H243014   4.465   2.692  12.842 -1.1235  0.6927 -1.5541
 7175TIP3   OH243015   0.567   3.353  12.566 -0.3210 -0.1832 -0.9887
 7175TIP3    H143016   0.657   3.362  12.534 -0.5355  0.7585 -1.3634
 7175TIP3    H243017   0.572   3.286  12.634  1.0378  1.1659  0.3234
 7176TIP3   OH243018   0.580   5.542  10.924 -0.0659 -0.5514  0.1816
 7176TIP3    H143019   0.660   5.488  10.922 -1.2962 -2.5654  1.4170
 7176TIP3    H243020   0.509   5.478  10.920 -1.6317  1.1028  0.5309
 7177TIP3   OH243021   5.161   4.365  12.834 -0.0604  0.3711  0.0193
 7177TIP3    H143022   5.122   4.292  12.786 -1.2926  0.2451  1.1585
 7177TIP3    H243023   5.228   4.325  12.889  0.6372  0.3784 -0.8133
 7178TIP3   OH243024   4.832   1.065  14.587 -0.1562  0.1550 -0.2978
 7178TIP3    H143025   4.850   1.068  14.493 -0.5126  0.0146 -0.3714
 7178TIP3    H243026   4.870   1.146  14.621  0.3474  0.0051 -0.4945
 7179TIP3   OH243027   4.459   6.372   1.526  1.5165 -0.3806 -0.1225
 7179TIP3    H143028   4.415   6.299   1.570 -3.7985  2.5191  0.3003
 7179TIP3    H243029   4.438   6.360   1.434  0.6945  0.4246 -0.0613
 7180TIP3   OH243030   0.766   3.675   4.223 -0.2036  0.6575 -0.4299
 7180TIP3    H143031   0.682   3.703   4.258 -0.3829  1.1415 -1.2117
 7180TIP3    H243032   0.745   3.609   4.158  0.0819  0.2039 -0.0703
 7181TIP3   OH243033   3.041   3.931  16.741 -0.0001  0.3173 -0.1302
 7181TIP3    H143034   3.010   4.010  16.785 -1.0011 -0.0462 -0.1430
 7181TIP3    H243035   2.973   3.912  16.676  0.4840 -0.2603 -0.4780
 7182TIP3   OH243036   0.141   1.915  13.446 -0.2901  0.4125  0.2387
 7182TIP3    H143037   0.180   1.884  13.527  0.2537 -1.9994 -0.8870
 7182TIP3    H243038   0.046   1.905  13.461 -0.2051  0.1207  0.6143
 7183TIP3   OH243039   5.109   3.517  12.278 -0.4107 -0.0954 -0.3909
 7183TIP3    H143040   5.079   3.428  12.264  0.1763 -0.3356 -0.1581
 7183TIP3    H243041   5.029   3.570  12.280 -0.8753 -0.8111  0.9272
 7184TIP3   OH243042   2.718   5.007  14.661  0.4609 -0.2085  0.0166
 7184TIP3    H143043   2.741   5.000  14.754  1.3853 -2.4148 -0.3073
 7184TIP3    H243044   2.764   5.085  14.631 -0.6373  1.1285  1.5683
 7185TIP3   OH243045   5.442   0.055  13.448 -0.0401 -0.2238 -0.2636
 7185TIP3    H143046   5.447   0.150  13.459 -2.1307  0.1023 -1.5396
 7185TIP3    H243047   5.349   0.037  13.435  0.1643 -2.6091  1.0337
 7186TIP3   OH243048   3.961   5.689   3.477 -0.0929 -0.3190  0.1795
 7186TIP3    H143049   3.904   5.662   3.549  0.1469  1.1380  0.9611
 7186TIP3    H243050   3.929   5.640   3.401 -2.3101  0.3406  0.6164
 7187TIP3   OH243051   1.983   5.892   3.493 -0.7901 -0.4956 -0.1844
 7187TIP3    H143052   2.043   5.866   3.563  1.0545  0.3477 -1.3682
 7187TIP3    H243053   1.997   5.827   3.424 -0.6188  0.1583 -0.7822
 7188TIP3   OH243054   5.109   4.251   3.197 -0.1929  0.2594  0.2654
 7188TIP3    H143055   5.122   4.159   3.177 -2.2029  0.0689 -0.4027
 7188TIP3    H243056   5.096   4.293   3.112  2.6340  1.5905  0.3619
 7189TIP3   OH243057   1.769   4.034  12.836 -1.1925  0.2636 -0.3563
 7189TIP3    H143058   1.793   3.954  12.788 -1.7687  0.5701 -1.1751
 7189TIP3    H243059   1.689   4.010  12.883  0.2206 -0.5315  1.7864
 7190TIP3   OH243060   0.074   1.527  13.300  0.0432 -0.0572 -0.3879
 7190TIP3    H143061  -0.012   1.565  13.322 -0.1497 -0.3197 -0.6805
 7190TIP3    H243062   0.118   1.597  13.252 -0.0044  0.0816 -0.2308
 7191TIP3   OH243063   2.607   5.519  15.045 -0.3719  0.3469  0.7549
 7191TIP3    H143064   2.566   5.470  15.115 -2.2960  0.6831 -0.0868
 7191TIP3    H243065   2.548   5.592  15.027  0.8387  1.1604 -0.1745
 7192TIP3   OH243066   5.266   3.441  16.838  0.0886 -0.3003  0.3413
 7192TIP3    H143067   5.242   3.534  16.836  0.3279 -0.2479 -0.3773
 7192TIP3    H243068   5.360   3.441  16.858 -0.1800 -0.4535  1.7395
 7193TIP3   OH243069   1.041   0.493  17.028  0.2730  0.2993  0.1276
 7193TIP3    H143070   1.044   0.425  16.961  0.7642  0.2636  0.1816
 7193TIP3    H243071   1.055   0.574  16.980 -0.0189  0.3353  0.1020
 7194TIP3   OH243072   3.046   0.751  14.098  0.9343  0.5326 -0.0114
 7194TIP3    H143073   3.118   0.767  14.159  0.8973  2.1681 -0.3533
 7194TIP3    H243074   2.967   0.771  14.149  0.8030  0.2590 -0.1043
 7195TIP3   OH243075   2.561   5.907   4.851 -0.2170 -0.3992 -0.2028
 7195TIP3    H143076   2.515   5.970   4.796 -0.9760  1.6852  2.5502
 7195TIP3    H243077   2.492   5.861   4.899  0.4228  0.0568  1.2209
 7196TIP3   OH243078   5.673   4.242  15.270 -0.0288  0.0494 -0.2879
 7196TIP3    H143079   5.581   4.268  15.275 -0.0448  0.3877 -1.8225
 7196TIP3    H243080   5.712   4.276  15.350 -0.4911  3.0853 -1.2213
 7197TIP3   OH243081   6.518   3.050   0.294  0.8015  0.3004  0.6158
 7197TIP3    H143082   6.520   3.043   0.199 -3.4825  0.2809  0.3688
 7197TIP3    H243083   6.569   2.974   0.324 -0.4962 -1.6424 -1.7260
 7198TIP3   OH243084   3.150   6.416   6.089 -0.2224 -0.5403 -0.7824
 7198TIP3    H143085   3.058   6.394   6.072 -1.0506  0.3672  1.9647
 7198TIP3    H243086   3.187   6.337   6.126 -0.5594 -0.2176  0.2624
 7199TIP3   OH243087   5.139   0.172  15.972 -0.2639  0.0270  0.1044
 7199TIP3    H143088   5.118   0.153  15.881 -1.0164 -1.0644  0.4868
 7199TIP3    H243089   5.147   0.267  15.975 -0.3091  0.0879 -1.0790
 7200TIP3   OH243090   1.946   0.479   5.086  0.1951 -0.0723  0.5591
 7200TIP3    H143091   1.911   0.453   5.171 -0.5086  0.3183  0.3996
 7200TIP3    H243092   1.882   0.446   5.023 -0.1893  1.1414  0.2955
 7201TIP3   OH243093   3.366   3.154  16.821 -0.0824  0.4316  0.1321
 7201TIP3    H143094   3.323   3.176  16.904 -0.9424 -1.1192  0.1333
 7201TIP3    H243095   3.329   3.216  16.758 -1.1050  0.1801  0.4649
 7202TIP3   OH243096   6.333   0.946   5.096 -0.2566  0.0571 -0.2286
 7202TIP3    H143097   6.242   0.975   5.102  0.0330  0.7442  1.7890
 7202TIP3    H243098   6.347   0.930   5.003 -1.9995  1.3473 -0.7778
 7203TIP3   OH243099   5.759   5.442  15.292  0.1112  0.0468  0.1487
 7203TIP3    H143100   5.681   5.485  15.328 -0.1092  0.0462 -0.3248
 7203TIP3    H243101   5.824   5.511  15.285 -0.4502  0.4758 -1.2408
 7204TIP3   OH243102   0.492   6.092  10.570  0.2756 -0.1817 -0.1197
 7204TIP3    H143103   0.551   6.103  10.495  0.3591 -0.5988 -0.1179
 7204TIP3    H243104   0.549   6.058  10.640 -0.3527 -2.8818 -0.7886
 7205TIP3   OH243105   2.737   4.119  16.274  0.6084  0.0266  0.2469
 7205TIP3    H143106   2.831   4.120  16.291  0.2204 -0.0169  2.7080
 7205TIP3    H243107   2.731   4.120  16.179  3.0611  1.4898  0.0103
 7206TIP3   OH243108   4.261   0.038  10.721  0.6465  0.1571 -0.1938
 7206TIP3    H143109   4.331   0.073  10.775 -1.5336  1.7770  1.8354
 7206TIP3    H243110   4.201   0.111  10.709 -1.6534 -1.5842 -0.0926
 7207TIP3   OH243111   0.370   1.524   1.027  0.2197  0.1376 -0.4801
 7207TIP3    H143112   0.418   1.605   1.012  1.4420 -0.4770 -0.0951
 7207TIP3    H243113   0.437   1.455   1.020 -0.3699 -0.6675  1.2446
 7208TIP3   OH243114   2.368   2.477  14.866 -0.0604 -0.0723 -0.2888
 7208TIP3    H143115   2.340   2.387  14.848  1.8508 -0.6666 -0.4842
 7208TIP3    H243116   2.462   2.477  14.849 -0.1016  2.1083 -0.7908
 7209TIP3   OH243117   3.946   6.074  11.523  0.1779  0.0423 -0.0747
 7209TIP3    H143118   3.874   6.032  11.571  2.6594 -3.6335  0.8491
 7209TIP3    H243119   3.998   6.116  11.590  0.3231  0.3524 -0.3823
 7210TIP3   OH243120   4.059   3.524  11.397  0.1981 -0.3661  0.4702
 7210TIP3    H143121   4.132   3.464  11.383  0.3488 -0.5207  1.7738
 7210TIP3    H243122   4.099   3.602  11.435 -0.1051  0.2661 -0.4694
 7211TIP3   OH243123   4.516   1.592   0.807 -0.0641  0.0298 -0.2890
 7211TIP3    H143124   4.528   1.597   0.902 -2.7545  1.8294  0.0849
 7211TIP3    H243125   4.498   1.499   0.790 -2.2817  0.0360  1.4810
 7212TIP3   OH243126   6.730   2.242  11.821 -0.4258  0.6207  0.2552
 7212TIP3    H143127   6.712   2.330  11.791 -1.4274  0.2415 -0.3041
 7212TIP3    H243128   6.655   2.219  11.876  0.3952  0.5450  1.4035
 7213TIP3   OH243129   6.453   2.610   4.712 -0.1959  0.8216  0.1235
 7213TIP3    H143130   6.543   2.630   4.687 -0.8837  0.6800 -2.8049
 7213TIP3    H243131   6.420   2.554   4.641 -3.0114  2.0346  0.3420
 7214TIP3   OH243132   0.508   1.892  13.898  0.3149  0.7319  0.3882
 7214TIP3    H143133   0.517   1.981  13.932 -2.2376  1.6251 -1.0539
 7214TIP3    H243134   0.459   1.845  13.966 -0.3835  1.1101  0.1549
 7215TIP3   OH243135   4.044   6.359  15.185  0.2793  0.4153 -0.1967
 7215TIP3    H143136   4.133   6.325  15.182  0.3120  0.2628  1.4261
 7215TIP3    H243137   4.048   6.433  15.246 -0.7622  0.2175  0.1422
 7216TIP3   OH243138   3.613   3.315   6.273 -0.3681  0.0327 -0.1081
 7216TIP3    H143139   3.694   3.365   6.258 -0.9189  0.6330 -1.2356
 7216TIP3    H243140   3.643   3.226   6.292  0.6371  0.7019  1.6752
 7217TIP3   OH243141   3.442   4.063   0.337 -0.1174  0.2768  0.1014
 7217TIP3    H143142   3.533   4.085   0.318  0.1527  0.8239  1.8759
 7217TIP3    H243143   3.425   3.984   0.286  0.5387  1.5574 -2.2488
 7218TIP3   OH243144   6.128   1.515  12.953 -0.1352 -0.0061 -0.3790
 7218TIP3    H143145   6.205   1.474  12.914 -0.1729  1.3390 -1.9506
 7218TIP3    H243146   6.118   1.597  12.906 -1.4736  0.6972  1.0485
 7219TIP3   OH243147   4.118   2.799   0.038  0.0880  0.3358 -0.1927
 7219TIP3    H143148   4.200   2.750   0.047  0.4756  1.1918  1.3363
 7219TIP3    H243149   4.137   2.885   0.075 -1.2169  0.8932 -0.7570
 7220TIP3   OH243150   3.332   1.100   2.957 -0.1036  0.5370  0.0037
 7220TIP3    H143151   3.337   1.147   2.873 -0.5962 -0.3979 -0.5603
 7220TIP3    H243152   3.323   1.008   2.932 -0.1897  0.2435  1.0940
 7221TIP3   OH243153   5.723   6.696   1.534 -0.2132 -0.2661 -0.6028
 7221TIP3    H143154   5.677   6.623   1.491 -1.2849 -2.1088  3.2562
 7221TIP3    H243155   5.741   6.665   1.622  3.0825  2.7304 -0.0035
 7222TIP3   OH243156   3.283   1.477  13.434 -0.4391  0.0654 -0.5816
 7222TIP3    H143157   3.378   1.475  13.444 -0.3179 -1.5902 -1.7832
 7222TIP3    H243158   3.269   1.508  13.344 -1.0686  0.7607 -0.2570
 7223TIP3   OH243159   3.406   3.436  16.026  0.4265  0.3125  0.2777
 7223TIP3    H143160   3.405   3.517  15.976 -0.0312  0.4040  0.4352
 7223TIP3    H243161   3.498   3.409  16.026  0.3615  0.0052 -1.1032
 7224TIP3   OH243162   5.057   4.409   3.931 -0.1409  0.2344 -0.4218
 7224TIP3    H143163   5.029   4.460   4.007  0.5299 -0.0009 -0.0061
 7224TIP3    H243164   5.152   4.404   3.939  0.0344  0.9081 -1.7283
 7225TIP3   OH243165   2.485   5.777  14.237 -0.6215 -0.4357 -0.5451
 7225TIP3    H143166   2.577   5.805  14.238 -0.8283  0.5786 -2.6437
 7225TIP3    H243167   2.436   5.857  14.254 -1.1425 -0.8844  0.1070
 7226TIP3   OH243168   4.332   6.600  16.109 -0.5013  0.4782  0.7263
 7226TIP3    H143169   4.277   6.630  16.036  0.2894  0.4643  0.1183
 7226TIP3    H243170   4.413   6.650  16.101  1.3807 -2.5226 -1.0746
 7227TIP3   OH243171   6.294   2.122   3.416 -0.3922  0.1476  0.0920
 7227TIP3    H143172   6.251   2.205   3.398 -1.3095 -0.5219 -0.9677
 7227TIP3    H243173   6.345   2.104   3.337  0.4757  0.0985  0.6500
 7228TIP3   OH243174   6.583   1.370   5.880  0.6810 -0.0503 -0.1352
 7228TIP3    H143175   6.666   1.417   5.865  0.6316  0.0045 -0.2410
 7228TIP3    H243176   6.516   1.437   5.871  0.5779 -0.2325 -0.7704
 7229TIP3   OH243177   3.193   4.810  16.012  0.8943 -0.4209 -0.1907
 7229TIP3    H143178   3.284   4.794  15.986  0.4232 -0.8310 -1.6800
 7229TIP3    H243179   3.141   4.778  15.939 -0.3917  1.4282 -0.1415
 7230TIP3   OH243180   3.430   6.640   4.935  0.5796 -0.3451  0.7373
 7230TIP3    H143181   3.363   6.632   5.003  1.5408 -2.2457  1.5565
 7230TIP3    H243182   3.389   6.693   4.867 -1.1543 -0.0767  1.9151
 7231TIP3   OH243183   3.713   4.949  13.943  0.0011  0.6709 -0.0567
 7231TIP3    H143184   3.697   5.043  13.941  0.5370  0.8084  1.2373
 7231TIP3    H243185   3.699   4.923  14.034  2.5066  0.0070  0.2170
 7232TIP3   OH243186   4.106   1.354   1.043  0.1898 -0.2602  0.0729
 7232TIP3    H143187   4.179   1.293   1.029  0.7396  0.3069  0.3645
 7232TIP3    H243188   4.144   1.423   1.098 -0.4977  0.1898 -0.0087
 7233TIP3   OH243189   4.595   5.486   1.599 -0.3127 -0.0677 -0.4261
 7233TIP3    H143190   4.655   5.560   1.606 -0.3003 -0.0583 -0.6401
 7233TIP3    H243191   4.519   5.512   1.652  0.1468 -0.3542  0.3824
 7234TIP3   OH243192   1.318   5.946   1.032  0.0025  0.1398  0.1294
 7234TIP3    H143193   1.371   5.874   1.068  1.6961  0.9912 -0.5243
 7234TIP3    H243194   1.237   5.904   1.004  0.0729 -1.1292  1.6845
 7235TIP3   OH243195   6.640   4.234  13.778  0.6996  0.7203  0.3106
 7235TIP3    H143196   6.548   4.209  13.782  0.4389  1.7157  0.8843
 7235TIP3    H243197   6.671   4.226  13.869  1.5920 -1.0139 -0.0918
 7236TIP3   OH243198   4.200   2.026   2.890 -0.5926  0.4281 -0.5866
 7236TIP3    H143199   4.234   2.076   2.964 -0.3307  0.7852 -0.9430
 7236TIP3    H243200   4.171   2.093   2.828 -0.2558  0.1323 -1.0624
 7237TIP3   OH243201   5.127   4.967  16.520 -0.1920 -0.0886  0.5369
 7237TIP3    H143202   5.134   4.872  16.524 -0.7048 -0.1345  0.2818
 7237TIP3    H243203   5.218   4.997  16.509 -0.0983 -0.5799 -0.0920
 7238TIP3   OH243204   5.759   1.005   1.875 -0.4870  0.2133  0.5068
 7238TIP3    H143205   5.832   1.059   1.906 -0.0197  1.5048 -2.4351
 7238TIP3    H243206   5.794   0.959   1.799 -2.3750 -0.1085 -0.2301
 7239TIP3   OH243207   6.421   4.763   5.433  0.5187 -0.3190  0.4076
 7239TIP3    H143208   6.402   4.686   5.379 -0.5745  1.2727 -1.6304
 7239TIP3    H243209   6.516   4.763   5.442  0.6350 -1.2591 -0.5899
 7240TIP3   OH243210   3.188   1.238  14.790  0.0814  0.3003  0.6196
 7240TIP3    H143211   3.096   1.261  14.785  0.1559  0.6565  0.8583
 7240TIP3    H243212   3.210   1.208  14.701 -0.2883  0.1009  0.5921
 7241TIP3   OH243213   2.045   1.115  16.365 -0.2091  0.0549 -0.2678
 7241TIP3    H143214   1.953   1.121  16.393 -0.2805 -0.3575 -0.4102
 7241TIP3    H243215   2.048   1.163  16.282 -0.4531 -0.5381 -0.6273
 7242TIP3   OH243216   0.897   6.495   2.451 -0.1454 -0.1148 -0.2320
 7242TIP3    H143217   0.987   6.489   2.482  0.0911 -0.9405 -1.0160
 7242TIP3    H243218   0.905   6.492   2.356 -0.9701  0.3492 -0.3183
 7243TIP3   OH243219   2.059   5.011   2.643  0.2497 -0.1763  0.0388
 7243TIP3    H143220   2.096   5.059   2.569  0.2923 -0.4640 -0.1285
 7243TIP3    H243221   2.133   4.962   2.680 -0.1980 -1.8447 -1.1422
 7244TIP3   OH243222   1.153   4.191  16.876  0.2475 -0.0562  0.2649
 7244TIP3    H143223   1.196   4.186  16.791  2.9395 -0.7810  1.5525
 7244TIP3    H243224   1.208   4.250  16.927 -1.0987  0.0698  1.6479
 7245TIP3   OH243225   4.751   4.926  12.423  0.3495 -0.1676  0.0353
 7245TIP3    H143226   4.831   4.979  12.429  0.4011 -0.2021 -0.3356
 7245TIP3    H243227   4.761   4.877  12.341  0.7581 -1.4891  0.8456
 7246TIP3   OH243228   4.028   5.379   0.981 -0.7866 -0.1949  0.5196
 7246TIP3    H143229   4.043   5.287   1.003  1.2642 -0.0730 -0.1464
 7246TIP3    H243230   3.984   5.376   0.896 -1.1362 -0.5589  0.7087
 7247TIP3   OH243231   0.015   5.449  14.703  0.3286 -0.6062 -0.7673
 7247TIP3    H143232   0.026   5.544  14.714 -0.7753 -0.5821  0.3656
 7247TIP3    H243233   0.090   5.422  14.650  1.3603  0.7073 -0.0470
 7248TIP3   OH243234   4.757   3.220  15.582  0.0805  0.0004  0.2226
 7248TIP3    H143235   4.809   3.300  15.582 -0.9277  0.6774 -0.0509
 7248TIP3    H243236   4.740   3.202  15.675 -0.7871  0.8672  0.2559
 7249TIP3   OH243237   6.397   5.013   1.462  0.3602  0.2978  0.2205
 7249TIP3    H143238   6.390   4.957   1.384  1.4894 -0.1610  0.4345
 7249TIP3    H243239   6.372   5.100   1.430  2.0004  0.3872 -1.0047
 7250TIP3   OH243240   4.766   3.178  12.108 -0.1848 -0.0625 -0.9183
 7250TIP3    H143241   4.713   3.113  12.061 -0.9285  1.1737 -1.8517
 7250TIP3    H243242   4.833   3.126  12.152 -1.7348 -1.6297 -0.2584
 7251TIP3   OH243243   6.768   6.009  11.229 -0.3345  0.9664 -0.3379
 7251TIP3    H143244   6.783   6.055  11.311  0.1777  2.8037 -1.4001
 7251TIP3    H243245   6.809   6.065  11.163  1.7015 -1.7572 -1.5916
 7252TIP3   OH243246   6.658   2.257  12.845  0.3398 -0.7169 -0.8563
 7252TIP3    H143247   6.651   2.212  12.761 -3.3008  1.6994 -2.1249
 7252TIP3    H243248   6.568   2.281  12.866  1.6147  3.0497  1.2206
 7253TIP3   OH243249   1.663   0.168  16.113  0.1983 -0.0453  1.0411
 7253TIP3    H143250   1.608   0.179  16.035  0.0899  0.5470  1.1958
 7253TIP3    H243251   1.751   0.155  16.078  0.3278  1.3037  0.8313
 7254TIP3   OH243252   3.846   4.200   6.061 -0.0151 -0.2625  0.2415
 7254TIP3    H143253   3.919   4.144   6.034  0.1027 -0.5591  1.1346
 7254TIP3    H243254   3.784   4.140   6.102 -1.2233 -0.1654 -1.3747
 7255TIP3   OH243255   5.447   0.520  12.186  0.3160 -0.4112  0.3854
 7255TIP3    H143256   5.533   0.526  12.144 -0.5336 -0.7913 -1.5291
 7255TIP3    H243257   5.465   0.532  12.279  2.5150 -1.1325  0.1153
 7256TIP3   OH243258   0.511   3.093   0.737 -0.0716 -0.5261 -0.6439
 7256TIP3    H143259   0.478   3.004   0.725 -2.2722  0.3704 -1.9000
 7256TIP3    H243260   0.521   3.126   0.647 -0.0739  0.7502 -0.1843
 7257TIP3   OH243261   2.111   2.200   1.568 -0.1931  0.2190  0.1372
 7257TIP3    H143262   2.035   2.142   1.571  0.2224 -0.3095  0.6565
 7257TIP3    H243263   2.080   2.283   1.604 -0.6664  0.1736 -0.1650
 7258TIP3   OH243264   5.848   2.962  13.681 -0.6549 -0.1935  0.0446
 7258TIP3    H143265   5.768   2.912  13.667  0.2450 -1.6450 -0.0604
 7258TIP3    H243266   5.856   3.018  13.603 -1.2296 -0.4990 -0.2356
 7259TIP3   OH243267   3.326   0.922   5.636  0.2438  0.4760  0.9219
 7259TIP3    H143268   3.421   0.910   5.640  0.1213 -2.8591 -1.6172
 7259TIP3    H243269   3.292   0.873   5.710  0.4526  0.4581  1.0065
 7260TIP3   OH243270   0.388   2.773  14.485  0.5518  0.1067 -0.5077
 7260TIP3    H143271   0.353   2.688  14.460  1.8041 -1.4401  2.4985
 7260TIP3    H243272   0.395   2.821  14.403 -1.6689 -2.0695 -2.1236
 7261TIP3   OH243273   1.328   1.528   1.630 -0.1119 -0.0505  0.1981
 7261TIP3    H143274   1.284   1.563   1.552 -2.0849  0.5239  1.5083
 7261TIP3    H243275   1.369   1.604   1.671  1.0000 -0.3679 -0.2917
 7262TIP3   OH243276   3.416   0.324   3.695 -0.0387 -0.2392  0.0097
 7262TIP3    H143277   3.335   0.375   3.702 -0.7737 -1.2889 -0.4995
 7262TIP3    H243278   3.482   0.388   3.669 -0.0345  1.1978  3.1491
 7263TIP3   OH243279   5.971   5.710  14.039 -0.7001  0.0710  0.1144
 7263TIP3    H143280   6.042   5.764  14.004 -0.7482  1.4638  2.0220
 7263TIP3    H243281   5.908   5.703  13.967 -0.2417  1.7960 -0.4915
 7264TIP3   OH243282   0.293   1.769  15.298  0.0462  0.1693 -0.1633
 7264TIP3    H143283   0.385   1.797  15.297 -0.1512  1.0486  1.5323
 7264TIP3    H243284   0.297   1.674  15.307  0.7916  0.1423 -0.7407
 7265TIP3   OH243285   5.549   6.452   0.710 -0.1853  0.2711  0.4362
 7265TIP3    H143286   5.582   6.365   0.687 -0.2986  0.4101 -0.2931
 7265TIP3    H243287   5.541   6.450   0.805  0.3153 -0.3356  0.4752
 7266TIP3   OH243288   1.799   6.502  10.833 -0.3149 -0.2182 -0.4170
 7266TIP3    H143289   1.878   6.554  10.846  0.8714 -1.8864 -0.5591
 7266TIP3    H243290   1.728   6.566  10.827  0.9200  1.2957  0.4238
 7267TIP3   OH243291   0.180   3.875  12.423  0.4221 -0.4732 -0.1039
 7267TIP3    H143292   0.271   3.866  12.454 -0.0332  0.8096  1.7966
 7267TIP3    H243293   0.173   3.966  12.397 -0.5711 -0.3347  0.6258
 7268TIP3   OH243294   6.216   2.242  13.398  0.0670 -0.4678 -1.0680
 7268TIP3    H143295   6.191   2.150  13.413 -0.9128  0.2043  2.2496
 7268TIP3    H243296   6.298   2.252  13.446 -0.7091  0.7542  0.0503
 7269TIP3   OH243297   0.428   1.248  13.578  0.1904 -0.0617  0.2989
 7269TIP3    H143298   0.424   1.275  13.670  0.8690  1.1172  0.0089
 7269TIP3    H243299   0.521   1.258  13.555 -0.2639  1.5870 -1.0438
 7270TIP3   OH243300   5.644   2.676  12.556  0.0513 -0.0323 -0.2312
 7270TIP3    H143301   5.581   2.715  12.495 -0.7316  0.9775  1.1498
 7270TIP3    H243302   5.724   2.728  12.545 -0.3610  0.7110  0.1873
 7271TIP3   OH243303   0.329   2.750   2.150  0.5199  0.6049  0.2596
 7271TIP3    H143304   0.245   2.706   2.167 -0.0996  2.0663  1.1285
 7271TIP3    H243305   0.363   2.771   2.237  0.4715  2.4257 -0.1298
 7272TIP3   OH243306   2.986   0.037   3.530 -0.0979  0.1658 -0.0626
 7272TIP3    H143307   3.017  -0.011   3.607  0.5746 -0.3401 -0.6374
 7272TIP3    H243308   3.043   0.115   3.527  0.5481 -0.3161 -0.6082
 7273TIP3   OH243309   2.547   2.791  14.992  0.5607  0.1350  0.5928
 7273TIP3    H143310   2.610   2.778  14.920  0.1866 -1.5304  0.5156
 7273TIP3    H243311   2.463   2.804  14.949  0.0390 -2.4951  0.6506
 7274TIP3   OH243312   3.900   6.490  14.294 -0.4011  0.2375  0.6135
 7274TIP3    H143313   3.885   6.423  14.361 -0.5165  0.7184  1.0788
 7274TIP3    H243314   3.874   6.572  14.337  0.3058  0.6544  0.2585
 7275TIP3   OH243315   3.098   1.749   2.842  0.1386 -0.0185 -0.0372
 7275TIP3    H143316   3.010   1.746   2.878 -0.0300 -1.1535 -0.4889
 7275TIP3    H243317   3.156   1.737   2.917 -0.1225 -0.1343  0.1446
 7276TIP3   OH243318   3.013   2.863   4.177 -0.2874  0.4069 -0.3826
 7276TIP3    H143319   3.057   2.875   4.261 -1.4899  1.1904  0.1631
 7276TIP3    H243320   3.072   2.905   4.113 -0.0848  1.1528  0.2809
 7277TIP3   OH243321   0.942   1.196  12.836  0.3058  0.3059  0.4616
 7277TIP3    H143322   1.026   1.201  12.881  0.9790 -0.6672 -0.5966
 7277TIP3    H243323   0.880   1.169  12.903  1.3102 -1.2919  0.8245
 7278TIP3   OH243324   5.688   6.324  11.617 -0.2506  0.0893 -0.6345
 7278TIP3    H143325   5.709   6.323  11.524  2.0218 -1.9156 -0.2080
 7278TIP3    H243326   5.593   6.333  11.621 -0.4636 -0.3912 -3.1337
 7279TIP3   OH243327   0.823   3.542   6.081 -0.3395 -0.4924  0.0637
 7279TIP3    H143328   0.860   3.571   5.998  0.4137 -1.9081 -0.1205
 7279TIP3    H243329   0.873   3.590   6.147  1.0456 -1.4527 -0.2285
 7280TIP3   OH243330   0.265   6.398  11.899  0.4415  0.2287 -0.5622
 7280TIP3    H143331   0.321   6.320  11.895  1.2744  0.8226 -0.5491
 7280TIP3    H243332   0.177   6.365  11.877  0.8005 -0.6976 -0.6407
 7281TIP3   OH243333   1.517   0.294  11.780  0.4800  0.0227 -0.2067
 7281TIP3    H143334   1.570   0.227  11.736  0.0975  0.6518 -1.6926
 7281TIP3    H243335   1.428   0.279  11.746  0.1512  0.4634  0.4544
 7282TIP3   OH243336   0.097   0.963  11.919  0.3467 -0.0923  0.5883
 7282TIP3    H143337   0.168   0.925  11.971  2.1380  0.6392 -1.1619
 7282TIP3    H243338   0.084   1.051  11.956  0.2080 -0.3122  1.0566
 7283TIP3   OH243339   4.453   2.869  10.514  0.1339 -0.0159  0.0453
 7283TIP3    H143340   4.407   2.794  10.551 -0.0162  0.1968  0.2992
 7283TIP3    H243341   4.454   2.853  10.419  0.6422 -0.6302  0.1546
 7284TIP3   OH243342   6.647   0.576   2.167 -0.3364  0.2122 -0.4392
 7284TIP3    H143343   6.620   0.528   2.089 -1.2548 -1.5139  0.8753
 7284TIP3    H243344   6.742   0.567   2.170 -0.3382 -0.0546 -1.1426
 7285TIP3   OH243345   2.925   2.048  11.577  0.1548 -0.0217  0.6513
 7285TIP3    H143346   3.010   2.048  11.532 -0.6396  0.7790 -0.9301
 7285TIP3    H243347   2.913   2.138  11.606 -1.4689  0.6821 -1.8773
 7286TIP3   OH243348   6.704   5.257  14.566  0.0057 -0.0808 -0.1041
 7286TIP3    H143349   6.665   5.213  14.642 -2.1251  2.6963  0.5602
 7286TIP3    H243350   6.708   5.349  14.591  1.0096  0.6642 -2.7029
 7287TIP3   OH243351   4.204   6.373   3.850 -0.3063 -0.4696  0.8196
 7287TIP3    H143352   4.184   6.380   3.757  1.7167  1.4538  0.4572
 7287TIP3    H243353   4.243   6.286   3.859  0.4332 -0.2831 -0.3439
 7288TIP3   OH243354   6.603   0.759   2.412  0.5091  1.3683  0.1272
 7288TIP3    H143355   6.618   0.749   2.506 -0.3916  1.7563  0.3210
 7288TIP3    H243356   6.566   0.676   2.384  0.5299  1.3444  0.1708
 7289TIP3   OH243357   4.154   5.995   3.152  0.4415  0.4159  0.4164
 7289TIP3    H143358   4.084   6.054   3.183 -0.3426 -0.3442  0.1262
 7289TIP3    H243359   4.132   5.980   3.060  0.3395 -0.7419  0.6250
 7290TIP3   OH243360   6.211   2.182  12.107 -0.1802 -0.1145  0.3122
 7290TIP3    H143361   6.298   2.196  12.069 -0.9201 -0.3565 -1.6227
 7290TIP3    H243362   6.173   2.270  12.113 -1.1133 -0.2418 -2.3612
 7291TIP3   OH243363   2.172   4.412  16.071 -0.1928  0.2437  0.3809
 7291TIP3    H143364   2.103   4.431  16.135  1.5468  1.2023  2.0892
 7291TIP3    H243365   2.170   4.317  16.060 -2.3173  0.3226 -0.2884
 7292TIP3   OH243366   2.460   1.887   2.013 -0.3069 -0.0723  0.1598
 7292TIP3    H143367   2.501   1.816   2.063  1.6602  0.5254 -0.4860
 7292TIP3    H243368   2.530   1.917   1.954 -1.7278  1.0267 -1.0342
 7293TIP3   OH243369   0.467   1.059   0.822 -0.2126  0.1157  0.4631
 7293TIP3    H143370   0.474   1.118   0.898 -0.7374  0.2867  0.3840
 7293TIP3    H243371   0.542   1.001   0.830 -0.3052  0.0768  1.1663
 7294TIP3   OH243372   5.823   3.179  13.475  0.3054 -0.1486 -0.2275
 7294TIP3    H143373   5.858   3.227  13.400  0.8776 -0.0539  0.0900
 7294TIP3    H243374   5.750   3.233  13.505  0.2081 -0.0778 -0.5853
 7295TIP3   OH243375   4.307   6.027   4.514  0.1444 -0.4738  0.5018
 7295TIP3    H143376   4.215   6.049   4.501  1.0428  2.5416 -1.9060
 7295TIP3    H243377   4.329   6.067   4.598 -0.7617 -1.5453  1.2873
 7296TIP3   OH243378   4.634   2.898   6.192 -0.1062  0.2840 -0.9712
 7296TIP3    H143379   4.585   2.951   6.130  1.5746  0.8431 -1.9052
 7296TIP3    H243380   4.710   2.952   6.214 -0.2615 -0.2311  0.9975
 7297TIP3   OH243381   2.052   5.413  12.594 -0.0913 -0.9421 -0.0484
 7297TIP3    H143382   2.129   5.469  12.587 -0.8099  0.0407 -0.3823
 7297TIP3    H243383   2.087   5.325  12.611  1.0673 -0.4398  0.2454
 7298TIP3   OH243384   2.922   6.300   4.690 -0.1932  0.0855 -0.0171
 7298TIP3    H143385   2.853   6.367   4.692  0.2502  0.5543  1.6269
 7298TIP3    H243386   3.000   6.346   4.658  0.4951  0.8385  2.4927
 7299TIP3   OH243387   2.644   1.620  16.424  0.1019 -0.0061  0.7499
 7299TIP3    H143388   2.703   1.668  16.482 -0.6125  1.2653  0.4663
 7299TIP3    H243389   2.565   1.673  16.420 -1.4693 -2.1152  1.8447
 7300TIP3   OH243390   3.681   3.817   0.546 -1.0792  0.1332  0.4183
 7300TIP3    H143391   3.698   3.856   0.460  2.1845  0.4169  1.0587
 7300TIP3    H243392   3.586   3.813   0.552 -1.5590  3.9232 -1.5355
 7301TIP3   OH243393   0.163   3.321   3.498  0.7104  0.8503 -0.1616
 7301TIP3    H143394   0.212   3.338   3.418  0.2853 -0.7532 -0.8046
 7301TIP3    H243395   0.076   3.295   3.468  0.2325  1.2200  0.8670
 7302TIP3   OH243396   2.809   6.334  14.230  0.2254 -0.0867  0.0553
 7302TIP3    H143397   2.731   6.331  14.285  1.3417 -1.4063  1.6878
 7302TIP3    H243398   2.878   6.364  14.288  1.3868 -1.1667 -0.7082
 7303TIP3   OH243399   1.020   2.162   1.530 -0.2052 -0.4586 -0.0346
 7303TIP3    H143400   0.981   2.136   1.447  1.2166 -0.8993 -0.6001
 7303TIP3    H243401   1.028   2.257   1.525 -0.8669 -0.3984 -0.0479
 7304TIP3   OH243402   2.555   5.179   3.386 -0.1248  0.5612 -0.6156
 7304TIP3    H143403   2.630   5.204   3.332  0.2515  1.2405  0.2127
 7304TIP3    H243404   2.526   5.096   3.348  2.8579 -1.2957  0.7881
 7305TIP3   OH243405   4.401   4.101  14.475 -0.0102  0.1020 -0.5115
 7305TIP3    H143406   4.441   4.112  14.561 -1.2664  1.3420 -0.0437
 7305TIP3    H243407   4.307   4.099  14.492 -0.5789  3.8601 -2.0371
 7306TIP3   OH243408   4.473   4.644   0.986 -0.7039 -0.3879  0.1456
 7306TIP3    H143409   4.539   4.589   0.943  0.6446  0.8312  0.5987
 7306TIP3    H243410   4.411   4.665   0.916  0.1891 -0.3443 -0.6595
 7307TIP3   OH243411   3.656   0.585  14.195 -0.2390 -0.5834 -0.0658
 7307TIP3    H143412   3.665   0.537  14.277  1.0965  1.5426  1.1279
 7307TIP3    H243413   3.744   0.586  14.158 -0.2602  0.8126 -0.1123
 7308TIP3   OH243414   4.776   3.763   2.980  0.4033 -0.2178  0.2300
 7308TIP3    H143415   4.803   3.717   3.059  0.7921  1.6991  1.2590
 7308TIP3    H243416   4.698   3.812   3.005  1.6073  1.9361  0.0454
 7309TIP3   OH243417   0.931   0.922  14.941 -0.1462 -0.2263  0.5448
 7309TIP3    H143418   1.007   0.980  14.942 -0.6036  0.3993  0.1477
 7309TIP3    H243419   0.864   0.970  14.990 -0.2340 -0.8565  1.0610
 7310TIP3   OH243420   1.133   1.109   1.717  0.2290  0.5639  0.2939
 7310TIP3    H143421   1.118   1.020   1.749  1.2958  0.2741  0.0344
 7310TIP3    H243422   1.056   1.158   1.745 -0.1917 -0.3492  0.7817
 7311TIP3   OH243423   2.678   1.869  13.921 -0.6486  0.4799 -0.2668
 7311TIP3    H143424   2.753   1.864  13.979 -0.6407 -0.7688 -0.3567
 7311TIP3    H243425   2.634   1.951  13.945 -1.1543 -0.4080  2.1213
 7312TIP3   OH243426   5.870   5.474  14.272  0.2463  0.0840  0.2099
 7312TIP3    H143427   5.855   5.392  14.226  0.7507 -0.5213  1.0930
 7312TIP3    H243428   5.787   5.523  14.263 -0.9108 -1.5038  1.6436
 7313TIP3   OH243429   4.770   4.258   4.405 -0.6545  0.2694 -0.2178
 7313TIP3    H143430   4.775   4.307   4.487 -0.4975  1.8702 -1.1491
 7313TIP3    H243431   4.693   4.293   4.361 -1.0649 -0.9778 -0.5151
 7314TIP3   OH243432   4.425   4.908   4.447 -0.0518 -0.1178 -0.3626
 7314TIP3    H143433   4.490   4.903   4.377  0.6346 -1.5756  0.3288
 7314TIP3    H243434   4.454   4.980   4.503  0.7042 -0.4424 -0.3295
 7315TIP3   OH243435   0.351   6.193   0.088  0.5895  0.2069 -0.3955
 7315TIP3    H143436   0.384   6.104   0.103 -1.1525 -0.4335 -0.0556
 7315TIP3    H243437   0.388   6.218   0.003  3.0898  0.1775  0.6087
 7316TIP3   OH243438   3.033   0.018   4.150  0.8102  0.3330  0.2496
 7316TIP3    H143439   3.085  -0.048   4.106  0.5846  1.4899 -1.8637
 7316TIP3    H243440   2.989  -0.029   4.221  0.0321 -1.9616 -1.6443
 7317TIP3   OH243441   4.754   5.591  11.852 -0.1338  0.1129 -0.6188
 7317TIP3    H143442   4.663   5.580  11.881  0.1581 -1.1825 -0.1290
 7317TIP3    H243443   4.776   5.681  11.877 -0.8974  0.0509  0.3438
 7318TIP3   OH243444   4.936   1.046   2.993 -0.4164  0.0158  0.6503
 7318TIP3    H143445   4.842   1.062   2.988 -0.6231 -1.2242  0.2996
 7318TIP3    H243446   4.976   1.130   2.969 -1.4229  0.5009  0.6259
 7319TIP3   OH243447   5.095   2.384   5.835  0.1314  0.6519 -0.3326
 7319TIP3    H143448   5.135   2.308   5.878  0.0376  0.8933  0.1832
 7319TIP3    H243449   5.141   2.459   5.872  1.9598  0.7809 -2.6095
 7320TIP3   OH243450   5.450   3.985   0.354  0.4366  0.0714  0.3514
 7320TIP3    H143451   5.449   3.956   0.263 -1.0527  1.1762 -0.0138
 7320TIP3    H243452   5.406   3.915   0.403  0.5826 -0.1835  0.1168
 7321TIP3   OH243453   4.921   2.665  11.763  0.1575 -0.3905  0.4964
 7321TIP3    H143454   4.885   2.728  11.825 -0.2696 -2.1582  2.1556
 7321TIP3    H243455   4.877   2.583  11.784  0.7103 -1.2779 -1.5567
 7322TIP3   OH243456   5.322   5.090   4.645 -0.2734 -0.0307 -0.5886
 7322TIP3    H143457   5.293   5.009   4.686  0.0177  0.1208 -0.0792
 7322TIP3    H243458   5.279   5.159   4.696  1.3381  0.2217  0.4910
 7323TIP3   OH243459   0.421   0.659  14.035 -0.4941 -0.2527 -0.5827
 7323TIP3    H143460   0.417   0.578  14.086  0.2706 -0.5219 -0.9296
 7323TIP3    H243461   0.329   0.681  14.017 -0.6997 -1.7730 -1.6078
 7324TIP3   OH243462   4.563   0.692   4.916  0.0305 -0.2469 -0.4076
 7324TIP3    H143463   4.621   0.729   4.982  1.3764 -0.0476 -1.6537
 7324TIP3    H243464   4.551   0.600   4.943  1.2804 -0.4080 -0.3693
 7325TIP3   OH243465   4.471   4.227   5.831  0.5745 -0.3386  0.2684
 7325TIP3    H143466   4.532   4.270   5.891  0.5146 -1.4053  1.1179
 7325TIP3    H243467   4.525   4.196   5.759  0.6492  0.9455 -0.2591
 7326TIP3   OH243468   1.470   5.572   1.634  0.1219  0.0125 -0.5190
 7326TIP3    H143469   1.558   5.534   1.644  0.3335  0.4877 -0.5448
 7326TIP3    H243470   1.420   5.506   1.587  0.9562  0.4296 -2.0618
 7327TIP3   OH243471   1.594   0.264   4.721 -0.2532  0.1011  0.4281
 7327TIP3    H143472   1.513   0.217   4.739  0.3978 -1.0174  0.5632
 7327TIP3    H243473   1.634   0.215   4.649 -0.7338  1.9460 -1.1782
 7328TIP3   OH243474   6.063   1.299   5.610 -0.0042  0.1334 -0.5620
 7328TIP3    H143475   6.082   1.351   5.532 -1.8482 -0.2198 -1.3018
 7328TIP3    H243476   6.136   1.237   5.615  1.1602  1.4443 -0.8410
 7329TIP3   OH243477   4.501   0.429  16.599  0.0865  0.8423 -0.0841
 7329TIP3    H143478   4.466   0.411  16.687 -1.4284  0.6966 -0.6881
 7329TIP3    H243479   4.492   0.346  16.552  2.2207  0.5056  0.0099
 7330TIP3   OH243480   5.724   4.414  16.957  0.0312  0.5427 -0.1749
 7330TIP3    H143481   5.645   4.443  16.911 -0.1763 -2.0786 -1.6386
 7330TIP3    H243482   5.694   4.350  17.020  0.7366  1.5940  1.2841
 7331TIP3   OH243483   4.017   3.351  13.483 -0.8582 -0.3951  0.5028
 7331TIP3    H143484   4.056   3.342  13.396 -0.5148 -0.8069  0.6956
 7331TIP3    H243485   4.053   3.277  13.533 -2.1219 -0.9634  0.5959
 7332TIP3   OH243486   6.396   4.738  12.979 -0.1263  0.4519 -0.3132
 7332TIP3    H143487   6.443   4.820  12.997  1.4198  0.0226 -2.0534
 7332TIP3    H243488   6.376   4.702  13.066 -1.4991  2.9824  0.4958
 7333TIP3   OH243489   2.367   5.521   0.173 -0.1283 -0.2271 -0.3093
 7333TIP3    H143490   2.382   5.614   0.189  1.4765 -0.7363  1.6902
 7333TIP3    H243491   2.445   5.493   0.125  0.3367 -0.8590  0.7702
 7334TIP3   OH243492   1.905   5.699  10.884  0.2267 -0.0743  0.1306
 7334TIP3    H143493   1.982   5.680  10.937 -0.0632  0.1435  0.6313
 7334TIP3    H243494   1.936   5.689  10.793  0.7539 -0.3167  0.3321
 7335TIP3   OH243495   5.052   1.579  14.907 -0.2718  0.1586 -0.1726
 7335TIP3    H143496   5.021   1.668  14.924 -0.0925  0.1762  0.0666
 7335TIP3    H243497   5.120   1.564  14.973  1.7952  0.9189 -1.9889
 7336TIP3   OH243498   5.799   4.441   0.086  0.5621  0.1495 -0.3657
 7336TIP3    H143499   5.818   4.366   0.029  1.0412  0.1484 -0.2096
 7336TIP3    H243500   5.858   4.510   0.056  2.4673 -0.5382  1.5243
 7337TIP3   OH243501   5.563   6.058   1.843  0.4226  0.1921  0.9180
 7337TIP3    H143502   5.625   6.115   1.888 -0.8943  0.1818  2.8491
 7337TIP3    H243503   5.612   5.977   1.827  1.0555  0.3484  1.9953
 7338TIP3   OH243504   0.347   1.852  16.354 -0.2918 -0.5540 -0.2941
 7338TIP3    H143505   0.440   1.855  16.331  0.2326 -0.2285  1.6837
 7338TIP3    H243506   0.323   1.760  16.347  0.6865 -0.9253  0.8908
 7339TIP3   OH243507   2.314   6.784  14.114 -0.1893  0.4953  0.0344
 7339TIP3    H143508   2.259   6.752  14.043 -1.5416  2.3992  0.1562
 7339TIP3    H243509   2.286   6.734  14.190  0.4311 -0.7028 -0.4910
 7340TIP3   OH243510   2.893   5.427  16.034 -0.4654 -0.1940  0.3927
 7340TIP3    H143511   2.822   5.367  16.008 -0.1330  0.5102 -2.6116
 7340TIP3    H243512   2.925   5.463  15.951  4.1547 -1.2287  1.4546
 7341TIP3   OH243513   6.318   2.434   2.688 -0.2566 -0.5772 -0.2818
 7341TIP3    H143514   6.268   2.354   2.670 -0.4881 -0.7295  0.9547
 7341TIP3    H243515   6.320   2.480   2.604 -0.7508 -1.5240 -0.8380
 7342TIP3   OH243516   3.122   4.944  13.239 -0.6537  0.1281 -0.5543
 7342TIP3    H143517   3.055   4.991  13.289 -4.2468 -2.2564 -2.5951
 7342TIP3    H243518   3.125   4.857  13.278  1.6862  0.2864 -0.2700
 7343TIP3   OH243519   2.421   2.072   4.426  0.2638 -0.1176  0.7154
 7343TIP3    H143520   2.407   1.978   4.433 -0.3091  0.0216  1.5578
 7343TIP3    H243521   2.422   2.090   4.332  3.0840 -1.3534  0.4094
 7344TIP3   OH243522   1.638   6.672   1.241 -0.8112  0.2970  0.2033
 7344TIP3    H143523   1.713   6.731   1.232  1.3545 -2.2133  0.4730
 7344TIP3    H243524   1.561   6.729   1.237  1.0517  2.9015 -1.1541
 7345TIP3   OH243525   0.948   2.424   1.408  0.5795 -0.2280  0.0607
 7345TIP3    H143526   0.960   2.505   1.458 -2.2308  0.2100  0.2233
 7345TIP3    H243527   0.999   2.437   1.328  0.9496  1.3084  0.5135
 7346TIP3   OH243528   1.165   1.860  15.623 -0.2288  0.2404 -0.4490
 7346TIP3    H143529   1.190   1.849  15.531 -1.4519 -1.1414 -0.6431
 7346TIP3    H243530   1.081   1.905  15.620 -0.4988 -0.2347 -0.0242
 7347TIP3   OH243531   3.441   6.020   3.890  0.3104 -0.0765 -0.4500
 7347TIP3    H143532   3.418   6.085   3.823 -0.7815  0.8982  0.8209
 7347TIP3    H243533   3.429   5.936   3.847  2.2720  0.5018 -2.3122
 7348TIP3   OH243534   4.130   6.729  14.833 -0.0199  0.4981  0.1241
 7348TIP3    H143535   4.108   6.809  14.786 -0.9381  0.2326  0.0869
 7348TIP3    H243536   4.207   6.695  14.788 -0.6330  0.4699 -0.9256
 7349TIP3   OH243537   0.877   4.788  14.389  0.0422 -0.7011 -0.1744
 7349TIP3    H143538   0.815   4.807  14.318  0.8552 -0.5352 -0.8547
 7349TIP3    H243539   0.952   4.845  14.371 -0.5664  0.8910  2.0099
 7350TIP3   OH243540   0.747   3.033   5.567 -0.5553 -0.3260  0.4784
 7350TIP3    H143541   0.785   3.106   5.616  0.5752  1.8941 -3.3224
 7350TIP3    H243542   0.653   3.051   5.567 -0.6291 -0.5897  2.0523
 7351TIP3   OH243543   6.229   0.925  14.679  0.4336 -0.2714  0.4264
 7351TIP3    H143544   6.249   0.833  14.698  0.7059 -0.0864  1.0378
 7351TIP3    H243545   6.196   0.960  14.762  1.3871  0.4729  0.5055
 7352TIP3   OH243546   0.238   4.493   3.473 -0.1327  0.0336  0.4992
 7352TIP3    H143547   0.286   4.441   3.538 -0.2679 -0.0566  0.5259
 7352TIP3    H243548   0.148   4.460   3.477 -0.3036  0.5293  0.7804
 7353TIP3   OH243549   6.626   1.690   4.581 -0.2767 -0.2987 -0.0767
 7353TIP3    H143550   6.626   1.750   4.506 -1.5301  0.1835  0.2846
 7353TIP3    H243551   6.561   1.623   4.558 -0.0384 -0.6344  0.2125
 7354TIP3   OH243552   6.196   2.399  13.166 -0.1346 -0.0470  0.2505
 7354TIP3    H143553   6.187   2.325  13.226  0.2118 -1.2465 -1.1248
 7354TIP3    H243554   6.279   2.439  13.190  0.2316 -0.8042  0.2856
 7355TIP3   OH243555   4.384   0.454  17.113 -0.4899  0.3182  0.0300
 7355TIP3    H143556   4.327   0.471  17.188 -0.1020 -0.5362  0.5441
 7355TIP3    H243557   4.456   0.516  17.122  1.5299 -2.1073  2.5393
 7356TIP3   OH243558   3.859   6.415   3.492 -0.4942 -0.1694  0.1984
 7356TIP3    H143559   3.893   6.490   3.540  0.7187 -1.2190  1.0518
 7356TIP3    H243560   3.794   6.452   3.433 -0.0824  1.5162  0.7406
 7357TIP3   OH243561   5.782   4.491   3.935  0.0680 -0.4304 -0.3015
 7357TIP3    H143562   5.875   4.469   3.932  0.1939 -0.2137  1.2652
 7357TIP3    H243563   5.769   4.548   3.860  1.6565  1.1425  0.5239
 7358TIP3   OH243564   6.183   1.543  12.583  0.1174  0.5677 -0.3261
 7358TIP3    H143565   6.149   1.574  12.499  0.1953  0.0518 -0.5559
 7358TIP3    H243566   6.271   1.511  12.563 -0.2537 -0.5387 -0.2739
 7359TIP3   OH243567   2.241   6.745   4.078 -0.0848 -0.0200 -0.0325
 7359TIP3    H143568   2.306   6.676   4.064  0.2436 -0.1021  1.7378
 7359TIP3    H243569   2.281   6.824   4.041  0.2709 -0.4076 -0.4915
 7360TIP3   OH243570   3.426   0.802  16.679 -0.3333 -0.3014  0.2391
 7360TIP3    H143571   3.411   0.896  16.685  1.0904 -0.0528  0.1786
 7360TIP3    H243572   3.434   0.773  16.770  2.2050  0.1893  0.2466
 7361TIP3   OH243573   4.011   3.761   2.480  0.1644 -0.6432  0.1945
 7361TIP3    H143574   4.015   3.847   2.438 -1.0055 -0.7787 -0.2394
 7361TIP3    H243575   3.982   3.701   2.411 -0.4437 -1.1166  0.8412
 7362TIP3   OH243576   2.951   3.370   4.819 -0.2313  0.3938 -0.3100
 7362TIP3    H143577   3.003   3.449   4.836 -1.7101  1.5659 -1.0727
 7362TIP3    H243578   2.928   3.375   4.727 -0.4830 -0.8738 -0.3416
 7363TIP3   OH243579   0.558   0.263   1.327  0.0358  0.5293  0.5084
 7363TIP3    H143580   0.464   0.268   1.347 -0.2039  1.7430 -0.7780
 7363TIP3    H243581   0.577   0.169   1.326 -0.6241  0.2918  3.0724
 7364TIP3   OH243582   0.783   1.666   2.520 -0.2138 -0.1668 -0.3835
 7364TIP3    H143583   0.845   1.661   2.592 -0.2471 -0.9712 -0.4033
 7364TIP3    H243584   0.745   1.754   2.526 -0.6845 -0.4476  0.9602
 7365TIP3   OH243585   0.724   5.031  14.477 -0.1210 -0.2259  0.6795
 7365TIP3    H143586   0.812   5.069  14.480 -0.1815 -0.1536  1.9163
 7365TIP3    H243587   0.738   4.936  14.474  0.0099 -0.2772  2.2577
 7366TIP3   OH243588   3.202   5.977  13.751 -0.0266  0.0603 -0.1712
 7366TIP3    H143589   3.232   6.064  13.778 -0.3536  0.4697 -1.1002
 7366TIP3    H243590   3.144   5.949  13.822 -1.2452  1.3120 -0.6236
 7367TIP3   OH243591   0.491   4.319  10.850  0.2539  0.2533 -0.0815
 7367TIP3    H143592   0.449   4.280  10.773 -2.5041  0.3938  1.2587
 7367TIP3    H243593   0.528   4.402  10.818 -0.5222  0.1380 -1.3269
 7368TIP3   OH243594   4.421   4.438   0.638  0.0956 -0.2634  0.2303
 7368TIP3    H143595   4.387   4.392   0.714 -0.9321 -2.5429 -1.4997
 7368TIP3    H243596   4.344   4.478   0.598  0.2638 -0.9247 -0.7834
 7369TIP3   OH243597   2.043   1.013  12.957 -0.3019  0.0462 -0.3283
 7369TIP3    H143598   1.981   0.944  12.931 -1.2261  0.9257 -0.4952
 7369TIP3    H243599   2.043   1.009  13.053 -0.5837  0.0095 -0.3287
 7370TIP3   OH243600   5.113   6.338   2.578 -0.1880 -0.4410 -0.3033
 7370TIP3    H143601   5.104   6.413   2.520 -0.6445  0.9846  1.5032
 7370TIP3    H243602   5.138   6.266   2.521 -1.6567  0.6064 -2.4146
 7371TIP3   OH243603   1.105   5.120  15.998 -0.4682  0.1206 -0.7407
 7371TIP3    H143604   1.082   5.077  16.081  0.0028  1.9685  0.4128
 7371TIP3    H243605   1.197   5.096  15.984  0.8901  3.2057  1.6729
 7372TIP3   OH243606   6.191   5.670   2.118  0.4594  0.7748 -0.0289
 7372TIP3    H143607   6.145   5.646   2.037 -0.1989  0.2790  0.4779
 7372TIP3    H243608   6.253   5.738   2.091 -1.6922  2.7102 -0.4861
 7373TIP3   OH243609   5.145   6.028  13.092 -0.1581  0.2540 -0.4460
 7373TIP3    H143610   5.127   6.114  13.131 -0.8498  0.1232 -0.4750
 7373TIP3    H243611   5.079   5.970  13.129  0.8054 -0.4616  0.2070
 7374TIP3   OH243612   4.763   0.991   4.372 -0.3210  0.4001  0.0112
 7374TIP3    H143613   4.844   1.018   4.415 -1.4248  4.0474  0.1014
 7374TIP3    H243614   4.701   0.977   4.444 -0.6625  1.0053 -0.1586
 7375TIP3   OH243615   0.731   4.404   1.724 -0.0850 -0.7133 -0.1049
 7375TIP3    H143616   0.666   4.400   1.794  1.4231 -0.4696  1.3900
 7375TIP3    H243617   0.708   4.481   1.673 -2.5252 -2.1163 -1.3038
 7376TIP3   OH243618   6.557   3.873   0.338 -0.7054 -0.1794 -0.5932
 7376TIP3    H143619   6.540   3.954   0.289 -0.0943 -0.6937 -1.6875
 7376TIP3    H243620   6.505   3.807   0.294 -1.0369 -0.4356  0.1709
 7377TIP3   OH243621   1.682   3.081  13.703 -0.0739 -0.2937  0.1052
 7377TIP3    H143622   1.670   3.175  13.715 -3.8849 -0.5447 -0.6042
 7377TIP3    H243623   1.738   3.055  13.777 -2.0740  1.9766  2.6321
 7378TIP3   OH243624   6.070   5.618  16.955 -0.4375  0.0318  0.1929
 7378TIP3    H143625   6.119   5.602  17.036 -0.4352  1.8042  0.5803
 7378TIP3    H243626   6.097   5.547  16.896  0.5797 -0.5319  1.2900
 7379TIP3   OH243627   2.230   4.501   5.655  0.4115 -0.2531  0.6988
 7379TIP3    H143628   2.306   4.460   5.696 -0.3846 -0.3604  2.1173
 7379TIP3    H243629   2.224   4.587   5.696  0.9364  0.5960 -0.8829
 7380TIP3   OH243630   6.492   5.703  15.925  0.5283  0.3965 -0.3545
 7380TIP3    H143631   6.581   5.734  15.943  0.5162  0.7136 -0.8263
 7380TIP3    H243632   6.436   5.756  15.981  0.5850  0.6104 -0.5010
 7381TIP3   OH243633   2.880   3.881  15.028 -0.0439  0.0680 -0.1602
 7381TIP3    H143634   2.894   3.967  14.988  0.7934 -0.0636 -0.1770
 7381TIP3    H243635   2.880   3.820  14.954  0.1664 -0.0327 -0.0771
 7382TIP3   OH243636   4.873   3.695   3.309  0.4375  0.5791 -0.4640
 7382TIP3    H143637   4.828   3.627   3.259 -0.3397  0.4472  0.3776
 7382TIP3    H243638   4.931   3.647   3.368  1.3198  0.7314 -1.1959
 7383TIP3   OH243639   1.285   6.584   2.198  0.6201  0.2315  0.0650
 7383TIP3    H143640   1.284   6.498   2.157 -0.8323  1.4619 -2.7033
 7383TIP3    H243641   1.338   6.572   2.277  1.0947 -2.9818 -0.6137
 7384TIP3   OH243642   4.611   2.107   4.625  0.0294 -0.2679  0.0129
 7384TIP3    H143643   4.535   2.083   4.572  1.2991  0.1470 -2.0938
 7384TIP3    H243644   4.632   2.027   4.674 -1.9329 -0.2825  0.9251
 7385TIP3   OH243645   1.940   4.243   0.381  0.3101 -0.1029 -0.3383
 7385TIP3    H143646   1.970   4.333   0.376 -1.1352  0.4811  0.8191
 7385TIP3    H243647   1.972   4.212   0.466 -1.8348  0.3884  0.7144
 7386TIP3   OH243648   4.317   3.108   5.662 -0.2683  0.3140  0.4061
 7386TIP3    H143649   4.225   3.121   5.688 -0.5273 -0.4455 -0.0991
 7386TIP3    H243650   4.311   3.075   5.572  0.5049  0.1569  0.4132
 7387TIP3   OH243651   1.099   3.628   2.168 -0.0748  0.1272  0.9199
 7387TIP3    H143652   1.120   3.681   2.091  0.9916  0.7974  1.6414
 7387TIP3    H243653   1.012   3.592   2.150  0.3663 -0.1485 -0.8105
 7388TIP3   OH243654   5.863   1.344  13.746 -0.3563  0.5061 -0.6812
 7388TIP3    H143655   5.891   1.278  13.683 -1.9839  0.8457 -1.8342
 7388TIP3    H243656   5.893   1.427  13.708 -1.0673  0.6828 -0.8781
 7389TIP3   OH243657   2.314   2.515  13.027  0.2831 -0.4911  0.0848
 7389TIP3    H143658   2.403   2.481  13.032  0.0789 -1.2473 -1.0173
 7389TIP3    H243659   2.325   2.610  13.024  1.0316 -0.5620  0.3166
 7390TIP3   OH243660   2.616   3.372  11.790  0.2917  0.1257 -0.1148
 7390TIP3    H143661   2.692   3.388  11.735  0.7696 -1.3055  0.0842
 7390TIP3    H243662   2.647   3.311  11.857 -1.1435 -0.9636 -0.3876
 7391TIP3   OH243663   5.240   4.158  15.748  0.5878  0.0703 -0.2801
 7391TIP3    H143664   5.227   4.208  15.829  2.3207  0.8051 -0.4021
 7391TIP3    H243665   5.317   4.105  15.765  0.1717 -0.7839 -1.0019
 7392TIP3   OH243666   2.708   2.118  16.762  0.2263  0.5001 -0.1844
 7392TIP3    H143667   2.743   2.042  16.717 -0.0179  1.1597 -1.5549
 7392TIP3    H243668   2.625   2.089  16.799  0.6404 -0.1725  0.2370
 7393TIP3   OH243669   5.554   4.619  16.886  0.2468  0.9472  0.5912
 7393TIP3    H143670   5.646   4.643  16.897  0.2713  0.7323  0.8532
 7393TIP3    H243671   5.512   4.700  16.855  0.9885  0.4105 -2.0392
 7394TIP3   OH243672   4.154   6.233  16.472 -0.6394  0.4814 -0.2386
 7394TIP3    H143673   4.147   6.145  16.509  1.2265  0.4637  0.1756
 7394TIP3    H243674   4.183   6.219  16.382  1.2461  0.6547  0.2921
 7395TIP3   OH243675   0.974   1.531   5.645 -0.7362 -0.5080 -0.6724
 7395TIP3    H143676   1.017   1.445   5.644  0.2151 -0.0640  0.4961
 7395TIP3    H243677   1.042   1.592   5.618 -0.6254  0.1951  1.1094
 7396TIP3   OH243678   4.255   4.871  13.282  0.2295  0.0361 -0.1933
 7396TIP3    H143679   4.219   4.908  13.202  1.9193  1.4114 -0.3696
 7396TIP3    H243680   4.212   4.786  13.290 -0.9219  0.4042 -1.8520
 7397TIP3   OH243681   0.940   3.898   4.175  0.2585 -0.5650 -0.2112
 7397TIP3    H143682   0.896   3.824   4.217  1.2495 -1.0805 -0.0582
 7397TIP3    H243683   0.997   3.858   4.109  0.0828  0.1300 -0.8015
 7398TIP3   OH243684   0.605   2.284  14.494  0.7033  0.4369  0.4076
 7398TIP3    H143685   0.622   2.259  14.585  0.9897 -0.0268  0.2297
 7398TIP3    H243686   0.680   2.249  14.445 -1.1151 -2.4827 -0.5405
 7399TIP3   OH243687   1.330   2.222  12.552 -0.0178 -0.0517  0.1013
 7399TIP3    H143688   1.239   2.208  12.580  0.1906 -1.4649  0.1359
 7399TIP3    H243689   1.334   2.316  12.533 -1.8026 -0.1482 -1.0393
 7400TIP3   OH243690   6.439   3.629   2.547 -0.4492 -0.8540 -0.0832
 7400TIP3    H143691   6.505   3.586   2.492  2.0971  0.5852  1.6564
 7400TIP3    H243692   6.358   3.624   2.495  0.5258 -4.2161 -1.6006
 7401TIP3   OH243693   6.618   2.368   1.940 -0.2257  0.1495 -0.6436
 7401TIP3    H143694   6.695   2.389   1.887 -0.1201 -0.6046 -0.7918
 7401TIP3    H243695   6.592   2.452   1.978 -0.2405  0.6790 -1.7976
 7402TIP3   OH243696   2.577   5.453  12.045 -0.5990 -0.1253 -0.0460
 7402TIP3    H143697   2.549   5.371  12.003 -0.9988  0.2314 -0.4979
 7402TIP3    H243698   2.672   5.454  12.036 -0.5915 -0.5576 -0.0114
 7403TIP3   OH243699   0.036   0.477   1.573 -0.4139  0.4139 -0.2547
 7403TIP3    H143700   0.088   0.556   1.561  1.9525 -0.9896 -0.0227
 7403TIP3    H243701  -0.017   0.470   1.494  1.4940  0.7519 -1.6372
 7404TIP3   OH243702   6.145   0.804   4.596  0.7253 -0.1271  0.0357
 7404TIP3    H143703   6.098   0.850   4.526  1.4728  1.0140  0.2576
 7404TIP3    H243704   6.223   0.769   4.554  0.8839  0.0582  0.1755
 7405TIP3   OH243705   2.619   1.193  15.745 -0.7190 -0.2202  0.1724
 7405TIP3    H143706   2.623   1.098  15.745 -0.9364 -0.2288 -0.0668
 7405TIP3    H243707   2.527   1.214  15.761 -0.6283 -0.0464  0.4971
 7406TIP3   OH243708   4.630   1.684  12.588  0.5032 -1.1100  0.3571
 7406TIP3    H143709   4.540   1.700  12.561  0.5208 -0.6053  0.5966
 7406TIP3    H243710   4.683   1.717  12.515  0.5548  0.3486  1.0309
 7407TIP3   OH243711   0.711   2.506   4.661 -0.5065  0.0767  0.0620
 7407TIP3    H143712   0.652   2.540   4.593  0.4945  1.2645 -0.2402
 7407TIP3    H243713   0.722   2.413   4.638 -0.5844  0.3349 -1.1064
 7408TIP3   OH243714   3.491   1.261  11.862  0.0247  0.0956 -0.8174
 7408TIP3    H143715   3.403   1.243  11.895 -0.3434  2.5027 -0.3138
 7408TIP3    H243716   3.547   1.196  11.905 -0.8705  1.2743  2.3697
 7409TIP3   OH243717   3.183   3.379  15.590  0.0559  0.0099  0.0656
 7409TIP3    H143718   3.215   3.359  15.678  0.8046 -0.3291 -0.2726
 7409TIP3    H243719   3.128   3.304  15.567  2.2567 -1.4267 -0.9031
 7410TIP3   OH243720   2.734   3.495  12.796 -0.3192  0.0654  0.2215
 7410TIP3    H143721   2.725   3.589  12.814 -0.9834 -0.0300  0.4300
 7410TIP3    H243722   2.651   3.471  12.754 -0.1315 -0.4140  0.1276
 7411TIP3   OH243723   2.111   0.171   6.524 -0.3280  0.6802 -0.1486
 7411TIP3    H143724   2.150   0.259   6.519  0.3414  0.4447  0.7596
 7411TIP3    H243725   2.155   0.121   6.455  1.1165  0.3763  0.9589
 7412TIP3   OH243726   4.827   2.218   1.931 -0.4587 -0.4614 -0.0592
 7412TIP3    H143727   4.748   2.226   1.878 -0.3612  0.0592 -0.1346
 7412TIP3    H243728   4.798   2.230   2.021 -0.9246 -3.1964  0.2247
 7413TIP3   OH243729   0.687   4.976  11.501  0.0008 -0.5738 -0.0335
 7413TIP3    H143730   0.668   4.948  11.591  1.3423  1.0127  0.7907
 7413TIP3    H243731   0.643   5.060  11.493 -1.4457 -1.4045 -1.4609
 7414TIP3   OH243732   2.173   0.126   5.962 -0.3412 -0.7066 -0.3829
 7414TIP3    H143733   2.158   0.216   5.992  1.3807 -0.4254 -0.3068
 7414TIP3    H243734   2.085   0.091   5.949 -1.1099  1.7500 -2.7394
 7415TIP3   OH243735   4.728   4.274  12.571 -0.2269 -0.0006 -0.1699
 7415TIP3    H143736   4.696   4.204  12.628 -0.4433  0.9543  0.9018
 7415TIP3    H243737   4.703   4.355  12.615  0.0332  0.7649 -1.3858
 7416TIP3   OH243738   2.477   2.381   1.714  0.5611 -0.0235  0.5477
 7416TIP3    H143739   2.414   2.452   1.703  0.6119 -0.2161 -1.3063
 7416TIP3    H243740   2.423   2.302   1.724  0.5091  0.0348  0.7299
 7417TIP3   OH243741   4.177   6.383   5.797 -0.1415  0.1773  0.1505
 7417TIP3    H143742   4.115   6.457   5.798  3.0754  3.2634 -2.0253
 7417TIP3    H243743   4.226   6.391   5.878 -1.2545 -1.0855  0.9824
 7418TIP3   OH243744   5.831   6.062   4.593  0.0805  0.4792 -0.3030
 7418TIP3    H143745   5.760   6.122   4.572  0.1678  0.7360  0.1294
 7418TIP3    H243746   5.873   6.100   4.670  1.6568  1.1413 -1.4574
 7419TIP3   OH243747   0.337   3.897   3.996 -0.1630  0.7292  0.3491
 7419TIP3    H143748   0.394   3.828   3.963 -0.1742  0.7711  0.2446
 7419TIP3    H243749   0.287   3.926   3.920 -1.7757 -0.6909  0.8095
 7420TIP3   OH243750   4.797   5.870  14.872  0.6151 -0.0418  0.1617
 7420TIP3    H143751   4.739   5.933  14.917  0.2382 -0.2332 -0.0512
 7420TIP3    H243752   4.785   5.889  14.779  1.8599  0.7610  0.1426
 7421TIP3   OH243753   3.813   5.132   3.581  0.1944  0.5594  0.1554
 7421TIP3    H143754   3.906   5.115   3.592 -0.2845 -1.9261  0.8242
 7421TIP3    H243755   3.792   5.097   3.494 -0.1741  0.8619  0.1194
 7422TIP3   OH243756   0.368   2.100   1.554 -0.8698 -0.3012  0.3433
 7422TIP3    H143757   0.411   2.102   1.469 -0.4334 -3.4650  0.3667
 7422TIP3    H243758   0.355   2.192   1.577  0.1550  0.6524 -2.5266
 7423TIP3   OH243759   5.202   1.227  16.264 -0.6388  0.4134  0.0966
 7423TIP3    H143760   5.128   1.183  16.306 -0.1410 -0.6937 -0.1439
 7423TIP3    H243761   5.278   1.199  16.314  0.0544 -1.4259 -1.8292
 7424TIP3   OH243762   4.703   6.359  12.408  0.3988  0.5774  0.3420
 7424TIP3    H143763   4.669   6.378  12.321  1.4314 -1.7741 -0.6639
 7424TIP3    H243764   4.713   6.445  12.450  0.1359  1.7822 -1.9276
 7425TIP3   OH243765   5.924   2.418   2.499  0.1399 -0.3200 -0.0392
 7425TIP3    H143766   5.949   2.511   2.493  0.0803 -0.3129 -0.1758
 7425TIP3    H243767   6.002   2.371   2.471  0.1799 -0.3123  0.0571
 7426TIP3   OH243768   5.252   3.001  14.169  0.2924  0.4263 -0.1032
 7426TIP3    H143769   5.313   2.953  14.226  1.0489  0.6856 -0.6775
 7426TIP3    H243770   5.168   2.956  14.180  0.7357 -0.3403  0.2126
 7427TIP3   OH243771   3.949   3.682  17.123 -0.1106 -0.2124 -0.3193
 7427TIP3    H143772   3.970   3.590  17.112 -0.1255 -0.1868 -0.5725
 7427TIP3    H243773   4.023   3.728  17.083  0.6921 -0.1004  1.2421
 7428TIP3   OH243774   1.871   5.527  12.424  0.6783  0.1156  0.0125
 7428TIP3    H143775   1.799   5.463  12.420 -0.4151  1.3623 -1.0941
 7428TIP3    H243776   1.935   5.487  12.483 -0.7362 -1.2246  0.7159
 7429TIP3   OH243777   6.216   4.834  12.013 -0.3291 -0.0284  0.2668
 7429TIP3    H143778   6.290   4.895  12.015 -0.4149  0.0684  1.4776
 7429TIP3    H243779   6.248   4.756  12.059 -1.0091  0.0503  0.8894
 7430TIP3   OH243780   3.683   2.368  17.025 -0.0568 -0.1071 -0.0216
 7430TIP3    H143781   3.744   2.433  16.990 -0.8511 -0.6615 -2.6712
 7430TIP3    H243782   3.735   2.289  17.036  0.3123  0.2121  0.5964
 7431TIP3   OH243783   1.289   0.806   2.913  0.0101 -0.7357 -0.5495
 7431TIP3    H143784   1.347   0.753   2.969 -0.4414  0.6618  1.3077
 7431TIP3    H243785   1.252   0.742   2.852  2.7805 -1.8494 -1.2596
 7432TIP3   OH243786   6.006   3.465  16.080 -0.2001 -0.5350 -0.2180
 7432TIP3    H143787   5.949   3.394  16.110  0.5288 -0.7776  0.6241
 7432TIP3    H243788   6.045   3.432  15.999  0.0742 -1.0642  0.1242
 7433TIP3   OH243789   6.155   4.945  15.186  0.1454  0.3214  0.5608
 7433TIP3    H143790   6.066   4.917  15.207  0.9377 -1.1651  2.2540
 7433TIP3    H243791   6.154   5.040  15.194 -1.3838  0.3575  0.1018
 7434TIP3   OH243792   6.217   1.846   0.410 -0.4527 -0.2668 -0.0355
 7434TIP3    H143793   6.289   1.829   0.470 -0.5304 -0.2097  0.0729
 7434TIP3    H243794   6.229   1.781   0.340  1.7536  1.8755 -1.8515
 7435TIP3   OH243795   2.537   4.602  12.654  0.4502  0.2089  0.1075
 7435TIP3    H143796   2.521   4.614  12.561 -0.3710 -0.2819  0.1737
 7435TIP3    H243797   2.490   4.521  12.676  0.9783  0.1024  0.8582
 7436TIP3   OH243798   3.108   3.052   2.416 -0.4236 -0.6900 -0.2112
 7436TIP3    H143799   3.180   3.002   2.377 -0.1162  0.9309 -1.8492
 7436TIP3    H243800   3.035   3.038   2.356 -2.0644 -3.4952  2.1682
 7437TIP3   OH243801   1.812   0.088  11.840  0.0206  0.3841 -0.0847
 7437TIP3    H143802   1.788   0.143  11.766  2.2373  1.5484 -0.0200
 7437TIP3    H243803   1.823   0.149  11.913  1.3502 -0.2647  0.2899
 7438TIP3   OH243804   3.347   4.349  17.229  0.8297 -0.1871 -0.0069
 7438TIP3    H143805   3.303   4.280  17.181 -1.9946  0.0609  1.9589
 7438TIP3    H243806   3.368   4.415  17.163 -1.1014 -0.6996 -1.2133
 7439TIP3   OH243807   0.538   3.405   2.522  0.5024 -0.2817  0.5336
 7439TIP3    H143808   0.574   3.324   2.558  1.5083 -0.3823 -0.6163
 7439TIP3    H243809   0.553   3.398   2.428  0.9775  1.4226  0.4470
 7440TIP3   OH243810   4.713   4.299   6.011 -0.3532 -0.1277  0.4238
 7440TIP3    H143811   4.745   4.380   5.972 -1.0152 -0.1799 -0.2520
 7440TIP3    H243812   4.708   4.318   6.105  1.7755 -0.1767  0.5913
 7441TIP3   OH243813   2.815   1.611  11.162 -0.3600 -0.0314  0.5002
 7441TIP3    H143814   2.734   1.647  11.199 -1.5311  0.5822 -2.3962
 7441TIP3    H243815   2.820   1.649  11.074  1.3745 -2.5477 -0.6005
 7442TIP3   OH243816   4.012   1.555  13.073 -1.0716 -0.6327  0.6328
 7442TIP3    H143817   4.040   1.640  13.107 -0.2297 -0.8455  0.4972
 7442TIP3    H243818   4.068   1.540  12.996 -2.4598 -0.4801 -0.4460
 7443TIP3   OH243819   3.001   3.587   1.371 -0.2200  0.3656 -0.0048
 7443TIP3    H143820   2.923   3.603   1.318  0.3450  1.9347 -0.4203
 7443TIP3    H243821   2.966   3.567   1.458 -1.1145 -0.8658 -0.6180
 7444TIP3   OH243822   1.048   4.938   4.354 -0.0943 -0.1971  1.1603
 7444TIP3    H143823   1.105   4.883   4.407 -0.2959  0.6049  2.2425
 7444TIP3    H243824   1.023   5.010   4.412  1.5090  2.0044 -0.6741
 7445TIP3   OH243825   3.846   4.671   7.617  0.6429 -0.0959  0.1716
 7445TIP3    H143826   3.799   4.751   7.597 -0.6715 -1.1271 -1.1257
 7445TIP3    H243827   3.905   4.694   7.688  0.6069  2.1061 -0.4474
 7446TIP3   OH243828   0.393   4.976  16.233 -0.5306  0.5836  0.2775
 7446TIP3    H143829   0.426   5.021  16.155  0.5536  1.0608  0.9915
 7446TIP3    H243830   0.383   5.045  16.298 -1.8402  0.2535  0.4474
 7447TIP3   OH243831   5.271   1.323   5.180  0.0201 -0.4015  0.5439
 7447TIP3    H143832   5.314   1.305   5.097 -1.0379 -0.9359  0.0899
 7447TIP3    H243833   5.178   1.312   5.162 -0.2876  0.2699  1.6081
 7448TIP3   OH243834   6.229   0.616  16.356 -0.0381  0.4827  0.5153
 7448TIP3    H143835   6.204   0.539  16.305  0.4042  0.3278  0.5306
 7448TIP3    H243836   6.277   0.671  16.295 -0.8508  1.0195  0.3466
 7449TIP3   OH243837   0.883   4.467   3.399 -0.3125  0.0254  0.1541
 7449TIP3    H143838   0.911   4.424   3.480 -0.6117 -1.8336 -0.6775
 7449TIP3    H243839   0.789   4.454   3.396 -0.1238 -1.2808 -1.2072
 7450TIP3   OH243840   4.343   2.319   1.611  0.2969  0.0055 -0.0281
 7450TIP3    H143841   4.264   2.276   1.644 -0.2152  0.7340 -0.2652
 7450TIP3    H243842   4.309   2.389   1.554  0.9992  2.5487  2.4802
 7451TIP3   OH243843   4.678   0.796  15.136  0.2707 -0.0170  0.2190
 7451TIP3    H143844   4.649   0.820  15.048 -0.6066  1.0819  0.7602
 7451TIP3    H243845   4.773   0.805  15.134  0.2236  0.4060 -0.5126
 7452TIP3   OH243846   1.662   0.096   2.455 -0.3081  0.6643  0.1769
 7452TIP3    H143847   1.654   0.125   2.364 -0.1134 -0.2032 -0.1265
 7452TIP3    H243848   1.576   0.110   2.493 -0.1675  1.8138  0.1004
 7453TIP3   OH243849   2.382   4.086  11.125  0.0917  0.4345 -0.0579
 7453TIP3    H143850   2.293   4.080  11.159  0.0200  1.5693  0.0076
 7453TIP3    H243851   2.376   4.150  11.054  1.1787  1.9814  1.1781
 7454TIP3   OH243852   5.020   6.304   5.963 -0.2184  0.4160 -0.1350
 7454TIP3    H143853   4.980   6.376   6.012 -1.1760 -0.2290  0.0391
 7454TIP3    H243854   5.046   6.344   5.879 -1.7375  0.7319 -0.4792
 7455TIP3   OH243855   5.578   5.524  12.187  0.3434  0.4904  0.2072
 7455TIP3    H143856   5.547   5.479  12.265 -0.6333  0.6205 -0.0816
 7455TIP3    H243857   5.591   5.615  12.215 -1.7174  0.9589 -0.1403
 7456TIP3   OH243858   0.612   1.055   3.759 -0.4420 -0.5067  0.0367
 7456TIP3    H143859   0.657   1.037   3.841  0.3124 -1.6044 -0.5953
 7456TIP3    H243860   0.680   1.094   3.703 -0.8245 -0.2186 -0.2317
 7457TIP3   OH243861   1.192   6.801   2.411  0.1499 -0.1887 -0.1075
 7457TIP3    H143862   1.111   6.837   2.448 -0.1454  0.6527 -1.5009
 7457TIP3    H243863   1.170   6.710   2.391 -0.8357  0.3288 -1.5023
 7458TIP3   OH243864   4.772   3.527   4.560 -0.6575 -0.1478  0.1236
 7458TIP3    H143865   4.699   3.533   4.621 -0.5933  3.3395  0.0454
 7458TIP3    H243866   4.732   3.521   4.474 -0.7676 -1.2913  0.2364
 7459TIP3   OH243867   2.960   3.199   5.470  0.3717 -0.1568  0.2338
 7459TIP3    H143868   2.963   3.210   5.374 -0.5522 -0.4120  0.1690
 7459TIP3    H243869   2.927   3.110   5.483  0.4710 -0.1132  0.8004
 7460TIP3   OH243870   2.655   4.020  15.985  0.1432  0.2798 -0.0399
 7460TIP3    H143871   2.564   4.042  16.008 -0.4279 -1.9206  0.0555
 7460TIP3    H243872   2.655   4.019  15.889  0.6032  2.1866 -0.0865
 7461TIP3   OH243873   6.212   2.536  13.480  0.5075 -0.0199  0.2862
 7461TIP3    H143874   6.257   2.466  13.433  0.3801  0.0125  0.1143
 7461TIP3    H243875   6.259   2.616  13.454 -0.1055  0.1077 -0.4817
 7462TIP3   OH243876   0.518   5.788   1.884 -0.2448 -0.1308 -0.8782
 7462TIP3    H143877   0.571   5.843   1.942 -1.1804  1.9193 -1.8549
 7462TIP3    H243878   0.582   5.734   1.838  0.6212 -0.7087  0.8955
 7463TIP3   OH243879   1.373   3.334  10.649  0.3151 -0.0255  0.3536
 7463TIP3    H143880   1.301   3.376  10.602  0.2474  0.7091  1.0861
 7463TIP3    H243881   1.335   3.255  10.687  0.2503 -0.3664 -0.4195
 7464TIP3   OH243882   6.047   5.575   5.604  0.0099 -0.4505 -0.2401
 7464TIP3    H143883   6.026   5.639   5.536  1.6211  0.7290  0.3222
 7464TIP3    H243884   5.978   5.585   5.669 -0.5232 -0.2919 -0.8202
 7465TIP3   OH243885   2.981   6.747  11.332  0.2067  0.0205 -0.7250
 7465TIP3    H143886   2.975   6.790  11.417 -0.3673 -1.8303  0.2291
 7465TIP3    H243887   2.891   6.722  11.311  0.5729 -1.1844 -0.9525
 7466TIP3   OH243888   0.553   2.739  11.409  0.2214  0.0646  1.3548
 7466TIP3    H143889   0.555   2.757  11.316  1.5884 -0.7880  1.1827
 7466TIP3    H243890   0.500   2.809  11.447 -1.8884 -0.5971 -0.2520
 7467TIP3   OH243891   0.505   4.658  13.639  0.6418 -0.2172  0.2343
 7467TIP3    H143892   0.417   4.653  13.604  0.8513 -0.8013 -0.2093
 7467TIP3    H243893   0.509   4.589  13.706  0.0374  1.2933  1.9189
 7468TIP3   OH243894   0.126   4.353  13.822  0.1429 -0.2785 -0.2448
 7468TIP3    H143895   0.038   4.345  13.860  0.1154 -1.9790 -0.5928
 7468TIP3    H243896   0.171   4.416  13.879 -1.6710  1.6814 -0.8438
 7469TIP3   OH243897   3.300   3.879  13.037 -0.2660  0.1016 -0.1356
 7469TIP3    H143898   3.300   3.785  13.057 -0.1287 -0.2253 -1.5755
 7469TIP3    H243899   3.388   3.896  13.004 -0.2613  0.7736  0.2086
 7470TIP3   OH243900   4.770   5.707  16.748  0.3923 -0.0884  0.5005
 7470TIP3    H143901   4.696   5.698  16.808  0.6821  1.8663  1.2440
 7470TIP3    H243902   4.846   5.685  16.801  0.4062 -1.8835 -0.2041
 7471TIP3   OH243903   2.700   0.261   2.330 -0.6482  0.2203  0.0844
 7471TIP3    H143904   2.639   0.285   2.400 -2.2782 -0.2014 -1.1337
 7471TIP3    H243905   2.693   0.332   2.266 -0.7418 -0.3947 -0.5988
 7472TIP3   OH243906   1.455   4.514  14.893 -0.1095  0.2755 -0.1775
 7472TIP3    H143907   1.551   4.518  14.889 -0.1476  0.6013 -0.9860
 7472TIP3    H243908   1.437   4.444  14.956  0.6480  1.0556  0.9340
 7473TIP3   OH243909   2.634   6.576   6.113  0.0099  0.1568  0.1289
 7473TIP3    H143910   2.546   6.600   6.086 -0.4120 -0.3913  0.9651
 7473TIP3    H243911   2.683   6.568   6.031 -0.7939  0.1720 -0.3607
 7474TIP3   OH243912   3.688   5.977  11.562  0.3220  0.6228 -0.4335
 7474TIP3    H143913   3.672   5.922  11.486 -1.4979  0.5553 -0.0696
 7474TIP3    H243914   3.644   6.060  11.542 -0.3882  0.5273  0.5959
 7475TIP3   OH243915   4.985   1.324  14.197 -0.3046  0.0828 -0.2588
 7475TIP3    H143916   5.078   1.318  14.220 -0.1778  3.9471  1.1223
 7475TIP3    H243917   4.983   1.378  14.118 -1.3402  1.6037  0.7392
 7476TIP3   OH243918   1.355   1.411  15.448 -0.0086  0.4098  0.2680
 7476TIP3    H143919   1.289   1.415  15.518 -0.0038  0.9163  0.2471
 7476TIP3    H243920   1.388   1.321  15.452 -0.3074  0.3111  0.6411
 7477TIP3   OH243921   6.336   0.464  16.038 -0.1794 -0.5826 -0.1002
 7477TIP3    H143922   6.259   0.453  16.093  0.1246 -0.1249  0.4306
 7477TIP3    H243923   6.394   0.392  16.063 -1.5364 -2.6481 -2.4763
 7478TIP3   OH243924   3.774   1.071   6.700 -0.5864  0.1313 -0.2045
 7478TIP3    H143925   3.770   1.043   6.609  2.0937 -2.4463  0.3197
 7478TIP3    H243926   3.701   1.026   6.743 -0.7694 -0.0745 -0.7329
 7479TIP3   OH243927   4.266   4.227  16.102  0.4475 -0.0270  0.3786
 7479TIP3    H143928   4.354   4.254  16.129  1.5007 -2.8564  0.2134
 7479TIP3    H243929   4.281   4.171  16.025 -1.5514 -0.1249  0.0140
 7480TIP3   OH243930   2.671   5.624  11.097 -0.5022 -0.1893  0.0942
 7480TIP3    H143931   2.598   5.684  11.114  1.5850  2.3192  0.8537
 7480TIP3    H243932   2.749   5.676  11.115  1.5246 -2.5821 -1.1966
 7481TIP3   OH243933   2.810   3.104  11.819  0.0891 -0.3083 -0.0345
 7481TIP3    H143934   2.731   3.106  11.874  1.0881 -0.6909  1.4830
 7481TIP3    H243935   2.880   3.084  11.880  1.2277 -1.0597 -1.5482
 7482TIP3   OH243936   2.278   2.319   2.512  0.6534  0.1434  0.1514
 7482TIP3    H143937   2.366   2.347   2.484 -0.2141  1.3432 -1.5446
 7482TIP3    H243938   2.227   2.318   2.432 -1.1297  0.3567  1.2405
 7483TIP3   OH243939   4.746   2.855   1.559 -0.3558  0.6594 -0.0936
 7483TIP3    H143940   4.801   2.910   1.615  1.6213 -0.5641 -0.7343
 7483TIP3    H243941   4.807   2.814   1.498 -1.6580 -2.4446  0.5045
 7484TIP3   OH243942   3.754   4.864  12.116 -0.2708 -0.2250  0.0241
 7484TIP3    H143943   3.839   4.823  12.134 -0.3022 -0.4018 -0.2323
 7484TIP3    H243944   3.695   4.826  12.181  0.3470  1.6366  1.7775
 7485TIP3   OH243945   2.730   5.849   1.771 -0.2501  0.5526 -0.2207
 7485TIP3    H143946   2.663   5.798   1.726 -1.0371  2.2844 -1.1278
 7485TIP3    H243947   2.684   5.888   1.845  0.0719  0.7601 -0.1300
 7486TIP3   OH243948   4.773   5.186  14.358 -0.2561 -0.8401  0.6125
 7486TIP3    H143949   4.738   5.246  14.293  1.2699 -0.0711  0.4715
 7486TIP3    H243950   4.704   5.120  14.369 -0.8963 -0.5124 -1.1282
 7487TIP3   OH243951   2.605   4.211   3.305 -0.1318 -0.2542 -0.2630
 7487TIP3    H143952   2.628   4.128   3.348  0.1148 -0.4738 -0.8054
 7487TIP3    H243953   2.530   4.189   3.250 -0.2609 -0.0421 -0.1709
 7488TIP3   OH243954   3.654   1.275   6.081  0.6051 -0.5698 -0.9284
 7488TIP3    H143955   3.749   1.268   6.074  0.9265 -0.5001  2.1603
 7488TIP3    H243956   3.636   1.271   6.175 -2.4385 -0.2901 -1.3961
 7489TIP3   OH243957   2.637   3.193  12.403  0.1803 -0.0556  0.7295
 7489TIP3    H143958   2.625   3.099  12.419  0.2477 -0.2636 -0.3593
 7489TIP3    H243959   2.561   3.218  12.352 -0.3495  0.7251  1.8669
 7490TIP3   OH243960   3.213   0.976  12.562  0.1215  1.0160  0.1199
 7490TIP3    H143961   3.305   0.955  12.579 -0.1262 -0.3515 -0.0990
 7490TIP3    H243962   3.193   1.048  12.621  0.5432 -0.5603  2.2969
 7491TIP3   OH243963   1.784   6.377   0.047  0.0949 -0.0066 -0.5481
 7491TIP3    H143964   1.857   6.438   0.053 -0.3947  0.4526  1.5553
 7491TIP3    H243965   1.825   6.290   0.053  0.7290  0.0785 -2.8895
 7492TIP3   OH243966   1.267   0.153  10.282 -0.0562 -0.3256  0.4875
 7492TIP3    H143967   1.337   0.098  10.318  2.6456  0.7121 -2.6907
 7492TIP3    H243968   1.275   0.236  10.330 -0.7146 -0.9194  1.6916
 7493TIP3   OH243969   0.810   1.025  16.946  0.0402  1.3741 -0.1597
 7493TIP3    H143970   0.737   1.084  16.963 -0.3676  0.4425  1.5576
 7493TIP3    H243971   0.770   0.938  16.940  0.7644  1.1080 -1.5041
 7494TIP3   OH243972   3.532   5.071  14.616  0.2063  0.1867 -0.0155
 7494TIP3    H143973   3.571   5.011  14.680 -0.3235  0.5032  0.6159
 7494TIP3    H243974   3.553   5.159  14.649  0.3972  0.3546 -0.5731
 7495TIP3   OH243975   2.298   0.687   2.709 -0.1077 -0.0487  0.7301
 7495TIP3    H143976   2.277   0.610   2.656  1.0187 -0.0706  0.2917
 7495TIP3    H243977   2.213   0.717   2.742 -0.6472 -1.0005  0.2564
 7496TIP3   OH243978   4.391   3.566  11.067 -0.7723 -0.2609 -0.3019
 7496TIP3    H143979   4.401   3.652  11.108 -1.3388  0.6551 -1.9785
 7496TIP3    H243980   4.306   3.535  11.096 -1.3839  0.5994 -1.1263
 7497TIP3   OH243981   1.356   6.511  17.011  0.2181  0.0716 -0.4295
 7497TIP3    H143982   1.413   6.587  17.011  1.8279 -1.0668  0.7708
 7497TIP3    H243983   1.411   6.439  17.041 -1.7275 -1.2073  0.3232
 7498TIP3   OH243984   2.915   6.704  16.631  0.2472 -0.3500  0.3607
 7498TIP3    H143985   2.919   6.618  16.674  1.5715  0.3566  1.7237
 7498TIP3    H243986   3.003   6.718  16.598  0.4602  1.1231  1.4729
 7499TIP3   OH243987   4.229   1.312  12.275  0.1892 -0.4394 -0.0182
 7499TIP3    H143988   4.215   1.230  12.323  0.0481 -1.9719 -2.4686
 7499TIP3    H243989   4.306   1.351  12.317 -0.4560 -1.1669  1.9945
 7500TIP3   OH243990   3.561   6.276   4.519  0.2013  0.5349  0.6138
 7500TIP3    H143991   3.580   6.362   4.556  1.1090  1.0143 -0.8660
 7500TIP3    H243992   3.628   6.219   4.554 -0.9520  0.1669  2.3454
 7501TIP3   OH243993   3.394   6.552   4.642  0.5537  0.0303  0.6406
 7501TIP3    H143994   3.306   6.533   4.673  0.8314 -0.6396  1.0506
 7501TIP3    H243995   3.452   6.508   4.704  1.2266  1.5491  1.1462
 7502TIP3   OH243996   2.885   0.139   0.518 -0.0400  0.3469 -0.7336
 7502TIP3    H143997   2.831   0.216   0.536 -1.2660 -0.5366 -0.5318
 7502TIP3    H243998   2.848   0.070   0.572  0.7094 -0.5295 -1.3043
 7503TIP3   OH243999   3.699   6.319  15.175 -0.2102  0.4536 -0.8757
 7503TIP3    H144000   3.769   6.372  15.136  0.5654 -1.1580 -1.7319
 7503TIP3    H244001   3.736   6.288  15.258 -0.5348  0.9445 -0.5422
 7504TIP3   OH244002   1.984   2.996   3.674 -0.3375 -0.1608 -0.3661
 7504TIP3    H144003   1.900   2.951   3.674  0.0275 -0.9244 -1.9093
 7504TIP3    H244004   1.961   3.089   3.671 -1.0946 -0.2786  1.0778
 7505TIP3   OH244005   2.704   1.767   5.470 -0.3527  0.1776  0.0440
 7505TIP3    H144006   2.702   1.776   5.565 -1.7639  1.8634 -0.0843
 7505TIP3    H244007   2.639   1.700   5.450 -1.2265  0.9345  0.2308
 7506TIP3   OH244008   4.584   5.482   4.603  0.0428  0.0401 -0.2965
 7506TIP3    H144009   4.589   5.567   4.647  0.0332 -0.0820 -0.0626
 7506TIP3    H244010   4.674   5.463   4.577  0.5174 -1.1261  1.9838
 7507TIP3   OH244011   1.623   6.555   4.405 -0.2523 -0.4895  0.6705
 7507TIP3    H144012   1.620   6.523   4.495  0.9670 -1.7934  0.2811
 7507TIP3    H244013   1.716   6.573   4.389 -0.4864 -0.0098 -0.2379
 7508TIP3   OH244014   4.346   5.765  13.603  1.0579  0.7479 -0.1749
 7508TIP3    H144015   4.266   5.805  13.568  1.4664  0.8313 -1.0306
 7508TIP3    H244016   4.371   5.822  13.676 -0.0212  0.3507  0.5404
 7509TIP3   OH244017   6.758   6.529   6.766  0.3360  0.5444 -0.6070
 7509TIP3    H144018   6.832   6.534   6.705  0.7296  0.5132 -0.1346
 7509TIP3    H244019   6.763   6.442   6.804 -0.2997  0.3234 -1.0071
 7510TIP3   OH244020   2.156   3.407   6.415  0.2371  0.1048  0.3079
 7510TIP3    H144021   2.228   3.420   6.353 -0.3418 -0.1053 -0.4314
 7510TIP3    H244022   2.169   3.318   6.449 -1.3715 -1.2024 -2.1832
 7511TIP3   OH244023   1.716   0.262   6.791  0.2026 -0.0516 -0.2035
 7511TIP3    H144024   1.622   0.248   6.774 -0.3652  2.8216  0.1074
 7511TIP3    H244025   1.758   0.240   6.708 -0.6900 -1.6283 -0.2724
 7512TIP3   OH244026   2.451   1.327   1.867 -0.2433 -0.0619  0.1093
 7512TIP3    H144027   2.412   1.414   1.863 -2.9425 -1.1965 -0.9060
 7512TIP3    H244028   2.399   1.280   1.933  0.2465 -1.2844 -0.3469
 7513TIP3   OH244029   5.512   4.556  11.846 -0.0307  0.0137  0.0715
 7513TIP3    H144030   5.605   4.574  11.860  0.1030 -1.0448  0.7346
 7513TIP3    H244031   5.469   4.641  11.851  0.7483  0.3607  1.1649
 7514TIP3   OH244032   0.136   2.919   0.726  0.5000  0.4701 -0.3806
 7514TIP3    H144033   0.186   3.000   0.717  3.1000 -0.8770  0.5059
 7514TIP3    H244034   0.116   2.893   0.636 -0.6138  2.1548 -0.6698
 7515TIP3   OH244035   6.217   5.144  16.389 -0.1058  0.1233  0.1131
 7515TIP3    H144036   6.142   5.194  16.355 -1.3374  0.7793  3.4348
 7515TIP3    H244037   6.288   5.208  16.394 -0.7104  0.7149  1.2744
 7516TIP3   OH244038   2.631   2.122  11.427  0.3376  0.0151 -0.1553
 7516TIP3    H144039   2.631   2.204  11.377  0.9801  0.8464  1.1445
 7516TIP3    H244040   2.682   2.142  11.505 -0.6481 -1.2327  0.8488
 7517TIP3   OH244041   2.117   1.940  13.603 -0.1593  0.2756  0.2175
 7517TIP3    H144042   2.114   1.856  13.557 -0.2753 -0.5736  1.7023
 7517TIP3    H244043   2.108   2.005  13.535  0.5404 -0.9016 -1.0523
 7518TIP3   OH244044   1.092   5.225   1.762  0.0111  0.1800 -0.1933
 7518TIP3    H144045   1.164   5.183   1.808 -0.3468 -1.3997 -1.0123
 7518TIP3    H244046   1.133   5.267   1.686  0.1923  0.0870 -0.1471
 7519TIP3   OH244047   1.202   6.469   1.201  0.3970 -0.4952  0.0900
 7519TIP3    H144048   1.225   6.440   1.113  0.7347  0.4537 -0.1412
 7519TIP3    H244049   1.276   6.440   1.256  0.5550 -0.3978 -0.0719
 7520TIP3   OH244050   4.569   2.680  11.076 -0.1739 -0.4451  0.4151
 7520TIP3    H144051   4.550   2.667  10.983 -0.2743 -0.7199  0.4731
 7520TIP3    H244052   4.546   2.596  11.117 -1.7988  0.2136  0.9424
 7521TIP3   OH244053   1.070   0.255   3.178 -0.3153  0.2739  0.2890
 7521TIP3    H144054   1.001   0.208   3.225 -0.8190 -0.1465 -0.8229
 7521TIP3    H244055   1.036   0.344   3.169  0.1516  0.5819  1.4267
 7522TIP3   OH244056   3.381   1.035  11.574 -1.3266 -0.5294  0.3895
 7522TIP3    H144057   3.343   0.992  11.498 -0.8561  1.0703 -0.8047
 7522TIP3    H244058   3.321   1.106  11.595 -0.0845  0.7752 -0.2735
 7523TIP3   OH244059   4.675   2.776   2.759  0.6079 -0.5343  0.3504
 7523TIP3    H144060   4.634   2.712   2.816 -3.8039  2.4312  1.0623
 7523TIP3    H244061   4.739   2.820   2.814 -0.3464 -0.6943  1.6261
 7524TIP3   OH244062   6.463   4.215   2.701  0.1366 -0.0028  0.0977
 7524TIP3    H144063   6.495   4.184   2.786 -1.2074 -0.9298  0.3017
 7524TIP3    H244064   6.391   4.155   2.680 -0.5561  1.1609 -0.9614
 7525TIP3   OH244065   1.497   5.512  14.566  0.2515  0.0479  0.4022
 7525TIP3    H144066   1.415   5.465  14.581  0.0929  0.0154 -0.5213
 7525TIP3    H244067   1.554   5.449  14.522  0.6026  0.2239  0.6009
 7526TIP3   OH244068   6.792   1.569   2.662 -0.2114  0.0304 -0.7030
 7526TIP3    H144069   6.859   1.536   2.722 -1.1845 -1.1235 -0.1985
 7526TIP3    H244070   6.713   1.576   2.716 -0.7457  0.4004 -1.5096
 7527TIP3   OH244071   0.235   3.699  16.502  0.7118  0.0703 -0.8073
 7527TIP3    H144072   0.262   3.785  16.472 -0.7273  0.4551 -1.0833
 7527TIP3    H244073   0.155   3.715  16.552  1.6723 -0.8484  1.1375
 7528TIP3   OH244074   0.320   6.511  13.801  0.0225 -0.2974  0.4671
 7528TIP3    H144075   0.388   6.480  13.741  0.1994 -2.1230  1.5303
 7528TIP3    H244076   0.364   6.577  13.855  1.3297 -2.2314  1.8695
 7529TIP3   OH244077   6.062   0.699  14.149  0.4656 -0.4480  0.1095
 7529TIP3    H144078   6.147   0.725  14.113 -0.1248 -1.5332 -2.2714
 7529TIP3    H244079   6.021   0.781  14.177  1.8260  0.2080  0.2400
 7530TIP3   OH244080   3.075   2.058  13.916 -0.7883 -0.1335 -0.0732
 7530TIP3    H144081   3.139   2.108  13.966 -0.4497 -0.4127 -0.2257
 7530TIP3    H244082   2.997   2.113  13.916 -0.4660  0.3305 -0.1105
 7531TIP3   OH244083   5.835   5.833   6.037  0.1168 -0.4113  0.4437
 7531TIP3    H144084   5.752   5.849   5.992  1.0452  0.4229 -1.0540
 7531TIP3    H244085   5.854   5.916   6.081  0.5886 -0.3004  0.0370
 7532TIP3   OH244086   1.016   4.267  15.735 -0.8066  0.3905  0.1639
 7532TIP3    H144087   1.042   4.329  15.803 -0.2238  0.9089 -0.5059
 7532TIP3    H244088   0.943   4.311  15.689 -0.9025  0.2413  0.1724
 7533TIP3   OH244089   6.143   2.815  10.507  0.1407 -0.5223  0.1902
 7533TIP3    H144090   6.222   2.812  10.561 -0.3687 -1.6093  0.9017
 7533TIP3    H244091   6.123   2.908  10.499  0.4766 -0.3161  1.5044
 7534TIP3   OH244092   0.750   4.260   5.119  0.2295 -0.3975  0.2012
 7534TIP3    H144093   0.752   4.356   5.121 -0.1958 -0.3331 -1.5876
 7534TIP3    H244094   0.839   4.235   5.093 -0.3003 -0.3611 -1.8000
 7535TIP3   OH244095   5.508   4.597  14.246  0.1324 -0.0739 -0.6928
 7535TIP3    H144096   5.419   4.575  14.275 -0.3550 -0.4168 -2.3779
 7535TIP3    H244097   5.504   4.691  14.228 -0.1751 -0.2664 -1.6841
 7536TIP3   OH244098   5.937   3.794  13.652  0.0211 -0.0014  0.1393
 7536TIP3    H144099   5.855   3.796  13.701  1.1424 -0.6487  2.1592
 7536TIP3    H244100   5.941   3.706  13.614 -0.6621  0.3693 -0.8333
 7537TIP3   OH244101   5.356   4.783  11.903  0.3596  0.3104 -0.1621
 7537TIP3    H144102   5.291   4.827  11.849  0.8716  1.5176  0.1794
 7537TIP3    H244103   5.336   4.811  11.993  1.9315  1.4949 -0.1480
 7538TIP3   OH244104   2.185   1.367  17.008  0.7588  0.1060  0.5773
 7538TIP3    H144105   2.224   1.438  17.059 -0.6101  0.1604  1.6091
 7538TIP3    H244106   2.240   1.291  17.027  1.1172  0.4582  0.9767
 7539TIP3   OH244107   0.525   1.920   3.707  0.0835 -0.0566  0.3307
 7539TIP3    H144108   0.563   1.961   3.629  0.1109 -1.3251 -0.3568
 7539TIP3    H244109   0.430   1.932   3.697  0.0853 -0.2453  0.0859
 7540TIP3   OH244110   2.423   2.277   5.287 -0.3365 -0.4979 -0.1516
 7540TIP3    H144111   2.433   2.194   5.335  1.4534 -0.9441 -1.2254
 7540TIP3    H244112   2.462   2.343   5.345 -0.8396 -0.5493  0.2566
 7541TIP3   OH244113   3.794   5.317  15.497  0.1894 -0.1158  0.2162
 7541TIP3    H144114   3.705   5.283  15.488  0.7285 -2.3094  2.1755
 7541TIP3    H244115   3.837   5.294  15.415 -0.6072 -0.4554 -0.1186
 7542TIP3   OH244116   1.437   4.410   1.219 -0.2149 -0.2136 -0.5561
 7542TIP3    H144117   1.444   4.487   1.162  2.1863 -1.3158 -1.8902
 7542TIP3    H244118   1.403   4.341   1.162 -2.1542 -0.2686  0.5781
 7543TIP3   OH244119   1.052   6.578  14.640  0.4830 -0.0091 -0.3026
 7543TIP3    H144120   1.016   6.654  14.594  0.7284 -0.5726 -1.4532
 7543TIP3    H244121   1.013   6.503  14.596  2.1552 -0.6138 -0.8238
 7544TIP3   OH244122   2.009   1.459  12.672 -0.4284  0.1128 -0.1529
 7544TIP3    H144123   2.005   1.499  12.585  0.1180 -0.3066 -0.3778
 7544TIP3    H244124   1.964   1.376  12.662 -0.8086  0.2862  0.0967
 7545TIP3   OH244125   2.763   1.062   0.162 -0.2559 -0.6372  0.0038
 7545TIP3    H144126   2.804   1.104   0.087  0.0871  0.3740  0.7423
 7545TIP3    H244127   2.786   0.969   0.153  1.4331 -0.2296 -0.0939
 7546TIP3   OH244128   4.679   3.656  10.758 -0.1708 -0.0661  0.3639
 7546TIP3    H144129   4.694   3.750  10.744  1.3520 -0.0659  1.6936
 7546TIP3    H244130   4.612   3.633  10.694 -1.4022  2.1555  0.7287
 7547TIP3   OH244131   4.215   5.407   0.020  0.1130 -0.4068  0.0108
 7547TIP3    H144132   4.242   5.497   0.039 -1.2319  0.4146 -1.6761
 7547TIP3    H244133   4.284   5.353   0.057  1.8042  1.3863 -0.3556
 7548TIP3   OH244134   3.403   1.774  15.469  0.4765  0.2908  0.1767
 7548TIP3    H144135   3.493   1.762  15.499  0.4775  2.5889  1.3814
 7548TIP3    H244136   3.350   1.766  15.548 -0.0560  1.5713 -0.0122
 7549TIP3   OH244137   3.994   6.221   4.691  0.3223  0.4173  0.0278
 7549TIP3    H144138   4.041   6.150   4.734  2.4792  2.4360  1.2656
 7549TIP3    H244139   4.012   6.209   4.598 -0.8868 -1.6248 -0.0005
 7550TIP3   OH244140   0.194   3.162   0.342 -0.1486  0.6000  0.3506
 7550TIP3    H144141   0.159   3.125   0.261  0.3781 -1.0357  0.8330
 7550TIP3    H244142   0.117   3.192   0.390 -0.4809  1.4237 -0.6416
 7551TIP3   OH244143   1.162   6.421  17.219  0.1186 -0.1285 -0.1471
 7551TIP3    H144144   1.247   6.440  17.180  2.2960 -2.3360  3.0059
 7551TIP3    H244145   1.135   6.502  17.261  1.5628  0.1638  0.2516
 7552TIP3   OH244146   1.303   4.229  17.209 -0.1841 -0.1317  0.3381
 7552TIP3    H144147   1.283   4.137  17.227 -1.5317 -0.1947 -1.1736
 7552TIP3    H244148   1.225   4.276  17.239 -1.4511 -0.0116 -2.7484
 7553TIP3   OH244149   5.085   0.503   2.409  0.0439 -0.0304 -0.4923
 7553TIP3    H144150   5.151   0.435   2.400  0.5071  0.5283 -1.3843
 7553TIP3    H244151   5.068   0.533   2.320  1.3433  2.4179  0.0068
 7554TIP3   OH244152   0.247   3.557  14.530  0.5260 -0.1496 -0.0687
 7554TIP3    H144153   0.171   3.579  14.477 -0.0687  0.4221  1.0047
 7554TIP3    H244154   0.282   3.477  14.489 -0.7847 -0.5667 -0.4262
 7555TIP3   OH244155   3.538   4.577  11.148 -0.3561  0.0492 -0.1927
 7555TIP3    H144156   3.470   4.630  11.190  2.9090  2.4559  2.6498
 7555TIP3    H244157   3.563   4.514  11.216  1.3467  0.3559 -0.5005
 7556TIP3   OH244158   4.776   2.900   3.090  0.2085  0.1552  0.3489
 7556TIP3    H144159   4.753   2.952   3.166  1.8153  1.9764 -0.3330
 7556TIP3    H244160   4.854   2.851   3.116  0.1257 -0.0470  0.2214
 7557TIP3   OH244161   3.068   2.911   0.026 -0.1769  0.1469  0.5948
 7557TIP3    H144162   3.158   2.911   0.058 -0.3287  0.4714  1.0324
 7557TIP3    H244163   3.075   2.878  -0.064  0.4735  0.9130  0.3494
 7558TIP3   OH244164   2.217   0.159  16.553 -0.2138 -0.1940  0.3562
 7558TIP3    H144165   2.168   0.138  16.473  0.5291 -1.1688  0.1415
 7558TIP3    H244166   2.152   0.201  16.610 -0.8618  0.1307 -0.5871
 7559TIP3   OH244167   3.857   4.993  14.410  0.7065 -0.6019  0.6387
 7559TIP3    H144168   3.923   4.939  14.454  1.1146 -1.5454 -1.0368
 7559TIP3    H244169   3.904   5.073  14.387  0.8627 -0.6629  0.7417
 7560TIP3   OH244170   2.411   2.880  16.276 -0.3760  0.5216 -0.3538
 7560TIP3    H144171   2.426   2.955  16.218  0.0226  0.2046 -0.6682
 7560TIP3    H244172   2.411   2.804  16.217  0.8400  0.1097  0.1490
 7561TIP3   OH244173   2.904   0.332  11.689 -0.5340  0.0009  0.4300
 7561TIP3    H144174   2.991   0.372  11.681 -0.7313  0.6016  1.1702
 7561TIP3    H244175   2.853   0.370  11.618  0.0274 -0.9964 -0.5489
 7562TIP3   OH244176   5.939   6.443   3.040  0.2946 -0.3031 -0.0581
 7562TIP3    H144177   6.017   6.486   3.006 -0.1819  1.6400  1.1627
 7562TIP3    H244178   5.971   6.385   3.109  0.7472 -0.3086 -0.2715
 7563TIP3   OH244179   2.808   0.634  11.896  0.2483  0.3172 -0.2417
 7563TIP3    H144180   2.720   0.621  11.859  0.4193  0.9092 -0.8727
 7563TIP3    H244181   2.848   0.700  11.840  1.3068 -0.3534 -0.2938
 7564TIP3   OH244182   0.316   1.086  11.777  0.4467 -0.2508 -0.2124
 7564TIP3    H144183   0.294   1.003  11.734  1.3185 -0.3755 -0.4342
 7564TIP3    H244184   0.241   1.103  11.834 -1.0597  0.2370 -2.2028
 7565TIP3   OH244185   5.257   2.046  16.259  0.0895 -0.3002  0.3421
 7565TIP3    H144186   5.323   2.029  16.326  0.2867  1.7912  0.7482
 7565TIP3    H244187   5.178   2.067  16.309 -0.8311 -2.3176 -0.1423
 7566TIP3   OH244188   0.495   3.509  13.265  0.0090  0.4351 -0.3886
 7566TIP3    H144189   0.464   3.599  13.256 -0.6185  0.1348 -1.3476
 7566TIP3    H244190   0.472   3.467  13.183  0.5538 -0.5333 -0.0630
 7567TIP3   OH244191   0.975   5.852  11.381 -0.3401  0.7893  0.1891
 7567TIP3    H144192   0.940   5.853  11.292  0.3551  2.7336 -0.0981
 7567TIP3    H244193   0.899   5.874  11.436 -0.4981  0.8283 -0.0415
 7568TIP3   OH244194   6.457   3.532  14.493  0.2438 -0.2597  0.5894
 7568TIP3    H144195   6.399   3.568  14.561  1.0038  0.1298  1.0480
 7568TIP3    H244196   6.514   3.472  14.540  0.1943 -0.6693  0.1315
 7569TIP3   OH244197   4.696   1.925   3.154  0.3725 -0.0616 -0.1958
 7569TIP3    H144198   4.713   1.914   3.248  0.3811  0.4252 -0.1371
 7569TIP3    H244199   4.640   2.003   3.150 -0.6717 -0.8073 -0.4903
 7570TIP3   OH244200   4.334   3.692   2.566 -0.2741 -0.3409  0.1438
 7570TIP3    H144201   4.334   3.762   2.631  1.9767  0.5161 -0.6834
 7570TIP3    H244202   4.241   3.671   2.552 -0.8968  0.9906  1.9454
 7571TIP3   OH244203   4.095   2.330   3.906 -0.6051  0.0603  0.6976
 7571TIP3    H144204   4.093   2.400   3.971 -1.0512  0.5858  0.1408
 7571TIP3    H244205   4.093   2.376   3.822 -1.1642 -0.6293  0.3237
 7572TIP3   OH244206   3.460   4.395   2.897 -0.2408  0.0949  0.1090
 7572TIP3    H144207   3.416   4.357   2.973  1.4748 -2.1835  0.0648
 7572TIP3    H244208   3.437   4.488   2.900 -1.6799 -0.2580  2.3636
 7573TIP3   OH244209   2.499   3.169   3.973 -0.2803 -0.2236  0.1319
 7573TIP3    H144210   2.473   3.235   4.038 -0.4199 -0.8531  0.7336
 7573TIP3    H244211   2.481   3.085   4.016  1.0119 -0.6737 -0.1419
 7574TIP3   OH244212   0.270   4.654  14.997 -0.6938  0.0249 -0.6213
 7574TIP3    H144213   0.355   4.679  15.035 -1.1014  0.8722 -0.2497
 7574TIP3    H244214   0.239   4.583  15.053  0.1300 -0.8336 -1.2343
 7575TIP3   OH244215   2.947   2.752  15.142  0.1770 -0.6728  0.2656
 7575TIP3    H144216   2.991   2.750  15.227 -0.1976  0.3579  0.5073
 7575TIP3    H244217   2.855   2.737  15.162  0.4648 -3.9793 -0.3548
 7576TIP3   OH244218   2.109   0.584   2.046 -0.6502  0.1709  0.2541
 7576TIP3    H144219   2.025   0.554   2.011 -0.3777 -0.1428 -0.1475
 7576TIP3    H244220   2.092   0.671   2.081 -1.5171 -0.5227  1.6326
 7577TIP3   OH244221   0.698   1.405  15.617 -0.3306  0.2191  0.2845
 7577TIP3    H144222   0.729   1.341  15.552 -1.3290 -0.0171  0.0232
 7577TIP3    H244223   0.741   1.380  15.698 -0.0273 -0.2433 -0.0153
 7578TIP3   OH244224   3.631   4.964  10.943  0.3916  0.4126  0.1081
 7578TIP3    H144225   3.658   4.909  10.870  0.0920 -0.3811  0.5719
 7578TIP3    H244226   3.681   5.044  10.934  0.7561  0.1008 -0.6558
 7579TIP3   OH244227   0.477   1.157   2.425 -0.1214 -0.3707  0.2861
 7579TIP3    H144228   0.556   1.171   2.476 -1.4100  0.7507  2.0764
 7579TIP3    H244229   0.444   1.072   2.455 -1.2713  0.6149  1.9761
 7580TIP3   OH244230   3.147   2.215   1.665 -0.6514 -0.4201 -0.1541
 7580TIP3    H144231   3.057   2.242   1.648 -0.1240  2.3191  0.7757
 7580TIP3    H244232   3.181   2.187   1.580 -2.3149 -1.4185 -0.5217
 7581TIP3   OH244233   4.198   4.107   1.246 -0.4928 -0.1983  0.4708
 7581TIP3    H144234   4.183   4.153   1.164  0.3406 -3.1714 -1.5111
 7581TIP3    H244235   4.113   4.106   1.289 -1.1879  0.5943 -0.8148
 7582TIP3   OH244236   5.112   0.017   5.153 -0.4683 -0.2326 -0.0183
 7582TIP3    H144237   5.051   0.056   5.090 -0.7779  0.6427  0.7946
 7582TIP3    H244238   5.078   0.044   5.238  1.5348  1.0324  0.4412
 7583TIP3   OH244239   2.311   1.443   2.740  0.4893 -0.4859  0.3898
 7583TIP3    H144240   2.228   1.438   2.788  1.1296  1.9043  1.8702
 7583TIP3    H244241   2.315   1.360   2.692 -3.0546 -0.4300 -0.2797
 7584TIP3   OH244242   5.772   3.666   5.738  0.1183  0.0823  0.1265
 7584TIP3    H144243   5.695   3.656   5.794 -0.9885  1.0967 -1.1486
 7584TIP3    H244244   5.797   3.758   5.748  0.8881 -0.1216  0.1564
 7585TIP3   OH244245   4.066   5.535  13.516 -0.1576  0.1469 -0.0509
 7585TIP3    H144246   4.069   5.549  13.422 -1.1461 -1.3497 -0.3474
 7585TIP3    H244247   4.157   5.539  13.545  0.3623 -1.2125 -1.3871
 7586TIP3   OH244248   0.519   6.814   0.497  0.1943 -0.2064 -0.4793
 7586TIP3    H144249   0.550   6.768   0.575 -1.2842 -1.3217 -0.5144
 7586TIP3    H244250   0.518   6.906   0.524  0.0961 -0.5271  0.6879
 7587TIP3   OH244251   4.392   6.813  12.024  0.2511  0.6130  0.1078
 7587TIP3    H144252   4.402   6.843  12.114 -0.9297 -3.4677  1.8078
 7587TIP3    H244253   4.307   6.848  11.997 -0.4554  0.0323  1.4746
 7588TIP3   OH244254   4.601   4.661  14.172 -0.0166 -0.0440 -0.1674
 7588TIP3    H144255   4.521   4.704  14.140  0.1161  0.1709 -0.2139
 7588TIP3    H244256   4.573   4.617  14.253  0.0519  0.9167  0.3978
 7589TIP3   OH244257   1.035   4.486   5.917 -0.1064  0.0944  0.7111
 7589TIP3    H144258   0.955   4.537   5.908 -0.7979 -1.3145 -3.8910
 7589TIP3    H244259   1.097   4.546   5.959 -1.9963  3.2759 -0.6663
 7590TIP3   OH244260   2.762   2.626   0.884 -0.2250 -0.0940  0.0589
 7590TIP3    H144261   2.807   2.682   0.948  2.3617 -1.1080 -0.7412
 7590TIP3    H244262   2.673   2.661   0.880  0.1200  1.3221  2.6181
 7591TIP3   OH244263   1.997   1.001   3.893  0.1190 -0.3577 -0.5437
 7591TIP3    H144264   1.987   1.054   3.813 -0.2888  1.3340  0.5710
 7591TIP3    H244265   1.912   0.959   3.904  0.7496 -2.1757 -1.9933
 7592TIP3   OH244266   0.216   1.670   5.588  0.0181 -0.0195  0.1390
 7592TIP3    H144267   0.189   1.732   5.520  0.2504  0.5805  0.5888
 7592TIP3    H244268   0.272   1.607   5.543  0.1755  0.3781 -0.2240
 7593TIP3   OH244269   0.900   2.334   4.400  0.3538 -0.0144  0.0264
 7593TIP3    H144270   0.894   2.321   4.495 -0.0308 -0.6143 -0.0759
 7593TIP3    H244271   0.993   2.348   4.384  0.2083  1.9841  0.7167
 7594TIP3   OH244272   2.477   3.172  10.512 -0.3979  0.4379 -0.0830
 7594TIP3    H144273   2.431   3.111  10.570 -1.4157  0.5625 -0.7222
 7594TIP3    H244274   2.500   3.246  10.568  1.0566 -0.6064  0.7559
 7595TIP3   OH244275   0.612   0.563  14.721  0.2889 -0.9159  0.3897
 7595TIP3    H144276   0.522   0.594  14.732 -0.1840 -1.4371 -1.6219
 7595TIP3    H244277   0.665   0.628  14.766 -0.8418  1.4455 -1.4421
 7596TIP3   OH244278   0.100   5.784  16.730 -0.5236  0.5354  0.5265
 7596TIP3    H144279   0.097   5.691  16.753  1.2561  0.6676  1.4217
 7596TIP3    H244280   0.146   5.788  16.647 -0.6118  0.6251  0.4809
 7597TIP3   OH244281   4.259   2.055   5.489  0.6714  0.6127 -0.3685
 7597TIP3    H144282   4.309   1.976   5.511  0.5964  0.8817  0.8320
 7597TIP3    H244283   4.297   2.085   5.406  0.7649 -0.6213 -0.7863
 7598TIP3   OH244284   3.906   3.934   6.759 -0.0253  0.6804 -0.8156
 7598TIP3    H144285   3.941   3.893   6.680  2.7873 -0.4884  0.8943
 7598TIP3    H244286   3.837   3.874   6.789 -0.3375  0.5654 -1.7338
 7599TIP3   OH244287   4.257   6.790  13.585  0.4041  0.2809  0.3525
 7599TIP3    H144288   4.240   6.778  13.678 -0.6318 -0.4598  0.0887
 7599TIP3    H244289   4.297   6.708  13.556  1.0535  0.6391  0.2098
 7600TIP3   OH244290   5.622   1.886  16.103  0.2352 -0.3530 -0.4180
 7600TIP3    H144291   5.700   1.898  16.157  0.4502  1.6920 -1.1041
 7600TIP3    H244292   5.648   1.821  16.038  1.5435  0.5954 -0.8995
 7601TIP3   OH244293   5.582   6.540   6.149  0.0131  0.2503 -0.0983
 7601TIP3    H144294   5.641   6.610   6.178  0.4938 -0.4490  0.6518
 7601TIP3    H244295   5.553   6.568   6.063  1.4070  0.6395 -0.4665
 7602TIP3   OH244296   5.083   2.934   3.100 -0.0802 -0.0108  0.0590
 7602TIP3    H144297   5.102   2.852   3.147  0.2240  0.2280  0.3584
 7602TIP3    H244298   5.124   2.922   3.014 -0.0979 -0.1976  0.0744
 7603TIP3   OH244299   1.096   4.506   5.664 -0.1406  0.7052  0.4039
 7603TIP3    H144300   1.167   4.566   5.687 -0.2014  0.3721  1.5590
 7603TIP3    H244301   1.063   4.475   5.749 -1.3670  0.5097 -0.1268
 7604TIP3   OH244302   0.891   1.567  12.825 -0.1595  0.0933  0.1748
 7604TIP3    H144303   0.890   1.523  12.740 -0.4837 -1.1542  0.7963
 7604TIP3    H244304   0.814   1.623  12.824 -1.2245 -1.3177  0.3251
 7605TIP3   OH244305   1.770   1.299   4.656 -0.3679 -0.1172 -0.3788
 7605TIP3    H144306   1.849   1.247   4.643 -0.4314 -0.2597 -0.2051
 7605TIP3    H244307   1.729   1.261   4.734 -0.0186  0.6912  0.2067
 7606TIP3   OH244308   4.824   1.416  14.931  0.0869 -0.0908 -0.5523
 7606TIP3    H144309   4.877   1.496  14.924 -0.9680  0.4888 -2.3923
 7606TIP3    H244310   4.767   1.433  15.006  0.3782  0.5641 -0.4637
 7607TIP3   OH244311   1.783   1.782   5.604  0.0019 -0.6883  0.0572
 7607TIP3    H144312   1.850   1.836   5.646 -0.0277  2.5135 -3.5067
 7607TIP3    H244313   1.702   1.807   5.647  0.3028  0.3924  0.0224
 7608TIP3   OH244314   4.098   1.645   2.617 -0.5875 -0.3789 -1.3652
 7608TIP3    H144315   4.117   1.739   2.618  2.8106 -0.8131  2.3792
 7608TIP3    H244316   4.025   1.635   2.678  1.0126 -0.2729  0.6788
 7609TIP3   OH244317   0.758   1.096  15.767 -0.3388  0.0943 -0.5940
 7609TIP3    H144318   0.670   1.079  15.801 -0.0639 -1.4100 -0.5715
 7609TIP3    H244319   0.787   1.174  15.814 -2.0246  1.2198 -1.3228
 7610TIP3   OH244320   1.130   3.650  14.911 -0.1520 -0.0794 -0.6594
 7610TIP3    H144321   1.090   3.636  14.997  0.0527  0.9448 -0.3746
 7610TIP3    H244322   1.075   3.601  14.850 -0.3014 -0.8142  0.0573
 7611TIP3   OH244323   3.131   1.954  11.919 -0.3407  0.0439 -0.6243
 7611TIP3    H144324   3.164   1.879  11.968 -0.9002  0.6574  0.7279
 7611TIP3    H244325   3.172   2.030  11.960 -1.7267  0.6565 -0.3174
 7612TIP3   OH244326   2.907   5.864  12.693  0.4803 -0.2082  0.1903
 7612TIP3    H144327   2.964   5.885  12.767  0.7531 -2.5697  0.7144
 7612TIP3    H244328   2.830   5.823  12.732  1.0628 -2.4156 -0.7863
 7613TIP3   OH244329   6.180   2.001  11.073 -0.0432 -0.3441  0.8986
 7613TIP3    H144330   6.244   2.054  11.026  1.1757 -2.0637  0.5148
 7613TIP3    H244331   6.163   2.049  11.154 -0.2719  1.4146 -0.1293
 7614TIP3   OH244332   0.994   0.555   1.161 -0.2299 -0.0175  0.0719
 7614TIP3    H144333   0.949   0.637   1.181  2.1703  1.6822 -1.0656
 7614TIP3    H244334   0.971   0.497   1.233 -0.8490  2.1295  1.6912
 7615TIP3   OH244335   2.581   2.008  15.181 -0.0825  0.9839  0.0421
 7615TIP3    H144336   2.674   1.996  15.162  0.0095 -1.1465  1.3714
 7615TIP3    H244337   2.570   1.966  15.267 -2.2760  1.1735 -0.1092
 7616TIP3   OH244338   4.775   0.055   2.223  0.2249 -0.2468 -0.7157
 7616TIP3    H144339   4.723   0.007   2.159 -0.7679  2.2921 -1.9514
 7616TIP3    H244340   4.802  -0.011   2.288 -1.8391 -2.2151 -1.7564
 7617TIP3   OH244341   6.117   6.145  12.724  0.6238 -0.0092  0.5892
 7617TIP3    H144342   6.118   6.186  12.638 -1.7862  1.3863  1.1411
 7617TIP3    H244343   6.063   6.066  12.712  0.4588  0.0758  0.7694
 7618TIP3   OH244344   3.813   0.390  15.461  0.4465  0.3164  0.2731
 7618TIP3    H144345   3.742   0.325  15.461  0.1546  0.6363 -0.2150
 7618TIP3    H244346   3.847   0.387  15.551  1.6992 -1.8961 -0.2115
 7619TIP3   OH244347   4.827   3.510   1.150 -0.4930 -0.2254 -0.0590
 7619TIP3    H144348   4.831   3.415   1.164  1.1215 -0.2418 -0.4590
 7619TIP3    H244349   4.778   3.520   1.069 -1.1266 -0.6782  0.2597
 7620TIP3   OH244350   2.707   4.961   5.998  0.0617 -0.1697 -0.2152
 7620TIP3    H144351   2.745   4.926   6.078  1.5891  1.8428  0.0428
 7620TIP3    H244352   2.779   5.009   5.957 -1.8213  2.8043 -0.3628
 7621TIP3   OH244353   1.589   3.342   1.026 -0.2755  0.0384 -0.3325
 7621TIP3    H144354   1.679   3.314   1.007 -0.8234 -0.8166 -1.9325
 7621TIP3    H244355   1.571   3.409   0.960 -1.2348 -0.7755 -0.9373
 7622TIP3   OH244356   1.673   3.304  11.757  0.3132 -0.0353 -0.2740
 7622TIP3    H144357   1.644   3.235  11.697 -3.3411  0.4044  0.7263
 7622TIP3    H244358   1.621   3.290  11.836 -0.0645  3.3619  0.2500
 7623TIP3   OH244359   5.860   0.025  14.056 -0.5350  0.2593  0.3425
 7623TIP3    H144360   5.788   0.065  14.104 -1.0988  1.4556 -1.3869
 7623TIP3    H244361   5.929   0.092  14.056  0.4059 -0.6552  1.4968
 7624TIP3   OH244362   0.334   1.072   1.296 -0.2756 -0.4041  0.1411
 7624TIP3    H144363   0.429   1.064   1.288  0.0016 -2.3821  3.4226
 7624TIP3    H244364   0.299   1.004   1.238  0.3085 -0.0992 -0.5893
 7625TIP3   OH244365   1.546   4.633   4.672 -0.4051 -0.8248 -0.3819
 7625TIP3    H144366   1.553   4.591   4.758 -0.7857  0.0359  0.0787
 7625TIP3    H244367   1.465   4.598   4.635 -1.7822  0.8790  0.8110
 7626TIP3   OH244368   4.279   2.229   3.050 -0.4373 -0.2175  0.5152
 7626TIP3    H144369   4.237   2.230   3.136 -1.8241 -0.9105 -0.1132
 7626TIP3    H244370   4.245   2.307   3.005  3.2368  2.4084  1.8371
 7627TIP3   OH244371   4.831   0.793   4.665  0.3311  0.1565 -0.1393
 7627TIP3    H144372   4.821   0.748   4.749  0.1306  0.1517 -0.1662
 7627TIP3    H244373   4.753   0.848   4.658  1.6123  2.2323  0.9502
 7628TIP3   OH244374   4.231   4.460  15.227  0.1277 -0.5691  0.0791
 7628TIP3    H144375   4.290   4.514  15.281  0.8217 -2.7115  1.6081
 7628TIP3    H244376   4.145   4.471  15.268 -0.3671  1.5846 -1.3982
 7629TIP3   OH244377   0.212   2.783   4.854 -0.0451  0.3263 -0.1317
 7629TIP3    H144378   0.183   2.805   4.942  0.6749 -0.5735  0.3579
 7629TIP3    H244379   0.266   2.705   4.866  0.1952  0.2836 -1.3542
 7630TIP3   OH244380   1.366   2.219  12.973 -0.1069  0.2734  0.2078
 7630TIP3    H144381   1.415   2.142  13.002  1.2969  0.8424 -0.5353
 7630TIP3    H244382   1.282   2.213  13.019 -0.1644 -1.8503 -0.0674
 7631TIP3   OH244383   1.656   2.204  12.739  0.0711  0.3848 -0.1699
 7631TIP3    H144384   1.648   2.111  12.720  1.1875  0.3241 -0.4342
 7631TIP3    H244385   1.660   2.246  12.653  1.6997  0.4419 -0.1082
 7632TIP3   OH244386   4.182   1.930   6.578 -0.1105  0.1701 -0.3690
 7632TIP3    H144387   4.189   2.009   6.630 -1.8434  0.3636 -0.3587
 7632TIP3    H244388   4.133   1.957   6.500 -2.5786 -1.2432  0.5741
 7633TIP3   OH244389   2.496   4.307  15.920 -0.3661  0.2746  0.1759
 7633TIP3    H144390   2.504   4.393  15.962  2.7609 -0.6997  1.8661
 7633TIP3    H244391   2.466   4.249  15.990  1.0988 -0.6475  0.0751
 7634TIP3   OH244392   1.318   6.373  11.682 -0.2540  0.1902  0.0692
 7634TIP3    H144393   1.232   6.348  11.648 -0.9919  1.5430  0.8329
 7634TIP3    H244394   1.299   6.412  11.767  1.4433 -2.1498  1.6109
 7635TIP3   OH244395   5.197   0.274   6.629 -0.3585  0.7780  0.6470
 7635TIP3    H144396   5.236   0.358   6.603  0.1034  0.6713  0.9851
 7635TIP3    H244397   5.103   0.284   6.609  0.0036  0.5624 -1.4295
 7636TIP3   OH244398   5.942   2.763  16.850  0.2658 -0.5905 -0.3068
 7636TIP3    H144399   6.008   2.770  16.781  0.3598  1.3950 -0.0512
 7636TIP3    H244400   5.860   2.747  16.802  0.2902  1.0116 -0.9306
 7637TIP3   OH244401   0.756   2.147   4.226 -0.3933  0.2831 -0.2133
 7637TIP3    H144402   0.699   2.104   4.290  0.0576 -1.1119 -0.7127
 7637TIP3    H244403   0.802   2.213   4.277  0.0070 -0.8424  0.9492
 7638TIP3   OH244404   4.032   4.216  15.855 -0.0969 -0.0299 -0.2393
 7638TIP3    H144405   4.001   4.150  15.794 -0.6559  1.3602 -1.5265
 7638TIP3    H244406   4.116   4.183  15.886 -0.1350 -1.0976 -1.2072
 7639TIP3   OH244407   5.192   6.204   5.553 -0.1177 -0.3203  0.0898
 7639TIP3    H144408   5.119   6.204   5.491  1.4625  2.2991 -1.9867
 7639TIP3    H244409   5.167   6.268   5.619  0.1155  0.2669 -0.3886
 7640TIP3   OH244410   1.104   2.506  14.353 -0.3078  0.1219  0.2588
 7640TIP3    H144411   1.151   2.423  14.351  0.3762  0.4934  0.6798
 7640TIP3    H244412   1.101   2.529  14.446 -0.5618  0.5374  0.1511
 7641TIP3   OH244413   1.724   0.510  11.716 -0.4122 -0.8903 -0.0932
 7641TIP3    H144414   1.680   0.571  11.775  0.8496 -2.9584  3.2858
 7641TIP3    H244415   1.670   0.432  11.718  1.3354 -2.1482  1.1435
 7642TIP3   OH244416   2.527   6.481   3.995 -0.6053  0.2222 -0.4824
 7642TIP3    H144417   2.517   6.476   4.090 -2.7803  0.2706 -0.6500
 7642TIP3    H244418   2.599   6.422   3.975 -0.7942 -0.5926  1.1003
 7643TIP3   OH244419   5.988   4.760   6.856 -0.1876  0.2262  0.4107
 7643TIP3    H144420   5.941   4.700   6.798 -1.1382  2.3642 -1.1885
 7643TIP3    H244421   5.923   4.827   6.878  0.9742  0.9813  1.6662
 7644TIP3   OH244422   2.016   2.914   3.270  0.0236  0.5212 -0.3153
 7644TIP3    H144423   1.983   2.826   3.289 -0.8892  0.8424 -0.3970
 7644TIP3    H244424   2.032   2.913   3.175 -1.3713  0.8879 -0.5727
 7645TIP3   OH244425   4.048   0.362  14.779  0.0851 -0.2952 -0.4772
 7645TIP3    H144426   4.096   0.430  14.827  1.2246 -0.6322 -1.1040
 7645TIP3    H244427   3.995   0.411  14.715 -1.1624  0.1317  0.8425
 7646TIP3   OH244428   3.637   0.474  13.527 -0.0908  0.1683  0.2464
 7646TIP3    H144429   3.615   0.383  13.543 -1.3290  0.5107  0.5636
 7646TIP3    H244430   3.677   0.474  13.440 -1.2924 -0.5062 -0.3267
 7647TIP3   OH244431   3.089   0.584   5.555  0.0498 -0.8317 -0.0696
 7647TIP3    H144432   3.049   0.662   5.517 -0.3500 -1.0240 -0.0527
 7647TIP3    H244433   3.177   0.581   5.517 -1.1106 -2.3505 -2.9289
 7648TIP3   OH244434   2.637   6.279  17.116 -0.2661  0.7008  0.6565
 7648TIP3    H144435   2.542   6.275  17.122 -0.2631 -0.3145  0.1015
 7648TIP3    H244436   2.655   6.359  17.066 -0.8558  0.4493  0.0336
 7649TIP3   OH244437   2.571   0.448  16.990  0.0393 -0.2408  0.3360
 7649TIP3    H144438   2.615   0.533  16.989 -2.0875  0.9424 -0.7340
 7649TIP3    H244439   2.569   0.423  17.082  1.6413  0.3057  0.5523
 7650TIP3   OH244440   0.786   4.705   0.465 -0.0891 -0.0698 -0.0161
 7650TIP3    H144441   0.827   4.736   0.546  2.0279 -1.4851 -0.4931
 7650TIP3    H244442   0.798   4.777   0.403  0.1620  0.1898  0.3284
 7651TIP3   OH244443   6.727   2.541   1.661  0.4671  0.7446 -0.3287
 7651TIP3    H144444   6.697   2.629   1.680 -0.6773  0.0559  1.3486
 7651TIP3    H244445   6.787   2.520   1.732  1.5366  0.5273 -1.2723
 7652TIP3   OH244446   1.690   2.705  12.571  0.3074 -0.5273  0.0481
 7652TIP3    H144447   1.773   2.663  12.548  1.8486  1.1539  2.1071
 7652TIP3    H244448   1.693   2.713  12.666 -0.4943  2.9136 -0.0895
 7653TIP3   OH244449   6.760   5.590  13.003  0.2144  0.2387  0.6060
 7653TIP3    H144450   6.676   5.570  13.045 -1.1413  0.9756 -1.5707
 7653TIP3    H244451   6.751   5.680  12.973  0.7667 -0.4535 -1.8432
 7654TIP3   OH244452   5.938   0.624   2.943 -0.5889  0.5160  0.3938
 7654TIP3    H144453   5.871   0.556   2.938  0.3807 -0.3857 -0.8784
 7654TIP3    H244454   5.935   0.653   3.034 -2.2568  0.0613  0.5169
 7655TIP3   OH244455   2.242   2.275  13.564  0.4236  0.2813  0.5668
 7655TIP3    H144456   2.279   2.363  13.559  0.3411  0.2918  0.1089
 7655TIP3    H244457   2.207   2.259  13.477 -3.0731  1.3227  1.6248
 7656TIP3   OH244458   2.201   4.095  14.051 -0.1844  0.0890 -0.4963
 7656TIP3    H144459   2.120   4.145  14.051  0.4861  1.2060 -0.2408
 7656TIP3    H244460   2.230   4.094  14.142  0.0814 -0.3117 -0.5803
 7657TIP3   OH244461   5.744   6.410  13.596  0.1717  0.0282 -0.0636
 7657TIP3    H144462   5.826   6.447  13.563 -0.5992  0.4871 -1.5466
 7657TIP3    H244463   5.704   6.481  13.645 -0.4330  0.6024 -1.3472
 7658TIP3   OH244464   0.752   1.623   1.629  0.0517  0.5138  0.4348
 7658TIP3    H144465   0.772   1.533   1.605  1.1101  0.1724  2.4316
 7658TIP3    H244466   0.671   1.618   1.679  0.7442  0.4826  1.5844
 7659TIP3   OH244467   5.442   0.353  16.700 -0.2549 -0.5518  0.1821
 7659TIP3    H144468   5.521   0.303  16.721 -0.2079  0.4369  2.7172
 7659TIP3    H244469   5.370   0.301  16.738 -0.7025 -0.7119 -0.8329
 7660TIP3   OH244470   4.113   6.348  11.964 -0.1984  0.0900  0.2024
 7660TIP3    H144471   4.065   6.280  12.011 -1.2373  0.8272  0.2431
 7660TIP3    H244472   4.131   6.415  12.030 -0.3401  0.4467 -0.1150
 7661TIP3   OH244473   0.025   3.479  11.668 -0.1670 -0.3508  0.5309
 7661TIP3    H144474  -0.020   3.396  11.655  0.4564 -0.5406 -0.5521
 7661TIP3    H244475  -0.039   3.534  11.712 -1.7582 -0.3999 -1.5381
 7662TIP3   OH244476   1.698   2.900   0.586 -0.0757 -0.8110 -0.0466
 7662TIP3    H144477   1.606   2.878   0.600  0.2658 -1.9006  0.7299
 7662TIP3    H244478   1.744   2.816   0.598  1.1806  0.0297  1.4175
 7663TIP3   OH244479   1.982   6.413  13.036  0.3493  0.8641  0.2532
 7663TIP3    H144480   2.012   6.394  12.948 -0.4451 -0.4691  0.2416
 7663TIP3    H244481   1.929   6.493  13.027  1.5096  1.5977 -0.1951
 7664TIP3   OH244482   5.710   1.812  16.804 -0.2333  0.9173  0.8541
 7664TIP3    H144483   5.735   1.752  16.874  1.0364  0.3709 -0.0339
 7664TIP3    H244484   5.783   1.874  16.799  1.8694 -1.4928 -2.6806
 7665TIP3   OH244485   3.858   5.527  16.649  0.5027  0.2554  0.1606
 7665TIP3    H144486   3.867   5.571  16.565  0.8648 -0.2512 -0.0701
 7665TIP3    H244487   3.891   5.439  16.634  2.4920  0.7220  1.3287
 7666TIP3   OH244488   6.397   3.034  10.414  0.3246  0.3120  0.5164
 7666TIP3    H144489   6.481   3.062  10.453 -0.4909 -0.5184  3.0942
 7666TIP3    H244490   6.333   3.050  10.483 -1.0112 -2.8244  0.1562
 7667TIP3   OH244491   3.884   3.909   3.904  0.1528  0.0460  0.9429
 7667TIP3    H144492   3.843   3.915   3.818 -0.9415 -1.6574  1.3112
 7667TIP3    H244493   3.903   3.816   3.915 -0.4303  0.1134  2.8553
 7668TIP3   OH244494   2.178   1.175   6.110 -0.2618  0.5433  0.6103
 7668TIP3    H144495   2.133   1.092   6.096  1.7954 -0.4435 -0.3878
 7668TIP3    H244496   2.210   1.170   6.200  0.5823 -0.1126  0.2779
 7669TIP3   OH244497   4.873   5.228  17.102 -0.4314  0.0341 -0.0424
 7669TIP3    H144498   4.874   5.213  17.007  0.0606 -0.2151 -0.0023
 7669TIP3    H244499   4.939   5.168  17.136  1.5532  2.2121  0.1471
 7670TIP3   OH244500   6.030   3.995   3.228 -0.1324  0.5844  0.2114
 7670TIP3    H144501   6.089   4.071   3.229 -1.3451  1.6068 -0.9044
 7670TIP3    H244502   5.976   4.008   3.149 -1.1742 -0.8201  0.6467
 7671TIP3   OH244503   3.967   3.751   1.824 -0.0722  0.0111  0.2042
 7671TIP3    H144504   3.929   3.664   1.820 -0.9844  0.4003  0.3092
 7671TIP3    H244505   3.948   3.781   1.913 -0.7567  0.7584 -0.1835
 7672TIP3   OH244506   1.541   3.713  16.019  0.2405 -0.6584 -0.4384
 7672TIP3    H144507   1.504   3.660  16.090  0.7506  0.9515  1.0901
 7672TIP3    H244508   1.507   3.801  16.035  1.3011 -0.0293 -1.5228
 7673TIP3   OH244509   4.868   5.958  16.088 -0.0341 -0.0678 -0.0511
 7673TIP3    H144510   4.962   5.978  16.087  0.7530 -3.1561  1.3523
 7673TIP3    H244511   4.845   5.946  15.996  1.5027 -1.4029 -0.3029
 7674TIP3   OH244512   3.671   1.073  11.993  0.7294  0.1481  0.1881
 7674TIP3    H144513   3.675   1.020  11.913  0.6169  0.3169  0.0707
 7674TIP3    H244514   3.759   1.066  12.030  0.6588 -0.2928  0.2834
 7675TIP3   OH244515   0.988   3.029  14.578  0.2933  0.4576  0.3208
 7675TIP3    H144516   0.919   2.980  14.535  0.5855 -1.1869  1.5921
 7675TIP3    H244517   1.043   2.962  14.619  1.2401  1.8239  1.4038
 7676TIP3   OH244518   5.262   0.070   5.655 -0.0555  0.2157  0.3039
 7676TIP3    H144519   5.355   0.055   5.639  0.3083  1.4788  1.1183
 7676TIP3    H244520   5.220   0.045   5.573  1.0605  0.1937 -0.2839
 7677TIP3   OH244521   0.709   2.286   4.002 -0.3958  0.1967 -0.2316
 7677TIP3    H144522   0.728   2.371   4.043 -0.7044  0.0913  0.1374
 7677TIP3    H244523   0.741   2.222   4.065 -1.0144  0.0315 -0.0767
 7678TIP3   OH244524   4.367   1.237   2.087 -0.1432 -0.0624  0.7477
 7678TIP3    H144525   4.296   1.267   2.144 -0.9472 -0.5686  0.0303
 7678TIP3    H244526   4.410   1.317   2.057 -0.7777  0.2733  0.7274
 7679TIP3   OH244527   1.359   3.613  17.019 -0.2051  0.1951 -0.3003
 7679TIP3    H144528   1.440   3.642  17.060 -0.0966  1.9304 -1.6201
 7679TIP3    H244529   1.352   3.666  16.939 -1.2294 -1.8793 -1.6797
 7680TIP3   OH244530   4.588   1.500   3.257 -0.1021  0.5071  0.3256
 7680TIP3    H144531   4.517   1.555   3.226 -1.3894  0.0961  2.3411
 7680TIP3    H244532   4.548   1.414   3.271  1.4692 -0.5364 -1.1406
 7681TIP3   OH244533   3.638   6.324  16.858  0.3180  0.7113 -0.1768
 7681TIP3    H144534   3.691   6.403  16.846 -0.2372  0.9659 -1.0523
 7681TIP3    H244535   3.556   6.343  16.813 -1.0146  0.7797  2.1013
 7682TIP3   OH244536   3.889   0.176   1.325 -0.1192 -0.4491 -0.0539
 7682TIP3    H144537   3.878   0.145   1.235 -0.1791 -1.0955  0.1704
 7682TIP3    H244538   3.963   0.126   1.359  0.5031  0.4599 -0.0283
 7683TIP3   OH244539   6.378   5.346  13.589 -0.6035 -0.5247  0.2007
 7683TIP3    H144540   6.373   5.260  13.546 -1.4627 -0.7931  0.7991
 7683TIP3    H244541   6.315   5.340  13.661  3.0067 -1.2877  3.6083
 7684TIP3   OH244542   6.075   6.484  15.118  0.2793 -0.5296  0.1959
 7684TIP3    H144543   6.007   6.552  15.116  0.2669 -0.5249  0.6832
 7684TIP3    H244544   6.156   6.530  15.098  0.4343 -0.1624  1.5713
 7685TIP3   OH244545   3.024   4.493  14.465  0.0424  0.8061 -0.7644
 7685TIP3    H144546   3.052   4.482  14.555 -0.5195  2.0803 -0.4030
 7685TIP3    H244547   3.103   4.523  14.419  0.4568 -0.3372 -0.8230
 7686TIP3   OH244548   1.351   3.777  14.149  0.4168 -0.1172  0.8977
 7686TIP3    H144549   1.361   3.747  14.059  0.2979  0.3275  0.7371
 7686TIP3    H244550   1.264   3.816  14.152  0.5485  0.1640  1.1217
 7687TIP3   OH244551   4.164   0.397  15.404 -0.3403  0.0068  0.0891
 7687TIP3    H144552   4.173   0.332  15.474  3.9020 -0.7425 -0.8656
 7687TIP3    H244553   4.093   0.454  15.433 -1.5156 -2.6087  2.9574
 7688TIP3   OH244554   0.255   2.392   0.935 -0.1078 -0.3436 -0.8070
 7688TIP3    H144555   0.252   2.300   0.960  0.3147 -0.3937 -0.9350
 7688TIP3    H244556   0.231   2.440   1.014  0.5402 -0.5293 -0.4872
 7689TIP3   OH244557   3.534   2.255   3.568  0.0795 -0.2401 -0.0109
 7689TIP3    H144558   3.552   2.239   3.475 -0.1094 -2.7940  0.3258
 7689TIP3    H244559   3.568   2.343   3.584 -0.5141  0.5677 -2.6524
 7690TIP3   OH244560   2.547   2.096  14.004  0.1455  0.1335 -0.1320
 7690TIP3    H144561   2.494   2.135  13.935  2.9493  0.2771 -2.3928
 7690TIP3    H244562   2.511   2.133  14.085 -0.8707  3.0617 -1.7479
 7691TIP3   OH244563   6.417   4.084   1.846 -0.2571  0.2126  0.0485
 7691TIP3    H144564   6.481   4.015   1.861 -0.3268 -0.0205 -0.6779
 7691TIP3    H244565   6.417   4.135   1.927 -1.2239 -1.4452  1.1446
 7692TIP3   OH244566   6.012   6.421  13.006  0.0123 -0.0111  0.5215
 7692TIP3    H144567   5.994   6.515  13.010  0.6596  0.1557 -0.2647
 7692TIP3    H244568   6.052   6.401  13.090 -1.3680  0.1300  1.2417
 7693TIP3   OH244569   0.228   2.570  11.345 -0.6565  0.3142 -0.4913
 7693TIP3    H144570   0.306   2.521  11.372 -1.3792 -0.3889  0.3829
 7693TIP3    H244571   0.257   2.661  11.342 -0.3785  0.4340  2.3747
 7694TIP3   OH244572   4.215   3.244   0.410 -0.0350 -0.0693 -0.3349
 7694TIP3    H144573   4.265   3.310   0.458  0.4121 -0.5357 -0.1412
 7694TIP3    H244574   4.258   3.161   0.432 -0.3296 -0.3799 -0.8975
 7695TIP3   OH244575   3.977   0.693  14.825 -0.1982  0.2320  0.0847
 7695TIP3    H144576   4.058   0.715  14.870 -0.4251 -0.1387  0.6881
 7695TIP3    H244577   4.002   0.684  14.733  0.5580 -0.4031  0.3413
 7696TIP3   OH244578   2.643   0.585  14.935 -0.0456 -0.4300  0.9038
 7696TIP3    H144579   2.588   0.526  14.986 -0.5055  0.6527  1.7051
 7696TIP3    H244580   2.720   0.600  14.990  0.3576 -0.7550  0.4360
 7697TIP3   OH244581   0.315   0.910  14.492 -0.2833 -0.2385 -0.5953
 7697TIP3    H144582   0.354   0.906  14.580  0.1724  0.7386 -0.7394
 7697TIP3    H244583   0.337   0.826  14.452 -1.4617 -1.1740  0.6090
 7698TIP3   OH244584   0.838   0.525  16.253 -0.3269 -0.4687 -0.5369
 7698TIP3    H144585   0.918   0.562  16.217  0.3884 -1.3527  0.0979
 7698TIP3    H244586   0.796   0.598  16.299  1.3893 -0.5395  1.2855
 7699TIP3   OH244587   0.205   1.863   2.938  0.2419  0.2560 -0.7180
 7699TIP3    H144588   0.119   1.904   2.944  1.1045  2.1203 -0.3249
 7699TIP3    H244589   0.210   1.830   2.848 -1.4589 -1.3727 -0.2856
 7700TIP3   OH244590   3.389   2.071  15.577 -0.3811 -0.2652 -0.3887
 7700TIP3    H144591   3.331   2.006  15.618 -0.3254  0.2389  0.5154
 7700TIP3    H244592   3.430   2.116  15.651  0.3710  0.0966 -1.0185
 7701TIP3   OH244593   2.023   4.857   2.910 -0.2297  0.3809 -0.2289
 7701TIP3    H144594   2.015   4.804   2.831 -0.9280  1.1982 -0.7270
 7701TIP3    H244595   2.115   4.879   2.916 -0.2574  0.7453 -1.1061
 7702TIP3   OH244596   2.386   2.387   4.315 -0.3081 -0.7268 -0.2382
 7702TIP3    H144597   2.327   2.410   4.243  1.2257  0.9748 -1.0355
 7702TIP3    H244598   2.417   2.299   4.293 -0.2935 -0.4492 -1.3869
 7703TIP3   OH244599   2.351   0.812  12.776  0.4245 -0.5066 -0.2352
 7703TIP3    H144600   2.410   0.801  12.702  1.6509 -0.2368  0.6798
 7703TIP3    H244601   2.369   0.900  12.809 -1.2372 -0.0105 -0.5682
 7704TIP3   OH244602   6.460   2.191  11.891 -0.0973 -0.0395 -0.2752
 7704TIP3    H144603   6.475   2.213  11.984  0.8879 -0.6407 -0.2703
 7704TIP3    H244604   6.439   2.275  11.850 -2.5133 -0.0223  0.8167
 7705TIP3   OH244605   0.511   2.335  11.946  0.2137 -0.4305 -0.6834
 7705TIP3    H144606   0.422   2.370  11.950  0.6768  0.7085  0.4015
 7705TIP3    H244607   0.565   2.412  11.929  1.1721 -0.7673  0.7281
 7706TIP3   OH244608   3.163   3.850  16.109  0.0279  0.2444 -0.3380
 7706TIP3    H144609   3.212   3.793  16.168 -1.3811  1.1126  1.7858
 7706TIP3    H244610   3.196   3.938  16.128 -0.1687  0.5043 -1.1615
 7707TIP3   OH244611   2.043   1.435   4.987  0.5695 -0.2430  0.2338
 7707TIP3    H144612   1.958   1.478   4.999 -0.3130 -1.1284 -2.2906
 7707TIP3    H244613   2.023   1.342   4.987  1.5803 -0.4732 -0.1187
 7708TIP3   OH244614   0.817   3.889  12.247 -0.1876  0.0057  0.0434
 7708TIP3    H144615   0.800   3.815  12.305 -0.4951 -0.8993 -1.1583
 7708TIP3    H244616   0.804   3.854  12.159  2.3016  0.7576 -0.7023
 7709TIP3   OH244617   5.456   2.590   5.067  0.3489 -0.2406  0.3055
 7709TIP3    H144618   5.396   2.556   5.001  0.0241  0.7132  0.0946
 7709TIP3    H244619   5.441   2.684   5.067  1.7742  0.0120  0.3302
 7710TIP3   OH244620   5.305   1.579   6.018  0.1459 -0.0567  0.4554
 7710TIP3    H144621   5.313   1.531   6.101 -0.2501 -0.6526  0.1621
 7710TIP3    H244622   5.282   1.668   6.044  0.2060 -0.1912  0.9925
 7711TIP3   OH244623   0.054   5.539  16.862 -0.4551  0.3127  0.6021
 7711TIP3    H144624  -0.040   5.525  16.856 -0.6777  1.7802  0.2767
 7711TIP3    H244625   0.092   5.452  16.850 -1.6634  0.0604 -2.1163
 7712TIP3   OH244626   0.462   5.684  10.535  0.1919 -0.0041 -0.4398
 7712TIP3    H144627   0.438   5.770  10.500  1.5328 -0.4252 -2.5479
 7712TIP3    H244628   0.528   5.704  10.602 -1.5613  0.7228  1.2038
 7713TIP3   OH244629   5.141   3.590   6.472  0.6835  0.4880  0.2874
 7713TIP3    H144630   5.180   3.626   6.552  1.0166  3.0406 -0.9306
 7713TIP3    H244631   5.060   3.641   6.461 -0.4339 -1.2588  0.0542
 7714TIP3   OH244632   5.413   2.814   3.768 -0.1292 -0.2863 -0.1475
 7714TIP3    H144633   5.458   2.756   3.706 -0.8655 -0.5438 -0.4453
 7714TIP3    H244634   5.454   2.899   3.754  1.8462 -0.9372  1.1672
 7715TIP3   OH244635   5.872   0.003  15.449 -0.0744 -0.3732  0.3520
 7715TIP3    H144636   5.937   0.038  15.387 -1.3137  0.5588 -0.4748
 7715TIP3    H244637   5.877  -0.092  15.438 -0.6123 -0.2282 -1.6239
 7716TIP3   OH244638   4.808   6.155  11.641  0.4508 -0.7145  0.3021
 7716TIP3    H144639   4.825   6.199  11.558 -0.4055 -0.7551  0.1023
 7716TIP3    H244640   4.895   6.130  11.672  0.9470  1.0148  0.3833
 7717TIP3   OH244641   3.668   4.914   2.925  0.0819  0.4477 -0.1241
 7717TIP3    H144642   3.637   4.888   2.838  0.0022 -0.9479  0.2988
 7717TIP3    H244643   3.589   4.941   2.972 -0.0590 -0.0576 -0.0672
 7718TIP3   OH244644   6.575   1.568  11.571  0.5165  0.0946 -0.2508
 7718TIP3    H144645   6.589   1.506  11.499  0.1400  0.8007 -0.9423
 7718TIP3    H244646   6.663   1.600  11.592  0.5543  0.4141 -0.8773
 7719TIP3   OH244647   5.528   0.673  14.374 -0.2860 -0.1202 -0.3603
 7719TIP3    H144648   5.460   0.741  14.377 -0.8446 -0.7195  0.8410
 7719TIP3    H244649   5.565   0.671  14.462 -0.1806 -1.2846 -0.4125
 7720TIP3   OH244650   6.335   3.184   5.700 -0.3964  0.0985  0.1360
 7720TIP3    H144651   6.330   3.271   5.737  1.7300  0.8612 -1.1468
 7720TIP3    H244652   6.253   3.172   5.653 -0.3035  1.8680 -0.5432
 7721TIP3   OH244653   5.552   6.741   1.060  0.0623 -0.0454  0.5686
 7721TIP3    H144654   5.528   6.766   1.149 -1.2750  1.3070 -0.1266
 7721TIP3    H244655   5.646   6.759   1.054 -0.2226  1.8167  1.1161
 7722TIP3   OH244656   0.170   1.046  13.188 -0.6482  0.2023  0.4326
 7722TIP3    H144657   0.170   1.008  13.276  0.5146 -0.3970  0.1928
 7722TIP3    H244658   0.254   1.019  13.150 -1.2961  0.1337 -1.0042
 7723TIP3   OH244659   0.046   4.766  13.972 -0.1248  0.4788 -0.1207
 7723TIP3    H144660   0.025   4.848  13.926 -2.5641 -0.3121 -0.5523
 7723TIP3    H244661   0.069   4.705  13.902 -1.6504 -0.1162 -0.1178
 7724TIP3   OH244662   3.513   4.578   3.140  0.4460  0.5313 -0.5045
 7724TIP3    H144663   3.554   4.645   3.195  1.0058 -0.8351  0.8417
 7724TIP3    H244664   3.553   4.496   3.170 -1.7659 -0.6430 -0.5612
 7725TIP3   OH244665   2.683   0.126   4.068  0.1889  0.8506 -0.4777
 7725TIP3    H144666   2.680   0.170   4.153  0.7184  0.9056 -0.4819
 7725TIP3    H244667   2.727   0.188   4.010  2.6394 -0.3450 -0.0380
 7726TIP3   OH244668   2.556   5.052   3.899  0.2388 -0.1267  0.3123
 7726TIP3    H144669   2.553   5.082   3.808 -1.0099 -0.5509  0.1958
 7726TIP3    H244670   2.518   5.124   3.950 -0.8248 -0.6348  0.2658
 7727TIP3   OH244671   1.921   5.234  14.511 -0.3102  0.5659 -0.0007
 7727TIP3    H144672   1.964   5.184  14.442  3.0300  0.3394  2.0421
 7727TIP3    H244673   1.953   5.324  14.499  0.9619  0.3736  1.6306
 7728TIP3   OH244674   6.241   4.317   0.953 -0.5158 -0.1402 -0.1228
 7728TIP3    H144675   6.292   4.385   0.910  0.7766 -1.4772 -0.8069
 7728TIP3    H244676   6.197   4.271   0.882 -0.8966 -0.3889  0.2666
 7729TIP3   OH244677   0.445   3.618   4.277 -0.1688  0.3399 -0.6604
 7729TIP3    H144678   0.402   3.565   4.344  2.0729 -0.3071  0.3824
 7729TIP3    H244679   0.447   3.706   4.315 -1.4260  0.6130 -1.1756
 7730TIP3   OH244680   5.317   4.703   7.065 -0.0116  0.1524  0.1841
 7730TIP3    H144681   5.354   4.628   7.111  3.0400  0.6331 -1.2372
 7730TIP3    H244682   5.309   4.675   6.974 -0.2896  1.0770 -0.0904
 7731TIP3   OH244683   0.354   5.733   3.978  0.1988 -0.2556  0.0456
 7731TIP3    H144684   0.394   5.808   3.934  0.7038 -0.4447  0.1653
 7731TIP3    H244685   0.421   5.664   3.972 -0.0204 -0.5077  0.4551
 7732TIP3   OH244686   0.488   2.683  13.851  0.0985  0.2205 -0.0116
 7732TIP3    H144687   0.466   2.706  13.761 -3.6152  0.4095  0.7815
 7732TIP3    H244688   0.541   2.756  13.883  0.0221  0.9714 -1.5389
 7733TIP3   OH244689   5.817   0.493  11.191 -0.0634 -0.7050  0.2110
 7733TIP3    H144690   5.841   0.496  11.098  1.0441 -1.7491  0.4514
 7733TIP3    H244691   5.866   0.419  11.227 -0.1514 -0.0619  1.7284
 7734TIP3   OH244692   4.739   6.044  13.109  0.3444  0.2830 -0.0786
 7734TIP3    H144693   4.665   5.982  13.113  0.8794 -0.3556  0.1224
 7734TIP3    H244694   4.778   6.039  13.196  0.3573  0.9628 -0.0430
 7735TIP3   OH244695   6.581   1.901   1.436  0.1034 -0.5223 -0.1716
 7735TIP3    H144696   6.603   1.936   1.350  3.0309  1.0485  1.0788
 7735TIP3    H244697   6.553   1.977   1.487 -2.5709 -1.5693  0.1075
 7736TIP3   OH244698   2.961   3.726   4.059  0.1890  0.0219  0.1908
 7736TIP3    H144699   2.988   3.755   3.971  0.7400 -1.1888 -0.0558
 7736TIP3    H244700   2.880   3.676   4.044 -0.8605  1.5099  0.6374
 7737TIP3   OH244701   1.152   6.780  10.938 -0.5666 -0.5345  0.8610
 7737TIP3    H144702   1.184   6.828  10.862 -0.5576 -1.5670  0.2006
 7737TIP3    H244703   1.210   6.806  11.010  0.8418 -1.2566  0.0122
 7738TIP3   OH244704   3.575   4.619   1.225 -0.3489 -0.4689  0.4472
 7738TIP3    H144705   3.594   4.684   1.158 -1.4211  0.4524  1.0134
 7738TIP3    H244706   3.653   4.564   1.228 -0.0290 -0.1400 -1.1005
 7739TIP3   OH244707   0.620   0.734   0.437 -0.2334 -0.1609  0.4828
 7739TIP3    H144708   0.695   0.712   0.382 -0.5662  2.1151 -0.9948
 7739TIP3    H244709   0.553   0.669   0.413  0.7616 -1.3744  0.8420
 7740TIP3   OH244710   2.892   5.872   5.117 -0.0943 -0.0314 -0.2345
 7740TIP3    H144711   2.899   5.937   5.187  0.0788 -0.4391  0.1323
 7740TIP3    H244712   2.844   5.800   5.156 -0.1678 -0.1812 -0.5998
 7741TIP3   OH244713   3.469   5.432  12.128 -0.2088  0.0789  1.1147
 7741TIP3    H144714   3.384   5.473  12.114 -0.4119 -0.4226  0.8476
 7741TIP3    H244715   3.449   5.340  12.143  0.3338 -0.1665  0.3825
 7742TIP3   OH244716   1.312   5.129   4.237  0.5219  0.3004  0.2902
 7742TIP3    H144717   1.303   5.219   4.205 -0.1199  0.2539  0.3330
 7742TIP3    H244718   1.362   5.085   4.168 -0.8893  0.1930 -0.7031
 7743TIP3   OH244719   5.918   5.400  12.304 -0.0698 -0.0495 -0.4164
 7743TIP3    H144720   5.927   5.405  12.399 -1.3540  0.3188 -0.2850
 7743TIP3    H244721   5.987   5.457  12.270 -0.1945  0.5731  0.3423
 7744TIP3   OH244722   1.336   5.571  16.414  0.0200  0.2613 -0.1067
 7744TIP3    H144723   1.362   5.583  16.506  0.7004 -1.1432 -0.0835
 7744TIP3    H244724   1.251   5.525  16.420  1.0548 -1.7720 -0.1226
 7745TIP3   OH244725   4.628   1.331  12.534  0.2351 -0.4465 -0.5966
 7745TIP3    H144726   4.561   1.366  12.592  0.7920  0.5959 -0.5651
 7745TIP3    H244727   4.588   1.334  12.447 -0.0467 -0.5935 -0.4744
 7746TIP3   OH244728   4.398   1.172   5.532 -0.0253 -0.3967  0.0572
 7746TIP3    H144729   4.479   1.157   5.484 -1.1177  1.4654 -2.6359
 7746TIP3    H244730   4.363   1.253   5.495 -0.8701  1.4910  4.3880
 7747TIP3   OH244731   6.308   1.027   4.212  0.2051  0.4140  0.0336
 7747TIP3    H144732   6.257   1.095   4.168  0.8849  0.6542 -0.3932
 7747TIP3    H244733   6.271   1.024   4.301 -2.3307 -1.2661 -0.9776
 7748TIP3   OH244734   0.005   1.138   2.218  0.1737  0.3415  0.0982
 7748TIP3    H144735  -0.038   1.131   2.132  0.0237  1.2793  0.0936
 7748TIP3    H244736   0.090   1.177   2.199  2.2463 -3.7491 -0.2533
 7749TIP3   OH244737   4.830   2.238   4.540 -0.2738 -0.0954  0.7583
 7749TIP3    H144738   4.888   2.218   4.613  0.2274  4.0922  1.7950
 7749TIP3    H244739   4.743   2.210   4.569 -0.0128  1.0608  2.8795
 7750TIP3   OH244740   3.337   5.223   4.877  0.2056 -0.3225 -0.5637
 7750TIP3    H144741   3.432   5.237   4.875  0.3394 -0.7759  1.1351
 7750TIP3    H244742   3.322   5.174   4.957 -1.3951 -0.9642 -1.2137
 7751TIP3   OH244743   6.506   2.666  14.904 -0.9202  0.2616 -0.2663
 7751TIP3    H144744   6.551   2.595  14.951  0.5559  0.6494 -1.0303
 7751TIP3    H244745   6.451   2.707  14.971 -0.5635 -0.5926  0.5786
 7752TIP3   OH244746   2.219   4.371   1.754  0.1860  1.2975 -0.2054
 7752TIP3    H144747   2.189   4.430   1.685 -2.0985  0.5810  0.0978
 7752TIP3    H244748   2.250   4.294   1.707 -0.8874  1.0185 -0.4799
 7753TIP3   OH244749   2.986   4.108  13.295  0.6752  0.0632 -0.1600
 7753TIP3    H144750   3.046   4.129  13.367 -0.1450 -0.4600  0.6919
 7753TIP3    H244751   2.916   4.059  13.336  0.2683 -0.3821 -1.3593
 7754TIP3   OH244752   0.267   5.352  13.626  0.1756  0.0185  0.3262
 7754TIP3    H144753   0.263   5.426  13.687  1.3430  0.6614 -0.3513
 7754TIP3    H244754   0.356   5.318  13.635  0.1613 -0.2801 -0.5462
 7755TIP3   OH244755   3.457   3.056   1.543  0.7469 -0.1059  0.0409
 7755TIP3    H144756   3.513   3.003   1.599  0.8130  1.4004  1.4548
 7755TIP3    H244757   3.513   3.080   1.469  1.2214 -0.6014  0.2348
 7756TIP3   OH244758   6.200   1.976  13.490  0.6332 -0.6611 -0.0960
 7756TIP3    H144759   6.273   1.979  13.552  0.1190  0.9650  0.4925
 7756TIP3    H244760   6.128   2.020  13.535  0.1811  0.4213 -1.7528
 7757TIP3   OH244761   6.342   3.571   4.668 -0.3240 -0.3250  0.3766
 7757TIP3    H144762   6.284   3.583   4.743 -1.3710 -1.2878 -0.2369
 7757TIP3    H244763   6.417   3.628   4.685 -1.4413  0.9570  1.2137
 7758TIP3   OH244764   3.520   2.295   1.868  0.1142  0.1868  0.1128
 7758TIP3    H144765   3.614   2.286   1.886  0.0013  0.7397  1.0110
 7758TIP3    H244766   3.481   2.318   1.952 -0.5498  1.9917 -0.6318
 7759TIP3   OH244767   2.022   6.333   4.724 -0.3964  0.3453 -0.4293
 7759TIP3    H144768   2.004   6.399   4.791 -0.4284  0.4020 -0.4944
 7759TIP3    H244769   1.936   6.301   4.697 -0.3507 -0.7264  0.6090
 7760TIP3   OH244770   1.728   3.646   2.261  0.1776 -0.6217  0.1623
 7760TIP3    H144771   1.782   3.710   2.215  0.4970 -0.5734  0.5975
 7760TIP3    H244772   1.768   3.561   2.239 -1.3028 -0.8743 -1.8810
 7761TIP3   OH244773   6.350   4.790  13.543 -0.1605  0.2012 -0.3558
 7761TIP3    H144774   6.337   4.806  13.637  0.3410 -0.5681 -0.1412
 7761TIP3    H244775   6.326   4.698  13.531 -1.3017  0.6001 -1.2055
 7762TIP3   OH244776   1.459   1.989  15.307  0.0932 -0.1760 -0.1246
 7762TIP3    H144777   1.422   1.998  15.219  0.0353 -0.2885 -0.1112
 7762TIP3    H244778   1.409   2.050  15.361 -1.3972 -1.7189  0.3215
 7763TIP3   OH244779   3.298   0.001   0.740  0.3497 -0.4083 -0.1380
 7763TIP3    H144780   3.257   0.000   0.654 -0.1246 -1.3090  0.0843
 7763TIP3    H244781   3.321   0.093   0.755 -1.6840  0.1630 -0.2230
 7764TIP3   OH244782   4.291   4.644   1.860  0.4942  0.4783  0.6706
 7764TIP3    H144783   4.257   4.691   1.936  0.0199 -0.7500  1.2483
 7764TIP3    H244784   4.371   4.692   1.836  0.5986  0.9540  1.8828
 7765TIP3   OH244785   1.603   4.906  15.267 -0.5037 -0.6041  0.3038
 7765TIP3    H144786   1.525   4.855  15.246 -1.5013 -0.1075  2.4588
 7765TIP3    H244787   1.572   4.997  15.271  0.0647 -0.4386  1.5597
 7766TIP3   OH244788   4.058   1.961  11.417  0.1824  0.0929 -0.3153
 7766TIP3    H144789   4.054   2.023  11.491 -1.8742  0.7506 -0.9145
 7766TIP3    H244790   4.147   1.972  11.382  0.8005  0.6368  1.3014
 7767TIP3   OH244791   5.687   3.671  11.623  0.5429 -0.3959  0.1199
 7767TIP3    H144792   5.604   3.624  11.612  0.5091 -0.4370  0.5336
 7767TIP3    H244793   5.664   3.751  11.670  1.0403 -1.5025  2.4100
 7768TIP3   OH244794   4.864   1.918   1.937 -1.2076 -0.1766 -0.0365
 7768TIP3    H144795   4.860   1.898   1.843  0.1991  1.1241 -0.4094
 7768TIP3    H244796   4.927   1.856   1.973  0.1572  0.9189 -0.4537
 7769TIP3   OH244797   4.101   5.006   4.075  0.0150 -0.4312  0.1165
 7769TIP3    H144798   4.126   5.036   4.162 -0.3798  1.8866 -0.4736
 7769TIP3    H244799   4.017   4.962   4.088 -1.2097  1.8931  0.7031
 7770TIP3   OH244800   4.377   6.601  17.238 -0.0424 -0.3755 -0.4516
 7770TIP3    H144801   4.351   6.530  17.180  0.6093 -0.9030 -0.1088
 7770TIP3    H244802   4.303   6.611  17.298 -2.1104  2.1823 -3.1032
 7771TIP3   OH244803   2.583   3.730   3.593  0.4528  0.3358  0.3256
 7771TIP3    H144804   2.501   3.745   3.640  0.0650  0.2465 -0.3115
 7771TIP3    H244805   2.648   3.715   3.662 -0.5504 -2.2096  0.8183
 7772TIP3   OH244806   2.720   6.661   2.839 -0.7675 -0.1823  0.1542
 7772TIP3    H144807   2.746   6.571   2.821  0.0140  0.3294 -1.4871
 7772TIP3    H244808   2.657   6.683   2.770 -1.2998  0.3932  0.8019
 7773TIP3   OH244809   3.986   1.733   4.856 -0.0120  0.0480 -0.3054
 7773TIP3    H144810   3.944   1.723   4.942 -0.5852  2.2257 -0.2748
 7773TIP3    H244811   4.072   1.692   4.866 -0.1434  0.0902  1.2379
 7774TIP3   OH244812   1.901   0.195   5.503  0.0474 -0.5379  0.0932
 7774TIP3    H144813   1.908   0.212   5.597 -1.2991  1.5592 -0.1343
 7774TIP3    H244814   1.989   0.167   5.477  1.1856  1.5134  1.4979
 7775TIP3   OH244815   2.522   0.184   3.709 -0.1106  1.1787  0.2180
 7775TIP3    H144816   2.601   0.202   3.659 -0.1179 -1.0905 -0.6969
 7775TIP3    H244817   2.451   0.191   3.646 -0.3784  0.6951  0.4604
 7776TIP3   OH244818   6.237   5.511   3.892 -0.0229  0.1231 -0.6126
 7776TIP3    H144819   6.270   5.596   3.921  1.7325 -0.6826 -0.0822
 7776TIP3    H244820   6.154   5.500   3.939  1.3727  0.1009  2.0418
 7777TIP3   OH244821   1.605   3.160  14.284  0.2265 -0.1820  0.2142
 7777TIP3    H144822   1.535   3.224  14.278  1.8467  1.6130 -0.8337
 7777TIP3    H244823   1.572   3.093  14.345 -2.4389  0.4085 -0.4532
 7778TIP3   OH244824   3.098   3.133   3.769 -0.2360  0.5221 -0.2855
 7778TIP3    H144825   3.185   3.106   3.796 -1.3111 -1.1218  1.8930
 7778TIP3    H244826   3.107   3.224   3.743  1.9110  0.7234  0.9931
 7779TIP3   OH244827   2.202   2.252  15.834 -0.3032 -0.5701  0.3322
 7779TIP3    H144828   2.158   2.179  15.790 -0.0300 -1.2253  1.1293
 7779TIP3    H244829   2.292   2.249  15.802 -0.4039 -0.2999  0.0213
 7780TIP3   OH244830   4.236   5.679  15.308  0.0680 -0.4709 -0.2437
 7780TIP3    H144831   4.221   5.621  15.382 -0.2502 -0.8959 -0.6320
 7780TIP3    H244832   4.159   5.668  15.253  0.1445  0.0963 -0.4748
 7781TIP3   OH244833   5.673   0.380  12.480  0.0580 -0.0186  0.3435
 7781TIP3    H144834   5.608   0.329  12.526  1.2044 -2.5525 -0.6639
 7781TIP3    H244835   5.651   0.471  12.499 -2.7509 -0.8258  1.3185
 7782TIP3   OH244836   4.100   2.091   0.143 -0.0454 -0.5948  0.2795
 7782TIP3    H144837   4.115   2.171   0.193 -0.7765 -1.1055  1.3619
 7782TIP3    H244838   4.024   2.110   0.089 -1.3999 -1.1090  1.9015
 7783TIP3   OH244839   0.551   0.141   1.681 -0.0352  0.0991  0.4738
 7783TIP3    H144840   0.596   0.086   1.744 -0.9176  0.4252  1.4209
 7783TIP3    H244841   0.526   0.219   1.731  0.8982  1.2330 -0.7441
 7784TIP3   OH244842   1.564   3.892   4.629  0.0341  0.2913  0.1633
 7784TIP3    H144843   1.659   3.898   4.642  0.1118 -1.0511  0.3701
 7784TIP3    H244844   1.540   3.808   4.669 -1.8866  2.3466  3.8876
 7785TIP3   OH244845   2.951   1.572  14.733  0.5438  0.6938  0.6836
 7785TIP3    H144846   2.968   1.547  14.824  0.7000  0.5332  0.6109
 7785TIP3    H244847   2.885   1.641  14.740  0.9521  1.0686  0.9533
 7786TIP3   OH244848   1.496   2.295  13.447  0.2140  0.3088  0.0863
 7786TIP3    H144849   1.451   2.260  13.524 -0.8853 -0.5002 -0.8808
 7786TIP3    H244850   1.527   2.218  13.400  2.2216  0.8417  0.4496
 7787TIP3   OH244851   5.613   0.574  14.931  0.1398  0.8101  0.1250
 7787TIP3    H144852   5.698   0.620  14.929  0.6506 -0.1047 -1.8484
 7787TIP3    H244853   5.632   0.491  14.974 -0.2148  1.3593  1.3892
 7788TIP3   OH244854   4.947   2.389  15.001 -0.2062  0.3896  0.3622
 7788TIP3    H144855   4.868   2.370  15.052 -0.6203  1.0070 -0.0369
 7788TIP3    H244856   4.942   2.483  14.984  0.4973  0.3891  0.1302
 7789TIP3   OH244857   0.425   3.762  15.095  0.3833 -0.2524  0.0372
 7789TIP3    H144858   0.418   3.840  15.039 -2.5723 -1.7789 -1.9637
 7789TIP3    H244859   0.492   3.708  15.052 -0.1422 -0.3582 -0.6682
 7790TIP3   OH244860   6.751   0.361  14.757 -0.1429 -0.5785  0.2247
 7790TIP3    H144861   6.704   0.279  14.743 -0.2088 -0.3339 -1.1425
 7790TIP3    H244862   6.806   0.371  14.679 -1.0409  1.2660 -0.2392
 7791TIP3   OH244863   5.188   2.394  13.094  0.2456 -0.5407  0.3484
 7791TIP3    H144864   5.154   2.364  13.179 -1.5283 -2.0068 -0.7958
 7791TIP3    H244865   5.262   2.336  13.076  1.0729  0.2232  1.1574
 7792TIP3   OH244866   1.217   6.017  13.078 -0.1932  0.1017  0.1750
 7792TIP3    H144867   1.311   6.031  13.068 -0.1490 -0.1453  0.2338
 7792TIP3    H244868   1.182   6.104  13.100  0.1415  0.0304  1.0261
 7793TIP3   OH244869   6.179   5.690   4.647 -0.3444 -0.1296 -0.0146
 7793TIP3    H144870   6.261   5.663   4.689 -0.6357 -0.2106  0.5045
 7793TIP3    H244871   6.111   5.666   4.709 -0.6166  1.9536  0.5895
 7794TIP3   OH244872   2.573   0.202  15.722 -0.4613 -0.2614 -0.4382
 7794TIP3    H144873   2.601   0.128  15.668  2.0272  0.8236 -0.7653
 7794TIP3    H244874   2.555   0.165  15.808 -0.1811 -1.3692 -0.8474
 7795TIP3   OH244875   2.878   5.806  11.784 -0.3379 -0.2401 -0.1187
 7795TIP3    H144876   2.953   5.748  11.772 -0.0195 -0.0123  0.6849
 7795TIP3    H244877   2.912   5.893  11.762 -0.2303 -0.0702  0.6958
 7796TIP3   OH244878   0.421   3.766  13.685 -0.7949  0.2849 -0.3515
 7796TIP3    H144879   0.326   3.770  13.689 -0.9554 -0.6001 -2.1811
 7796TIP3    H244880   0.440   3.678  13.653  0.6896  0.2239  0.5999
 7797TIP3   OH244881   4.267   6.192  15.123 -0.2494 -0.8035  0.1279
 7797TIP3    H144882   4.216   6.163  15.047 -0.4986  2.2449 -0.9944
 7797TIP3    H244883   4.311   6.113  15.153 -2.9205 -2.8903 -0.9560
 7798TIP3   OH244884   3.222   2.075  11.573 -0.4916  0.3665  0.1257
 7798TIP3    H144885   3.299   2.031  11.611 -0.7206 -0.9246 -0.8324
 7798TIP3    H244886   3.257   2.158  11.539  1.1279 -1.2624 -2.6001
 7799TIP3   OH244887   4.221   5.818  12.163  0.3389 -0.2211 -0.1500
 7799TIP3    H144888   4.227   5.817  12.259  0.6914  0.2020 -0.1614
 7799TIP3    H244889   4.311   5.812  12.133  0.6013  2.9754 -0.3930
 7800TIP3   OH244890   0.982   4.627  11.702 -0.2148 -0.0406  0.4916
 7800TIP3    H144891   0.916   4.638  11.633 -0.8353 -2.1695  0.6694
 7800TIP3    H244892   1.038   4.557  11.670 -0.9619 -1.6087  2.4286
 7801TIP3   OH244893   4.535   3.011   3.832  0.1840  0.3414  0.1536
 7801TIP3    H144894   4.550   2.932   3.885  1.2736  1.5560  1.7811
 7801TIP3    H244895   4.514   3.079   3.896  0.6097  1.6818 -1.0744
 7802TIP3   OH244896   6.462   0.293   4.587  0.0222  0.3327 -0.6660
 7802TIP3    H144897   6.477   0.277   4.680  0.1035  0.3103 -0.6826
 7802TIP3    H244898   6.380   0.342   4.583  1.4622  2.9326 -0.3856
 7803TIP3   OH244899   5.896   2.450   6.500  0.6092 -0.0071  0.6115
 7803TIP3    H144900   5.917   2.527   6.552 -1.6077 -0.5359  2.4239
 7803TIP3    H244901   5.937   2.377   6.547  0.2345 -0.2676  0.5423
 7804TIP3   OH244902   3.105   5.823   0.227 -0.3657  0.0785  0.5831
 7804TIP3    H144903   3.038   5.891   0.230  0.3531  0.8781 -0.6495
 7804TIP3    H244904   3.084   5.766   0.301 -2.1084  0.5706  0.5163
 7805TIP3   OH244905   1.219   1.195  12.468 -0.3269 -0.1182 -0.4094
 7805TIP3    H144906   1.149   1.148  12.422 -0.5408 -0.2240  0.0182
 7805TIP3    H244907   1.273   1.125  12.507 -1.2526 -0.0273  1.1377
 7806TIP3   OH244908   1.020   2.513   5.646 -0.1579  0.8451  0.1225
 7806TIP3    H144909   1.033   2.479   5.735  0.0167  0.7719  0.0682
 7806TIP3    H244910   1.093   2.573   5.633 -0.7753  1.6901  0.4376
 7807TIP3   OH244911   3.812   6.275  14.169  0.3115  0.0720 -0.0777
 7807TIP3    H144912   3.735   6.309  14.123  0.1084  0.5536  0.6087
 7807TIP3    H244913   3.860   6.353  14.198  0.6024 -0.2223  0.2435
 7808TIP3   OH244914   4.593   5.184  16.509  0.1468  0.4885  0.0580
 7808TIP3    H144915   4.656   5.113  16.511  0.6070  0.9011  1.2160
 7808TIP3    H244916   4.643   5.260  16.477 -0.8355 -0.0898 -3.3151
 7809TIP3   OH244917   1.916   2.649   4.286  0.2144  0.9489 -0.0518
 7809TIP3    H144918   1.992   2.666   4.231 -0.0977  1.4093 -0.3501
 7809TIP3    H244919   1.911   2.725   4.344  1.7505 -0.4504  2.0426
 7810TIP3   OH244920   6.776   0.763  14.091 -0.2461  0.4558  0.4751
 7810TIP3    H144921   6.719   0.698  14.050 -0.2689  1.3260 -0.9352
 7810TIP3    H244922   6.782   0.735  14.183 -0.1655 -1.5728 -0.1006
 7811TIP3   OH244923   4.073   0.641   5.913 -0.0986  0.2327  0.1417
 7811TIP3    H144924   4.083   0.556   5.870 -0.5124 -0.2852  1.0427
 7811TIP3    H244925   4.007   0.687   5.860  0.7271  0.3306 -0.8284
 7812TIP3   OH244926   4.193   4.859   2.049  0.0494  0.4022  0.0156
 7812TIP3    H144927   4.182   4.954   2.040 -0.7400  0.1171 -3.4083
 7812TIP3    H244928   4.109   4.822   2.023  0.8148 -1.2784 -0.1953
 7813TIP3   OH244929   1.429   1.025  12.535 -0.0556  0.5908 -0.2970
 7813TIP3    H144930   1.435   0.945  12.587 -1.3696  0.7511  0.1243
 7813TIP3    H244931   1.520   1.048  12.516  0.4033 -2.5233 -2.8459
 7814TIP3   OH244932   5.260   2.068  17.238  0.2454 -0.8528 -0.5932
 7814TIP3    H144933   5.230   2.120  17.313 -0.9696 -0.2451 -1.4642
 7814TIP3    H244934   5.342   2.109  17.211  0.3801 -0.7030  0.0299
 7815TIP3   OH244935   2.892   3.248  15.922  0.1682 -1.0018  0.1203
 7815TIP3    H144936   2.971   3.300  15.938 -1.0120  0.5062  1.3749
 7815TIP3    H244937   2.900   3.173  15.982 -0.2221  0.1854  1.7456
 7816TIP3   OH244938   1.333   1.064   1.135 -0.5123  0.5830 -0.0214
 7816TIP3    H144939   1.346   1.016   1.053  2.3902 -0.5075  0.9641
 7816TIP3    H244940   1.347   0.999   1.204  1.2132  2.3119  1.3602
 7817TIP3   OH244941   5.772   0.997  15.854  0.1937  0.3150  0.1296
 7817TIP3    H144942   5.864   0.998  15.829  0.6035 -0.4250  1.5031
 7817TIP3    H244943   5.773   1.005  15.950 -1.1756  0.3737  0.1637
 7818TIP3   OH244944   6.633   0.105  14.145  0.7205 -0.2131  0.1947
 7818TIP3    H144945   6.578   0.163  14.093 -0.2240 -0.4309  0.9177
 7818TIP3    H244946   6.590   0.020  14.140  0.7034 -0.2750  1.1735
 7819TIP3   OH244947   1.434   3.924   5.170  0.1277  0.6462 -0.1134
 7819TIP3    H144948   1.512   3.960   5.213  0.3947  0.5349 -0.4974
 7819TIP3    H244949   1.384   4.001   5.144  0.9194  0.7627 -1.3398
 7820TIP3   OH244950   2.269   2.422  15.244  0.1233  0.2265  0.2046
 7820TIP3    H144951   2.278   2.396  15.335 -0.5702 -0.8829 -0.0268
 7820TIP3    H244952   2.353   2.401  15.204 -0.2367 -1.2098  0.1525
 7821TIP3   OH244953   4.492   2.656   6.172 -0.6910  0.0838  0.1836
 7821TIP3    H144954   4.405   2.691   6.192 -0.2423  0.5391  1.4604
 7821TIP3    H244955   4.550   2.732   6.176 -0.2136 -0.2127 -0.6504
 7822TIP3   OH244956   1.590   1.758   4.244 -0.1087 -0.1759  0.5507
 7822TIP3    H144957   1.622   1.670   4.222 -1.0096 -0.7835  1.5928
 7822TIP3    H244958   1.653   1.791   4.308  0.0699 -0.1778  0.3767
 7823TIP3   OH244959   5.245   1.333   4.912 -0.2495  0.1931  0.2265
 7823TIP3    H144960   5.168   1.377   4.947  1.8010  2.8573  1.7785
 7823TIP3    H244961   5.224   1.317   4.820 -2.4238  1.3490  0.4616
 7824TIP3   OH244962   5.829   0.469  15.548 -0.1441  0.0564  0.0107
 7824TIP3    H144963   5.804   0.517  15.626 -0.0762 -0.6793  0.4975
 7824TIP3    H244964   5.759   0.485  15.485 -0.2563  0.5512  0.2642
 7825TIP3   OH244965   4.911   4.977   1.702  0.6515 -0.5011 -0.0212
 7825TIP3    H144966   4.874   4.904   1.752  0.9668 -0.2982  0.5139
 7825TIP3    H244967   4.919   5.048   1.765 -0.3575  0.2577 -0.7073
 7826TIP3   OH244968   6.555   2.890  12.018  0.5999 -0.4394 -0.5810
 7826TIP3    H144969   6.533   2.944  12.094  1.4337 -1.9815  0.8151
 7826TIP3    H244970   6.485   2.908  11.955 -1.0964 -0.4028  1.2238
 7827TIP3   OH244971   5.866   2.393  15.356 -0.0254  0.6169 -0.1668
 7827TIP3    H144972   5.808   2.391  15.281 -0.6431 -1.0470  0.3189
 7827TIP3    H244973   5.809   2.377  15.431  0.4019  3.2120  0.8358
 7828TIP3   OH244974   5.354   5.962  16.936  0.7009 -0.2688 -0.5256
 7828TIP3    H144975   5.346   5.888  16.995  1.3106 -0.7718 -1.0580
 7828TIP3    H244976   5.394   6.031  16.989  0.1904 -0.3335 -0.0471
 7829TIP3   OH244977   4.064   2.473  12.299 -0.1907 -0.0500  0.0179
 7829TIP3    H144978   4.008   2.507  12.369 -1.2670 -1.6037 -0.0363
 7829TIP3    H244979   4.146   2.451  12.343 -0.3777  0.2394  0.5202
 7830TIP3   OH244980   2.865   6.269  12.259 -0.0867  0.2301  0.6587
 7830TIP3    H144981   2.958   6.274  12.281 -0.0251 -0.8697  0.7326
 7830TIP3    H244982   2.862   6.281  12.164  0.4852 -2.5559  0.1876
 7831TIP3   OH244983   1.110   5.121   3.573 -0.2106  0.4067 -0.3185
 7831TIP3    H144984   1.034   5.087   3.525  2.0278 -1.3738 -2.8755
 7831TIP3    H244985   1.122   5.210   3.540 -1.2549  0.7803  0.2609
 7832TIP3   OH244986   3.688   5.587   5.165 -0.2292  0.1299 -0.0932
 7832TIP3    H144987   3.712   5.632   5.084 -0.2365  0.6028  0.1638
 7832TIP3    H244988   3.597   5.560   5.151 -0.8146  1.7211  0.3972
 7833TIP3   OH244989   4.873   6.258  13.718 -0.0874  0.9654 -0.1356
 7833TIP3    H144990   4.888   6.165  13.702 -0.9294  0.8504 -0.3212
 7833TIP3    H244991   4.941   6.303  13.668  0.7910  0.4356  0.5575
 7834TIP3   OH244992   1.877   0.099  14.160  0.8867 -0.9100  0.6711
 7834TIP3    H144993   1.796   0.066  14.199  0.2884 -0.5410 -0.2207
 7834TIP3    H244994   1.852   0.181  14.117  1.5123 -1.2585 -0.4143
 7835TIP3   OH244995   6.019   0.630   6.758  0.1185  0.3232  0.4349
 7835TIP3    H144996   6.042   0.656   6.669  2.4070 -3.0064 -0.1568
 7835TIP3    H244997   5.939   0.579   6.748 -0.5498  1.3138  0.5859
 7836TIP3   OH244998   0.519   1.132   2.166  0.0878 -0.1271 -0.1610
 7836TIP3    H144999   0.533   1.088   2.250  0.2372 -0.5708 -0.4150
 7836TIP3    H245000   0.581   1.205   2.167 -1.0707  0.8729  0.8092
 7837TIP3   OH245001   5.975   2.708  13.679  0.0552 -0.0840 -0.0993
 7837TIP3    H145002   5.945   2.790  13.641  0.8695 -0.0762 -0.7524
 7837TIP3    H245003   5.901   2.648  13.666  0.1799  0.0073 -1.4234
 7838TIP3   OH245004   2.570   4.725   3.299 -0.1277 -0.0712  0.0815
 7838TIP3    H145005   2.585   4.640   3.340 -0.3522 -0.1573 -0.0167
 7838TIP3    H245006   2.478   4.724   3.273  0.1283 -0.2069 -0.8635
 7839TIP3   OH245007   3.867   0.604   2.069 -0.0224  0.1579  0.1124
 7839TIP3    H145008   3.817   0.635   1.993  0.1785 -1.4149 -0.6996
 7839TIP3    H245009   3.958   0.604   2.039  0.1158  0.0012  0.5208
 7840TIP3   OH245010   2.629   1.577  15.995 -0.6777  0.0689 -0.5192
 7840TIP3    H145011   2.685   1.501  16.011 -0.4924  0.3663  0.3548
 7840TIP3    H245012   2.630   1.589  15.900  0.0973 -0.4156 -0.5831
 7841TIP3   OH245013   1.441   6.197   0.416 -0.1812 -0.2963  0.1456
 7841TIP3    H145014   1.429   6.132   0.485  1.4348  1.0094  1.7770
 7841TIP3    H245015   1.522   6.172   0.372 -0.3045 -0.1860 -0.1443
 7842TIP3   OH245016   2.995   0.070  16.166 -0.3307 -0.6330  0.3191
 7842TIP3    H145017   2.901   0.081  16.160 -0.2529  0.2012  0.5195
 7842TIP3    H245018   3.031   0.126  16.096 -0.0026 -1.3997 -0.1490
 7843TIP3   OH245019   5.398   6.088  17.194 -0.0862  0.1292  0.4795
 7843TIP3    H145020   5.412   6.138  17.274 -0.4741  1.1745 -0.0913
 7843TIP3    H245021   5.467   6.021  17.195  0.4450  0.6734  1.2451
 7844TIP3   OH245022   6.471   2.344   5.847 -0.0372 -0.3206 -0.6483
 7844TIP3    H145023   6.410   2.337   5.921  0.0212  0.2444 -0.5367
 7844TIP3    H245024   6.543   2.398   5.880 -0.9423  1.6311 -1.6867
 7845TIP3   OH245025   4.069   3.846  12.200  0.1222 -0.2940 -0.0413
 7845TIP3    H145026   4.074   3.754  12.175 -0.3687 -0.0275 -1.1847
 7845TIP3    H245027   4.160   3.878  12.195  0.5703 -1.0816  1.9772
 7846TIP3   OH245028   5.857   4.147   1.437 -0.4970  0.5828 -0.0958
 7846TIP3    H145029   5.794   4.136   1.366 -1.0840 -0.5377  0.5772
 7846TIP3    H245030   5.906   4.226   1.413 -0.3258 -0.0527 -2.0030
 7847TIP3   OH245031   6.458   4.701  14.317 -0.1311 -0.0733 -0.2303
 7847TIP3    H145032   6.546   4.737  14.304 -1.0691  3.0171  1.1016
 7847TIP3    H245033   6.401   4.756  14.262 -1.5682 -0.0405  1.2210
 7848TIP3   OH245034   3.245   2.235   2.836  0.2451 -0.1721  0.1224
 7848TIP3    H145035   3.176   2.170   2.849 -1.0007  1.3663  1.6936
 7848TIP3    H245036   3.250   2.246   2.741 -0.4691 -1.5481 -0.1035
 7849TIP3   OH245037   1.024   6.091  16.137  0.6087 -0.1401  0.3422
 7849TIP3    H145038   1.088   6.112  16.205  1.0197  1.6066 -0.5187
 7849TIP3    H245039   1.064   6.125  16.057 -0.6766 -0.5129 -0.4715
 7850TIP3   OH245040   2.994   4.883   1.728 -0.3308 -0.2405  0.1807
 7850TIP3    H145041   3.030   4.934   1.801 -0.4796  0.7392 -0.4050
 7850TIP3    H245042   2.911   4.849   1.760 -0.1103 -0.3198  0.6687
 7851TIP3   OH245043   0.855   5.301  12.301 -0.4416 -0.4893  0.3767
 7851TIP3    H145044   0.894   5.258  12.376 -0.6081  1.8956  1.9538
 7851TIP3    H245045   0.777   5.249  12.281 -0.0520 -1.5219  1.4396
 7852TIP3   OH245046   2.996   0.408  12.813 -0.4375  0.6024 -0.4818
 7852TIP3    H145047   3.090   0.427  12.813 -0.4784  0.8375  0.4367
 7852TIP3    H245048   2.985   0.339  12.879 -0.7939 -0.0697 -1.2270
 7853TIP3   OH245049   6.770   0.287  11.294 -0.9664  0.5585 -0.1522
 7853TIP3    H145050   6.691   0.276  11.347 -0.2988 -0.1755  0.7168
 7853TIP3    H245051   6.807   0.199  11.288 -0.6418  0.7516 -1.2483
 7854TIP3   OH245052   3.076   1.310   3.591  0.0141 -0.0533 -0.5228
 7854TIP3    H145053   3.078   1.242   3.524 -1.4786 -1.6664  0.9765
 7854TIP3    H245054   3.123   1.272   3.665 -0.0485  0.9324  0.0471
 7855TIP3   OH245055   5.713   0.058   2.297  0.0418 -0.4860 -0.4543
 7855TIP3    H145056   5.808   0.054   2.290  0.3211  2.1905  0.6755
 7855TIP3    H245057   5.686   0.109   2.220 -0.0187  1.9997  1.1146
 7856TIP3   OH245058   6.392   4.136   3.467  0.4007 -0.4320  0.1766
 7856TIP3    H145059   6.299   4.133   3.489  0.0268 -0.4861 -1.2850
 7856TIP3    H245060   6.403   4.066   3.402  0.6877  1.7378 -2.2990
 7857TIP3   OH245061   3.480   1.081  13.886 -0.3548  0.6603 -0.3704
 7857TIP3    H145062   3.537   1.062  13.961  0.2045  1.5164 -0.5654
 7857TIP3    H245063   3.529   1.146  13.835 -0.7497  0.1218 -1.4586
 7858TIP3   OH245064   2.260   2.594   3.530  0.0045  0.6917  0.3469
 7858TIP3    H145065   2.164   2.597   3.529  0.0315  1.9015 -0.2911
 7858TIP3    H245066   2.286   2.620   3.442  0.9097 -2.1671 -0.3065
 7859TIP3   OH245067   3.509   4.596   2.461 -0.3171 -0.1594 -0.2453
 7859TIP3    H145068   3.492   4.501   2.463  0.3652 -0.3073  2.4690
 7859TIP3    H245069   3.582   4.605   2.399  1.2894 -1.7795  1.2878
 7860TIP3   OH245070   2.647   4.068   4.460  0.2451 -0.5999  0.0643
 7860TIP3    H145071   2.630   4.144   4.516 -0.0035 -0.7762  0.2273
 7860TIP3    H245072   2.623   4.097   4.372 -0.2909 -0.6344  0.1928
 7861TIP3   OH245073   3.816   3.706   1.569  0.2751  0.2006  0.0140
 7861TIP3    H145074   3.873   3.638   1.534  1.2147  1.5572 -1.1924
 7861TIP3    H245075   3.865   3.742   1.643 -0.0871 -0.2321  0.4654
 7862TIP3   OH245076   4.950   2.678   3.249 -0.1607  0.1328 -0.3692
 7862TIP3    H145077   4.949   2.602   3.307 -1.0258  0.6608  0.3309
 7862TIP3    H245078   5.002   2.650   3.173 -0.7150 -1.2420 -0.2624
 7863TIP3   OH245079   1.488   1.881  15.977  0.2972 -0.6375 -0.6554
 7863TIP3    H145080   1.565   1.845  15.933  0.9120 -0.5704  0.3192
 7863TIP3    H245081   1.505   1.867  16.070 -0.1261  0.8430 -0.3253
 7864TIP3   OH245082   5.785   4.831  10.859 -0.5574  0.3629  0.5256
 7864TIP3    H145083   5.847   4.870  10.921 -1.0311 -0.1757  1.3643
 7864TIP3    H245084   5.726   4.903  10.836 -2.3133 -0.0459  3.1682
 7865TIP3   OH245085   0.839   2.469   5.236 -0.1706 -0.0553 -0.4045
 7865TIP3    H145086   0.917   2.486   5.287  0.5096  1.1643 -1.7915
 7865TIP3    H245087   0.778   2.429   5.298  0.4310  1.8021  1.4717
 7866TIP3   OH245088   0.730   6.084  16.555  0.0967 -0.4123  0.1720
 7866TIP3    H145089   0.784   6.146  16.604  2.5370 -2.9697  0.9956
 7866TIP3    H245090   0.653   6.070  16.610 -0.2437  1.4125  0.2107
 7867TIP3   OH245091   0.836   3.532  14.785  0.1100 -0.0020 -0.0977
 7867TIP3    H145092   0.893   3.462  14.817  0.0994 -0.7090 -1.5315
 7867TIP3    H245093   0.811   3.504  14.697 -0.3906  1.5309 -0.4769
 7868TIP3   OH245094   1.287   0.199   1.067 -0.5562  0.5185  0.1099
 7868TIP3    H145095   1.260   0.208   0.976  0.3441  0.2382 -0.1970
 7868TIP3    H245096   1.340   0.277   1.084 -0.5238  0.4516  0.3149
 7869TIP3   OH245097   0.310   5.594  12.123 -0.1184 -0.7774 -0.5040
 7869TIP3    H145098   0.276   5.512  12.158  1.3979 -1.5926 -0.8277
 7869TIP3    H245099   0.315   5.653  12.198 -0.5378 -1.2161 -0.1315
 7870TIP3   OH245100   3.139   3.814   4.461 -0.5628 -0.4560 -0.1273
 7870TIP3    H145101   3.116   3.897   4.503 -4.0013 -1.6410  0.7278
 7870TIP3    H245102   3.186   3.765   4.528  0.0361  0.1840 -0.0729
 7871TIP3   OH245103   4.018   0.904  13.021 -0.9110  0.6366  0.7526
 7871TIP3    H145104   4.100   0.872  12.982  0.3244  1.0547  2.8629
 7871TIP3    H245105   3.951   0.844  12.988  0.7647 -1.9582  1.6999
 7872TIP3   OH245106   2.661   4.477   3.385 -0.3588 -0.1477  0.6030
 7872TIP3    H145107   2.631   4.391   3.358 -0.7786  0.0684  0.3653
 7872TIP3    H245108   2.756   4.475   3.373 -0.4084 -0.4488  0.2476
 7873TIP3   OH245109   1.076   3.445  12.709  0.1785 -0.3713 -0.0440
 7873TIP3    H145110   1.146   3.380  12.714  1.2319  0.7860  1.6105
 7873TIP3    H245111   1.001   3.403  12.750  0.7925 -0.6700  0.8190
 7874TIP3   OH245112   5.326   2.818  12.509  0.2365  0.3967 -0.5654
 7874TIP3    H145113   5.257   2.855  12.454 -3.1263 -1.3320  2.1067
 7874TIP3    H245114   5.351   2.737  12.465  0.2440  0.8039 -1.3285
 7875TIP3   OH245115   3.168   2.634   0.354  0.1195  0.2697  0.2338
 7875TIP3    H145116   3.185   2.578   0.429  0.7520  0.2041  0.0438
 7875TIP3    H245117   3.136   2.716   0.391 -1.7984 -0.5318  0.4835
 7876TIP3   OH245118   0.186   2.487   1.428 -0.3281  0.3073 -0.0566
 7876TIP3    H145119   0.107   2.530   1.396 -1.6620 -0.7024  1.7680
 7876TIP3    H245120   0.156   2.409   1.474  1.8868 -1.3800 -1.2602
 7877TIP3   OH245121   5.919   5.420  11.817 -0.2089 -0.9660 -0.2490
 7877TIP3    H145122   5.853   5.411  11.748 -0.8622 -0.2437  0.2560
 7877TIP3    H245123   5.884   5.367  11.890 -1.1549  0.7892  0.6483
 7878TIP3   OH245124   0.281   1.021  10.518  0.2085 -0.3462 -0.3620
 7878TIP3    H145125   0.300   1.105  10.559 -1.0090  0.1977 -0.8744
 7878TIP3    H245126   0.326   0.957  10.574  1.5503  0.6569 -0.2374
 7879TIP3   OH245127   3.054   4.031  11.408 -0.7093  0.3675  0.3966
 7879TIP3    H145128   2.959   4.037  11.420 -0.9141 -2.6233  1.1832
 7879TIP3    H245129   3.078   3.950  11.453  2.0664  0.4597 -0.7452
 7880TIP3   OH245130   2.455   3.934   3.014  0.3857  0.4985  0.1269
 7880TIP3    H145131   2.471   3.916   2.921  0.5633  0.7912  0.0956
 7880TIP3    H245132   2.525   3.887   3.059  2.0818  2.6292 -0.0770
 7881TIP3   OH245133   4.603   2.501   2.895  0.4091 -0.1636 -0.0047
 7881TIP3    H145134   4.550   2.423   2.877  0.2701  0.5208 -2.9376
 7881TIP3    H245135   4.692   2.475   2.872  0.6677  0.0399  0.7275
 7882TIP3   OH245136   0.972   1.899   0.177  0.2149 -0.0193 -0.1750
 7882TIP3    H145137   0.932   1.946   0.105 -0.0993 -0.5434 -0.3516
 7882TIP3    H245138   1.056   1.868   0.143  0.5740  0.6978  0.0509
 7883TIP3   OH245139   1.219   3.369   4.317 -0.4008 -0.4490 -0.0203
 7883TIP3    H145140   1.172   3.292   4.349  0.4296 -0.5271  1.0954
 7883TIP3    H245141   1.279   3.391   4.389  1.3311 -0.4068 -1.4032
 7884TIP3   OH245142   4.694   6.138  16.461  0.4437 -0.8602  0.4157
 7884TIP3    H145143   4.717   6.152  16.369 -0.0782 -0.5103  0.3332
 7884TIP3    H245144   4.756   6.072  16.491  1.0667 -0.4849  0.0016
 7885TIP3   OH245145   2.153   4.592   4.518  0.5123  0.2917 -0.0149
 7885TIP3    H145146   2.063   4.562   4.519  0.2420  1.0870  0.5322
 7885TIP3    H245147   2.149   4.681   4.483  0.7594  1.2376  2.2074
 7886TIP3   OH245148   0.364   5.144  13.856 -0.3577  0.6085 -0.0010
 7886TIP3    H145149   0.302   5.202  13.901 -1.2623  0.4297 -0.9649
 7886TIP3    H245150   0.333   5.142  13.765  1.8831  1.5987 -0.8397
 7887TIP3   OH245151   5.776   2.602   5.594  0.6414 -0.3385 -0.0726
 7887TIP3    H145152   5.773   2.530   5.658  0.3514 -0.2533  0.0120
 7887TIP3    H245153   5.768   2.559   5.509  1.3890 -0.4853 -0.0762
 7888TIP3   OH245154   1.599   3.225   5.275 -0.0922  0.2626 -0.2631
 7888TIP3    H145155   1.535   3.184   5.216  1.1907 -0.7679 -1.0179
 7888TIP3    H245156   1.679   3.174   5.261  0.5311  0.6505  1.6451
 7889TIP3   OH245157   6.315   1.577  16.600  0.1544 -0.3354 -0.0330
 7889TIP3    H145158   6.230   1.539  16.619 -0.2492 -0.1297 -1.3867
 7889TIP3    H245159   6.377   1.505  16.613 -0.4216 -0.9977 -0.8914
 7890TIP3   OH245160   3.078   0.591  16.444 -0.1961 -0.5971 -0.3779
 7890TIP3    H145161   3.168   0.619  16.429 -0.1833  0.7737  1.7763
 7890TIP3    H245162   3.073   0.504  16.403  1.7411 -0.2362 -1.5264
 7891TIP3   OH245163   0.044   1.637  11.572 -0.3117  0.3504 -0.3180
 7891TIP3    H145164   0.086   1.556  11.544 -0.1158 -0.2758  1.6351
 7891TIP3    H245165   0.070   1.702  11.506  2.5868 -0.3104  0.0592
 7892TIP3   OH245166   4.201   5.486   3.081  0.1471 -0.3243 -0.5256
 7892TIP3    H145167   4.149   5.566   3.079  1.9663  0.9189 -1.2324
 7892TIP3    H245168   4.261   5.498   3.155  0.5818 -0.9270 -0.7696
 7893TIP3   OH245169   0.297   3.471  12.124 -0.1010 -0.0025  0.2137
 7893TIP3    H145170   0.294   3.445  12.032 -0.0054  0.1608  0.1628
 7893TIP3    H245171   0.238   3.411  12.169  0.3631 -0.5179  0.1490
 7894TIP3   OH245172   1.400   6.401  12.900 -0.0204  0.4591 -0.1232
 7894TIP3    H145173   1.438   6.486  12.878 -0.3180  0.4895 -0.5485
 7894TIP3    H245174   1.311   6.405  12.865  0.0580 -0.1322 -0.4114
 7895TIP3   OH245175   4.318   1.061  15.706 -0.3416  0.1251  0.5066
 7895TIP3    H145176   4.255   1.128  15.732 -1.6534 -0.4060 -1.1205
 7895TIP3    H245177   4.334   1.078  15.613  0.0666 -1.2162  0.3081
 7896TIP3   OH245178   4.237   5.891   0.271  0.1976 -0.0267  0.3195
 7896TIP3    H145179   4.267   5.800   0.270  1.1561  0.2359  1.6575
 7896TIP3    H245180   4.274   5.930   0.192 -1.6903 -1.2010 -1.2157
 7897TIP3   OH245181   5.081   2.922  14.537  0.1172 -0.2560  0.2323
 7897TIP3    H145182   4.995   2.952  14.568 -0.2488  0.6504 -1.5362
 7897TIP3    H245183   5.077   2.827  14.543 -1.0502 -0.2352  0.1178
 7898TIP3   OH245184   3.768   0.953   3.895 -0.3844 -0.0191 -0.2530
 7898TIP3    H145185   3.758   1.028   3.952  0.5394  0.4985 -0.7543
 7898TIP3    H245186   3.691   0.956   3.837 -0.9774 -0.1750  0.5067
 7899TIP3   OH245187   1.380   0.279   4.962  0.2838 -0.6264  0.2862
 7899TIP3    H145188   1.352   0.364   4.997  1.1266 -0.4145  0.4716
 7899TIP3    H245189   1.401   0.227   5.039  2.9822  0.1322  0.1433
 7900TIP3   OH245190   1.229   6.303  12.294  0.2055 -0.2330  0.1261
 7900TIP3    H145191   1.250   6.301  12.388 -0.6791  0.4944  0.3492
 7900TIP3    H245192   1.308   6.269  12.252 -0.1487 -2.6285  1.2467
 7901TIP3   OH245193   5.930   6.043   2.638  0.4163 -0.3574 -0.3752
 7901TIP3    H145194   5.985   6.036   2.716  0.9394  0.5754 -0.6511
 7901TIP3    H245195   5.846   6.006   2.665  0.9792 -1.2253  0.2380
 7902TIP3   OH245196   0.711   2.247  15.586  0.1853  0.1514  0.4123
 7902TIP3    H145197   0.627   2.292  15.570 -0.1572 -0.7038 -0.2679
 7902TIP3    H245198   0.692   2.155  15.568  1.2364 -0.0678  0.4021
 7903TIP3   OH245199   6.421   0.186  13.432  0.5187 -0.2097 -0.4946
 7903TIP3    H145200   6.435   0.104  13.478  1.3382  0.2315  0.0605
 7903TIP3    H245201   6.349   0.228  13.479  0.5595 -0.3016 -0.3499
 7904TIP3   OH245202   4.809   4.809  14.985  0.0116  0.1012  0.0119
 7904TIP3    H145203   4.890   4.782  14.943  0.1260  1.1416 -0.4465
 7904TIP3    H245204   4.832   4.821  15.077 -0.4318 -3.0454  0.6701
 7905TIP3   OH245205   5.426   6.670   2.964  0.0171  0.3233  0.5257
 7905TIP3    H145206   5.378   6.750   2.981 -0.3980  0.3418 -0.6713
 7905TIP3    H245207   5.375   6.624   2.898  0.9523 -0.2791  0.1957
 7906TIP3   OH245208   5.937   2.555   5.859 -1.1557  0.5369  0.3064
 7906TIP3    H145209   5.968   2.514   5.940 -2.4934  0.0105  0.5895
 7906TIP3    H245210   5.883   2.488   5.818  1.2845 -0.0343 -2.2066
 7907TIP3   OH245211   1.028   5.818  13.048  0.3562 -0.1171 -0.8076
 7907TIP3    H145212   1.106   5.865  13.076 -0.3182  1.1165 -0.9019
 7907TIP3    H245213   1.024   5.831  12.953 -0.2008  0.2255 -0.7443
 7908TIP3   OH245214   4.827   2.743  13.317 -0.4083 -0.5641 -0.2051
 7908TIP3    H145215   4.765   2.773  13.251  0.2051 -0.1334 -0.5865
 7908TIP3    H245216   4.897   2.700  13.268  0.2241  0.0636  0.1224
 7909TIP3   OH245217   4.413   1.423  10.280 -0.4188  0.5305  0.0504
 7909TIP3    H145218   4.419   1.336  10.239 -1.4661  0.9049 -0.9555
 7909TIP3    H245219   4.329   1.423  10.326  0.9349 -0.0454  2.7287
 7910TIP3   OH245220   4.026   4.673  16.509  0.1257  0.0310 -0.9811
 7910TIP3    H145221   4.077   4.736  16.561 -0.7841  0.1353 -0.1908
 7910TIP3    H245222   4.024   4.594  16.563  0.5243 -0.3969 -1.5859
 7911TIP3   OH245223   5.831   5.006  11.401  0.1797 -0.5687 -0.3438
 7911TIP3    H145224   5.798   5.050  11.480  0.7968 -0.2705 -0.2480
 7911TIP3    H245225   5.837   5.075  11.335  0.4945 -0.6448 -0.3958
 7912TIP3   OH245226   0.967   6.225   0.907  0.0887  0.2567  0.0896
 7912TIP3    H145227   0.888   6.276   0.888 -1.1557 -1.2065  1.1207
 7912TIP3    H245228   1.006   6.208   0.821 -0.4910  1.3190 -0.4014
 7913TIP3   OH245229   4.463   3.552  13.138  0.0986  0.4135 -0.1211
 7913TIP3    H145230   4.517   3.591  13.069 -1.6386  0.3549 -1.6084
 7913TIP3    H245231   4.383   3.605  13.137 -1.4698 -1.8003 -0.7341
 7914TIP3   OH245232   4.435   6.072   4.760  0.3641  0.0289 -0.3877
 7914TIP3    H145233   4.448   6.012   4.834  1.4460 -2.1439 -2.2382
 7914TIP3    H245234   4.362   6.128   4.788  0.0477 -1.3865  1.8960
 7915TIP3   OH245235   4.843   2.085   4.317  0.1411  0.1690  0.1438
 7915TIP3    H145236   4.761   2.035   4.320 -0.9923  1.7796 -1.5641
 7915TIP3    H245237   4.842   2.137   4.397  0.3451 -1.0291  0.9454
 7916TIP3   OH245238   5.273   3.324   5.585 -0.0045  0.1754  0.2826
 7916TIP3    H145239   5.367   3.306   5.582  0.0393  0.1434  1.4027
 7916TIP3    H245240   5.266   3.411   5.623 -0.4302  0.2050  0.1402
 7917TIP3   OH245241   3.670   5.064  15.022 -0.8737 -0.1507  0.0203
 7917TIP3    H145242   3.713   5.148  15.040 -1.6751  0.2948 -0.1095
 7917TIP3    H245243   3.579   5.087  15.003 -1.3919 -1.1653  1.1787
 7918TIP3   OH245244   3.843   5.164  12.960 -0.0104 -0.3592  0.4312
 7918TIP3    H145245   3.765   5.129  13.004 -0.9630  2.1766  0.9370
 7918TIP3    H245246   3.855   5.107  12.884 -2.1077 -1.1211  0.5936
 7919TIP3   OH245247   5.894   0.905  12.537 -0.5964  0.0211 -0.2435
 7919TIP3    H145248   5.952   0.963  12.585 -0.8379 -0.2391  0.3673
 7919TIP3    H245249   5.835   0.869  12.603 -1.0167 -0.2389 -0.7506
 7920TIP3   OH245250   2.028   6.178  14.550 -0.4274 -0.4519  0.4484
 7920TIP3    H145251   1.988   6.092  14.537 -1.2922 -0.4474  2.6450
 7920TIP3    H245252   2.114   6.160  14.586 -0.3488 -0.3992  0.2891
 7921TIP3   OH245253   0.192   2.334  11.667  0.3726  0.4519 -0.1766
 7921TIP3    H145254   0.098   2.321  11.684  0.5518  0.2479  0.7198
 7921TIP3    H245255   0.229   2.355  11.753  1.5907 -2.1485  0.0230
 7922TIP3   OH245256   2.458   2.348  16.376  0.9266 -0.4002  0.1851
 7922TIP3    H145257   2.456   2.441  16.358  2.0326 -0.3778  0.1542
 7922TIP3    H245258   2.370   2.317  16.352  0.7884  0.4939 -0.4935
 7923TIP3   OH245259   5.089   3.608  15.754 -0.7264 -0.2646  1.0767
 7923TIP3    H145260   5.161   3.617  15.692 -0.5911 -1.6495  1.0053
 7923TIP3    H245261   5.017   3.656  15.713 -0.5493 -0.9000 -0.0272
 7924TIP3   OH245262   3.909   1.486   3.688  0.3173  0.6841 -0.3926
 7924TIP3    H145263   3.945   1.523   3.769 -1.8590  0.8449  0.5806
 7924TIP3    H245264   3.926   1.552   3.622 -1.0982  2.3239  0.7582
 7925TIP3   OH245265   5.086   0.791  15.982  0.3132 -0.2190  0.2650
 7925TIP3    H145266   5.169   0.750  16.006  2.3405  3.7122  0.7963
 7925TIP3    H245267   5.053   0.737  15.911  2.9946 -2.3288  0.4365
 7926TIP3   OH245268   1.365   6.709  14.002  0.2563 -0.0916  0.3326
 7926TIP3    H145269   1.447   6.741  14.040  2.2244 -2.8583 -1.2846
 7926TIP3    H245270   1.385   6.621  13.971 -2.2904  0.3990 -3.3787
 7927TIP3   OH245271   1.393   4.308  11.504  0.5378 -0.6340  0.4651
 7927TIP3    H145272   1.348   4.361  11.570  0.8071 -1.0150  0.9587
 7927TIP3    H245273   1.416   4.227  11.550  1.4368 -0.5782  0.1288
 7928TIP3   OH245274   3.524   2.866  12.662  0.0108 -0.7182  0.7687
 7928TIP3    H145275   3.585   2.794  12.647  0.4021 -0.3715  0.6751
 7928TIP3    H245276   3.438   2.830  12.640  0.3810 -0.6871 -0.8489
 7929TIP3   OH245277   3.211   3.118   0.989 -0.1763 -0.2205  0.5603
 7929TIP3    H145278   3.192   3.082   1.076  0.1941  1.8721  1.5725
 7929TIP3    H245279   3.163   3.201   0.986 -0.9346 -0.6799 -1.6287
 7930TIP3   OH245280   6.176   2.411   4.348 -0.2313 -0.3652 -0.3411
 7930TIP3    H145281   6.107   2.465   4.386 -0.9438 -1.1257 -0.5285
 7930TIP3    H245282   6.228   2.382   4.423 -1.0414 -1.0552 -0.0389
 7931TIP3   OH245283   2.601   2.859   1.868 -0.3527  0.6280  0.0767
 7931TIP3    H145284   2.572   2.860   1.777  0.3051 -1.4486 -0.2043
 7931TIP3    H245285   2.621   2.767   1.886  0.7658  1.1824  1.9259
 7932TIP3   OH245286   5.623   5.034   0.912  0.1605  0.5354 -0.3441
 7932TIP3    H145287   5.675   5.072   0.841 -0.5609 -0.5587 -1.5114
 7932TIP3    H245288   5.593   5.110   0.963 -2.8249  1.9004 -3.6920
 7933TIP3   OH245289   3.756   3.868   4.575 -1.0604  0.0101  0.3646
 7933TIP3    H145290   3.774   3.952   4.533  1.2791  1.2668  3.4135
 7933TIP3    H245291   3.663   3.853   4.560 -1.0832  2.0101 -2.1650
 7934TIP3   OH245292   1.759   5.301  10.660 -0.7134 -0.2469 -0.3347
 7934TIP3    H145293   1.754   5.223  10.605  3.2872 -0.8162 -0.1805
 7934TIP3    H245294   1.742   5.269  10.749 -0.6542 -0.6278 -0.4603
 7935TIP3   OH245295   0.880   5.931   5.097 -0.0278 -0.2734 -0.6518
 7935TIP3    H145296   0.815   5.875   5.140 -1.1289  0.2821 -1.5495
 7935TIP3    H245297   0.846   5.943   5.008  1.3412 -0.0154 -1.1635
 7936TIP3   OH245298   1.110   0.735   4.386  0.4144 -0.1658  0.3339
 7936TIP3    H145299   1.082   0.643   4.386  1.2652 -0.4428 -0.5314
 7936TIP3    H245300   1.038   0.782   4.344  0.5080 -0.6240 -0.3517
 7937TIP3   OH245301   3.597   3.974  16.940  0.2636  0.0833 -0.4597
 7937TIP3    H145302   3.643   3.904  16.987  1.3441  1.0300 -0.0499
 7937TIP3    H245303   3.504   3.954  16.951  0.5547 -1.2517 -0.3157
 7938TIP3   OH245304   3.929   5.832  13.604  0.5058 -0.1393  0.2591
 7938TIP3    H145305   3.844   5.857  13.566  1.0695  1.9042  0.2251
 7938TIP3    H245306   3.992   5.843  13.533  1.4627  3.0288  1.4186
 7939TIP3   OH245307   4.093   0.020   1.411 -0.5241  0.1443 -0.2146
 7939TIP3    H145308   4.107  -0.068   1.377 -1.0057  0.2742 -0.7671
 7939TIP3    H245309   4.140   0.022   1.494 -2.3596 -1.3425  0.9146
 7940TIP3   OH245310   1.827   5.322  10.989 -0.1505  0.6927  0.3054
 7940TIP3    H145311   1.917   5.341  10.965  0.0764  1.9769  1.9794
 7940TIP3    H245312   1.805   5.243  10.940  0.8927  1.9752 -2.4179
 7941TIP3   OH245313   5.944   6.671  15.711  0.0718  0.5054 -0.0566
 7941TIP3    H145314   5.916   6.625  15.632  1.9766  0.2907 -0.6682
 7941TIP3    H245315   5.988   6.749  15.678  2.6491 -0.5539  0.6165
 7942TIP3   OH245316   0.782   0.091   1.055 -0.2307 -0.3335  0.0028
 7942TIP3    H145317   0.875   0.068   1.056 -0.1996 -0.2000  0.1785
 7942TIP3    H245318   0.737   0.008   1.040  0.0393 -0.0172 -3.1776
 7943TIP3   OH245319   0.902   2.900   5.376 -0.1028  0.0764  0.3490
 7943TIP3    H145320   0.990   2.865   5.391  0.6385  1.8672  0.3521
 7943TIP3    H245321   0.871   2.927   5.462 -0.2760  0.3167  0.2131
 7944TIP3   OH245322   1.992   6.183   2.166  1.0543  0.0448 -0.4006
 7944TIP3    H145323   1.908   6.228   2.174 -0.2660 -1.9022 -2.3328
 7944TIP3    H245324   2.030   6.216   2.084  0.7181 -1.2351 -1.1091
 7945TIP3   OH245325   1.650   2.448  17.139  0.0761 -0.0848 -0.2127
 7945TIP3    H145326   1.672   2.383  17.206  1.7471  1.7103  1.0740
 7945TIP3    H245327   1.696   2.418  17.061 -0.3654 -1.1965 -0.0741
 7946TIP3   OH245328   0.682   3.455   0.195 -0.6800  0.2149 -0.0254
 7946TIP3    H145329   0.643   3.369   0.179  1.2445 -0.7027  0.0343
 7946TIP3    H245330   0.697   3.491   0.108 -2.9308  1.2306 -0.0603
 7947TIP3   OH245331   6.222   4.545   1.141  0.3810  0.1490 -0.4736
 7947TIP3    H145332   6.212   4.501   1.225  0.0658  1.6770  0.3225
 7947TIP3    H245333   6.251   4.477   1.081  0.1001 -1.0773  0.7526
 7948TIP3   OH245334   2.721   1.427   4.286  0.1164 -0.2106 -0.5493
 7948TIP3    H145335   2.712   1.487   4.212 -0.4808 -0.1452 -0.4322
 7948TIP3    H245336   2.814   1.430   4.309  0.2439  0.0110 -1.0928
 7949TIP3   OH245337   3.539   6.605   0.497 -0.5282 -0.4912  0.0439
 7949TIP3    H145338   3.473   6.670   0.472 -0.1531 -0.3155 -0.5070
 7949TIP3    H245339   3.500   6.521   0.474 -0.2373 -0.3425 -1.0830
 7950TIP3   OH245340   1.731   1.533   5.530 -0.6164 -0.7079 -0.3577
 7950TIP3    H145341   1.718   1.512   5.622 -0.9344  0.3036 -0.1624
 7950TIP3    H245342   1.762   1.623   5.529  3.0368 -1.7929 -1.0466
 7951TIP3   OH245343   1.398   6.282  16.015 -0.1420  0.8362  0.1244
 7951TIP3    H145344   1.316   6.281  16.065 -0.8156 -0.5587 -0.9233
 7951TIP3    H245345   1.371   6.262  15.925  1.2580  1.3115 -0.4274
 7952TIP3   OH245346   6.525   1.405  14.014  0.0055 -0.4895 -0.4104
 7952TIP3    H145347   6.611   1.434  14.043  0.1583 -1.5695  0.2640
 7952TIP3    H245348   6.464   1.471  14.049  0.3700 -0.7952  0.8526
 7953TIP3   OH245349   4.278   3.580  13.416 -0.0437  0.1303 -0.4831
 7953TIP3    H145350   4.281   3.639  13.342 -1.2037  0.0136 -0.6396
 7953TIP3    H245351   4.214   3.618  13.476 -0.4636 -0.7157 -0.3740
 7954TIP3   OH245352   2.839   6.420   1.021 -0.0810  0.3049 -0.3919
 7954TIP3    H145353   2.780   6.399   0.948  0.1965 -2.2285  0.0183
 7954TIP3    H245354   2.827   6.514   1.036 -2.3372  0.2950 -1.7611
 7955TIP3   OH245355   4.099   4.483  16.677 -0.0584 -0.5719 -0.1173
 7955TIP3    H145356   4.097   4.467  16.772  1.9353 -0.8617 -0.0796
 7955TIP3    H245357   4.187   4.458  16.651 -0.7877 -1.1321 -2.1908
 7956TIP3   OH245358   3.936   1.873   2.012  0.3346  0.1188  0.0724
 7956TIP3    H145359   3.853   1.906   2.049 -0.2604 -1.5646  0.3548
 7956TIP3    H245360   3.909   1.816   1.940  1.2262 -0.5192  0.2187
 7957TIP3   OH245361   4.005   4.672  11.966  0.1279 -0.2317 -0.1660
 7957TIP3    H145362   3.976   4.690  12.056 -0.6887  0.9848 -0.6531
 7957TIP3    H245363   4.099   4.687  11.968  0.1087 -0.1610  0.4771
 7958TIP3   OH245364   4.754   2.863  13.961  0.2435 -0.2442 -0.0327
 7958TIP3    H145365   4.704   2.865  14.042  1.7769 -0.2326  0.9591
 7958TIP3    H245366   4.711   2.796  13.907  0.1360 -1.3966  1.4319
 7959TIP3   OH245367   4.306   1.032   5.286 -1.0357 -0.2907  0.6217
 7959TIP3    H145368   4.383   1.084   5.264 -0.8082 -0.0145  2.0184
 7959TIP3    H245369   4.300   1.035   5.381 -0.6900 -3.2922  0.8337
 7960TIP3   OH245370   5.897   3.253  11.183  0.9241 -0.0001  0.0766
 7960TIP3    H145371   5.969   3.275  11.124  0.6689  0.6101 -0.0095
 7960TIP3    H245372   5.819   3.284  11.138  0.2826 -2.8502 -1.0264
 7961TIP3   OH245373   3.527   3.125   1.295 -0.4079 -0.3356 -0.4616
 7961TIP3    H145374   3.570   3.167   1.221 -3.2149 -0.4107 -2.3125
 7961TIP3    H245375   3.505   3.038   1.263 -1.0862 -0.6051  0.6856
 7962TIP3   OH245376   3.360   0.985  15.392 -0.4768  0.2251 -0.5095
 7962TIP3    H145377   3.288   0.928  15.418  1.6760 -2.3159  0.2643
 7962TIP3    H245378   3.362   1.053  15.460 -0.9685 -0.7852  0.5481
 7963TIP3   OH245379   0.943   0.102  16.678  0.3968 -0.2016  0.0792
 7963TIP3    H145380   1.031   0.098  16.640 -0.0465  1.6965 -1.3318
 7963TIP3    H245381   0.917   0.011  16.691  2.2720 -0.8077 -0.1494
 7964TIP3   OH245382   4.585   5.496   0.507 -0.3883 -0.4746 -0.3287
 7964TIP3    H145383   4.603   5.537   0.591 -1.1277  1.4162 -1.0338
 7964TIP3    H245384   4.581   5.403   0.526  1.5107 -0.2794  1.3413
 7965TIP3   OH245385   6.151   0.752   1.899  0.1282 -0.0064  0.5518
 7965TIP3    H145386   6.145   0.806   1.977  0.2961 -2.6601  2.5495
 7965TIP3    H245387   6.171   0.664   1.932  5.0693 -0.5155 -2.6258
 7966TIP3   OH245388   4.582   0.474  15.423  0.6003  0.0800  0.6183
 7966TIP3    H145389   4.491   0.482  15.396  0.1386  1.5223  2.4514
 7966TIP3    H245390   4.584   0.398  15.481  0.8904 -0.8277 -0.5350
 7967TIP3   OH245391   6.789   4.580   1.959 -0.2434  0.3083  0.4689
 7967TIP3    H145392   6.758   4.492   1.979 -1.8797  0.8097  0.2714
 7967TIP3    H245393   6.796   4.582   1.864  0.3974  0.2134  0.5084
 7968TIP3   OH245394   0.939   4.526  14.469 -0.3739  0.1456  0.3748
 7968TIP3    H145395   1.034   4.514  14.460 -0.5902 -0.3438 -1.9081
 7968TIP3    H245396   0.929   4.619  14.490  0.5664  0.9351 -2.2206
 7969TIP3   OH245397   1.185   5.739  16.206 -0.5083 -0.1535  0.4349
 7969TIP3    H145398   1.250   5.732  16.275 -2.0171  0.3214  1.9694
 7969TIP3    H245399   1.136   5.656  16.211 -0.2605 -0.3624 -0.4629
 7970TIP3   OH245400   3.227   1.275   1.458  0.5485  0.0092 -0.4569
 7970TIP3    H145401   3.277   1.290   1.377  0.1202  0.3608 -0.6606
 7970TIP3    H245402   3.159   1.213   1.433  0.5126 -0.0028 -0.3276
 7971TIP3   OH245403   2.809   3.063   2.639 -0.0668 -0.1240 -0.6459
 7971TIP3    H145404   2.864   3.123   2.690  1.2072 -2.0371  0.3733
 7971TIP3    H245405   2.753   3.021   2.704 -1.0089  0.0200 -1.3504
 7972TIP3   OH245406   5.358   5.568   3.711  0.4321  0.1182  0.5057
 7972TIP3    H145407   5.409   5.512   3.769 -1.2316 -1.1238  0.8645
 7972TIP3    H245408   5.369   5.531   3.624 -0.9752 -1.0989  0.7966
 7973TIP3   OH245409   3.789   6.042  12.822 -0.3347  0.1331 -0.6163
 7973TIP3    H145410   3.824   5.953  12.821 -1.1007 -0.1687 -0.4029
 7973TIP3    H245411   3.867   6.098  12.820  0.1495 -0.5371 -0.6787
 7974TIP3   OH245412   1.662   6.211   0.783  0.0400  0.2323 -0.0299
 7974TIP3    H145413   1.650   6.167   0.866 -0.5372  1.2814  0.4572
 7974TIP3    H245414   1.628   6.299   0.797  1.3251  0.9048 -0.9126
 7975TIP3   OH245415   2.442   0.958  16.193 -0.6771  0.1642 -0.5511
 7975TIP3    H145416   2.488   1.041  16.196  0.5573 -0.4131  3.2909
 7975TIP3    H245417   2.509   0.894  16.168 -1.1302  0.0703 -1.5625
 7976TIP3   OH245418   1.590   3.560   2.726  0.0553  0.4734 -0.2025
 7976TIP3    H145419   1.657   3.532   2.789  0.5093  3.6208  0.8805
 7976TIP3    H245420   1.639   3.600   2.654 -0.5809  1.8300  0.0823
 7977TIP3   OH245421   0.186   6.332   3.814  0.4248  0.1035  0.1968
 7977TIP3    H145422   0.218   6.384   3.741 -0.0307  1.4900  0.9514
 7977TIP3    H245423   0.264   6.286   3.847  0.5003 -1.1500 -1.5889
 7978TIP3   OH245424   1.909   6.066  12.832  0.3839 -0.7013 -0.1051
 7978TIP3    H145425   1.872   6.154  12.825 -1.4784 -1.4218  0.0691
 7978TIP3    H245426   1.927   6.040  12.742 -0.4016 -0.6634 -0.2819
 7979TIP3   OH245427   4.336   5.887   0.006 -0.5918 -0.0802 -0.3625
 7979TIP3    H145428   4.400   5.897  -0.064  0.8507  1.0613  1.0314
 7979TIP3    H245429   4.273   5.957  -0.008  1.4824  2.2957  1.1764
 7980TIP3   OH245430   4.419   6.413  10.509 -0.6854  0.0183 -0.0255
 7980TIP3    H145431   4.359   6.452  10.446 -2.1457  1.3317  2.0304
 7980TIP3    H245432   4.450   6.487  10.561  0.6013 -0.9848  0.6975
 7981TIP3   OH245433   4.337   1.586  13.197 -0.0923  0.2812  0.2926
 7981TIP3    H145434   4.424   1.548  13.207 -0.2343 -0.7628 -1.8813
 7981TIP3    H245435   4.335   1.660  13.259  1.9753 -0.2348  1.0351
 7982TIP3   OH245436   5.473   1.308  16.391  0.4343  0.4012  0.4516
 7982TIP3    H145437   5.494   1.380  16.450  0.0024  0.3201  0.7110
 7982TIP3    H245438   5.454   1.234  16.449 -1.2016  0.6432  0.2896
 7983TIP3   OH245439   5.571   4.010  14.903 -0.7756  0.1901 -0.0054
 7983TIP3    H145440   5.531   3.987  14.820 -0.9266  0.5537 -0.0376
 7983TIP3    H245441   5.516   3.970  14.970 -3.2786  3.4579  0.1467
 7984TIP3   OH245442   5.053   0.760  10.765 -0.0927 -0.0615  0.3592
 7984TIP3    H145443   5.105   0.685  10.795  0.8607  0.3158 -0.2803
 7984TIP3    H245444   5.103   0.836  10.793 -1.2211  0.3536  1.2829
 7985TIP3   OH245445   6.036   2.806   3.054 -0.3481 -0.5683  0.3963
 7985TIP3    H145446   5.982   2.734   3.021 -0.0687 -0.4526 -0.3387
 7985TIP3    H245447   6.104   2.763   3.106 -0.0433 -0.8602 -0.2355
 7986TIP3   OH245448   5.119   5.457  15.009 -0.3706 -0.0153  0.6180
 7986TIP3    H145449   5.025   5.438  15.004 -0.4010 -0.1631  1.5812
 7986TIP3    H245450   5.157   5.405  14.939 -0.8716 -0.9358  0.9983
 7987TIP3   OH245451   4.856   2.481   2.818 -0.2481  0.4762 -0.5052
 7987TIP3    H145452   4.884   2.413   2.757 -2.6248 -1.2640  0.2080
 7987TIP3    H245453   4.934   2.535   2.831  1.4986 -1.5774 -1.8022
 7988TIP3   OH245454   5.444   3.964   0.999 -0.2670  0.2252 -0.7712
 7988TIP3    H145455   5.445   3.910   0.920  1.3439 -0.4961 -0.2912
 7988TIP3    H245456   5.519   4.022   0.989 -0.6946  0.8713 -0.2634
 7989TIP3   OH245457   4.020   2.877  13.569 -0.2798  0.5310 -0.3333
 7989TIP3    H145458   3.963   2.873  13.492 -0.9633  1.3219  0.1188
 7989TIP3    H245459   4.107   2.895  13.533 -0.3068 -0.5967 -1.0234
 7990TIP3   OH245460   5.378   1.433   1.382  0.1859 -0.8890 -0.5310
 7990TIP3    H145461   5.345   1.344   1.367 -0.1901 -0.9587  0.6045
 7990TIP3    H245462   5.433   1.425   1.460 -2.4001  0.4046  1.6061
 7991TIP3   OH245463   3.260   3.370  14.066 -0.5473  0.1865 -0.1620
 7991TIP3    H145464   3.238   3.334  13.980  0.1534 -1.8628  0.4593
 7991TIP3    H245465   3.181   3.360  14.118 -1.2816  2.2891 -0.7565
 7992TIP3   OH245466   3.000   5.426   4.748  0.4263  0.0770  0.2969
 7992TIP3    H145467   2.933   5.358   4.754  0.3251  0.2845  2.2814
 7992TIP3    H245468   2.950   5.507   4.736  0.4120  0.0768  0.3559
 7993TIP3   OH245469   4.031   2.966   1.340 -0.3314 -0.2840  0.1568
 7993TIP3    H145470   4.084   3.042   1.364  1.4683 -1.4631  0.0736
 7993TIP3    H245471   4.009   2.925   1.424 -0.5037 -0.1911  0.1569
 7994TIP3   OH245472   3.617   3.386  11.094 -0.0400  0.7930 -0.6389
 7994TIP3    H145473   3.677   3.443  11.142 -0.2925 -0.3923  1.1839
 7994TIP3    H245474   3.549   3.363  11.158 -0.9693 -0.0463 -1.8690
 7995TIP3   OH245475   4.873   3.172   5.127 -0.0878 -0.2828  0.5634
 7995TIP3    H145476   4.938   3.102   5.134  0.4305  0.1381  0.1111
 7995TIP3    H245477   4.902   3.224   5.052 -1.0591 -0.1955  0.2301
 7996TIP3   OH245478   6.306   5.938  17.178  0.4955  0.2893 -0.3258
 7996TIP3    H145479   6.335   6.007  17.237  0.6036 -0.5357  0.6061
 7996TIP3    H245480   6.352   5.860  17.208 -2.7609 -1.1720  1.4025
 7997TIP3   OH245481   5.120   2.545   0.758 -0.0239  0.3890 -0.0484
 7997TIP3    H145482   5.216   2.543   0.755  0.0042  1.0885  0.0976
 7997TIP3    H245483   5.099   2.635   0.786 -0.7329  0.6184 -1.2369
 7998TIP3   OH245484   3.559   1.154  13.067 -0.3513 -0.3002 -0.4303
 7998TIP3    H145485   3.540   1.087  13.002 -2.4936 -0.6587  0.4886
 7998TIP3    H245486   3.538   1.237  13.024 -2.2398 -0.5653 -0.1035
 7999TIP3   OH245487   6.758   3.032  15.498 -0.4724 -0.0402  0.2921
 7999TIP3    H145488   6.802   3.083  15.566 -1.1809 -0.5306  1.1262
 7999TIP3    H245489   6.799   2.946  15.503 -0.0962  0.0912 -0.3354
 8000TIP3   OH245490   6.797   0.255   2.092  0.2937  0.4502  0.0034
 8000TIP3    H145491   6.787   0.202   2.012  1.4719  0.2986 -0.0665
 8000TIP3    H245492   6.885   0.292   2.084  0.9179 -0.5430  1.8083
 8001TIP3   OH245493   2.799   0.861   0.653 -0.0801 -0.1755 -0.1404
 8001TIP3    H145494   2.752   0.944   0.658 -0.7578 -0.6189  1.2229
 8001TIP3    H245495   2.809   0.833   0.744  1.0396 -1.0946 -0.5200
 8002TIP3   OH245496   0.174   3.035   4.758 -0.0592 -0.1716 -0.1792
 8002TIP3    H145497   0.109   3.084   4.809 -0.2954  0.1154 -0.7577
 8002TIP3    H245498   0.173   2.948   4.797 -2.1653 -0.7453 -1.3751
 8003TIP3   OH245499   2.375   0.713  14.953  0.2206 -1.0477  0.1794
 8003TIP3    H145500   2.467   0.689  14.941  0.3787  0.0887 -1.1360
 8003TIP3    H245501   2.326   0.636  14.923  0.7284 -1.5041  0.4995
 8004TIP3   OH245502   4.106   4.108  14.145 -0.0606  0.4238  0.0687
 8004TIP3    H145503   4.166   4.078  14.076  0.7492 -1.8144  1.6362
 8004TIP3    H245504   4.164   4.136  14.216 -0.7853 -1.4931  1.4977
 8005TIP3   OH245505   0.508   6.358  16.296  0.2773  0.3340 -0.9097
 8005TIP3    H145506   0.483   6.363  16.388 -0.2272  0.3722 -1.0429
 8005TIP3    H245507   0.593   6.400  16.291 -0.5351  2.0796 -0.7646
 8006TIP3   OH245508   1.907   0.592   0.608 -0.6887  0.2991 -0.2622
 8006TIP3    H145509   1.921   0.565   0.698  2.3149 -0.7842 -0.9389
 8006TIP3    H245510   1.970   0.663   0.594 -0.1651 -0.4237 -1.8209
 8007TIP3   OH245511   2.830   4.253  11.217  0.0113  0.1033 -0.0870
 8007TIP3    H145512   2.802   4.301  11.140 -1.6424 -0.2460  0.2414
 8007TIP3    H245513   2.894   4.190  11.185  1.7088  2.0054 -0.6303
 8008TIP3   OH245514   2.757   5.377   1.010 -0.2078 -0.4005  0.6613
 8008TIP3    H145515   2.678   5.429   1.027 -0.1112 -0.2095  0.5310
 8008TIP3    H245516   2.746   5.348   0.919 -1.3090 -2.4277  1.3776
 8009TIP3   OH245517   2.690   0.536  15.886  0.2870  0.5342 -0.4115
 8009TIP3    H145518   2.663   0.628  15.888 -1.0932  0.1698 -1.3709
 8009TIP3    H245519   2.742   0.528  15.806 -0.2072  0.3108 -0.7079
 8010TIP3   OH245520   1.780   0.941   0.031 -0.3417  0.0704  0.4116
 8010TIP3    H145521   1.818   0.882  -0.035 -2.1318 -0.2821 -0.3600
 8010TIP3    H245522   1.790   0.895   0.114  1.0644  0.0903  0.2806
 8011TIP3   OH245523   4.410   2.210  11.390 -0.2185  0.3010  0.0646
 8011TIP3    H145524   4.368   2.283  11.434 -1.6994 -0.5890  0.1837
 8011TIP3    H245525   4.481   2.250  11.339  0.1918  1.5861  1.5614
 8012TIP3   OH245526   0.506   2.311   4.919 -0.1425  0.0035  0.2454
 8012TIP3    H145527   0.495   2.340   5.009 -0.1276 -2.0440  0.9555
 8012TIP3    H245528   0.600   2.315   4.903 -0.3319  3.0723 -0.7087
 8013TIP3   OH245529   2.203   6.360   2.974 -0.8079  0.0591  0.0704
 8013TIP3    H145530   2.155   6.399   3.047 -0.0872 -1.1538  1.2516
 8013TIP3    H245531   2.216   6.269   3.001 -1.7745 -0.8311 -2.2248
 8014TIP3   OH245532   1.843   0.249   5.958  0.1814 -0.3184 -0.1073
 8014TIP3    H145533   1.822   0.163   5.993  1.1298 -0.9199 -0.9702
 8014TIP3    H245534   1.777   0.265   5.891 -0.7387  0.1904  0.8822
 8015TIP3   OH245535   3.685   3.169   5.759 -0.1134 -0.0331 -0.0861
 8015TIP3    H145536   3.624   3.241   5.748 -0.2353  0.1529  1.5205
 8015TIP3    H245537   3.697   3.133   5.671 -1.7593  0.5476 -0.5714
 8016TIP3   OH245538   0.582   4.962  11.771  0.5279 -0.6081 -0.1677
 8016TIP3    H145539   0.549   4.911  11.845 -0.0521 -0.6359 -0.4378
 8016TIP3    H245540   0.503   4.992  11.726  0.8431  0.8789  0.2194
 8017TIP3   OH245541   6.788   5.293   5.418 -0.6001  0.2065  0.1462
 8017TIP3    H145542   6.755   5.338   5.340 -0.2315  0.2006 -0.0180
 8017TIP3    H245543   6.862   5.241   5.386 -0.5043  0.1325  0.4837
 8018TIP3   OH245544   5.850   2.749   4.824  0.3912  0.2722  0.5721
 8018TIP3    H145545   5.807   2.749   4.910  0.4776  0.9279  0.6175
 8018TIP3    H245546   5.779   2.762   4.762  0.3062 -0.3737  0.5288
 8019TIP3   OH245547   1.250   4.382   2.825 -0.1111  0.5432 -0.2956
 8019TIP3    H145548   1.267   4.476   2.825  0.4136  0.5105  2.0933
 8019TIP3    H245549   1.297   4.348   2.901  0.6358 -1.8694 -1.7122
 8020TIP3   OH245550   6.622   6.424  16.651 -0.1956  0.0477  0.4003
 8020TIP3    H145551   6.688   6.380  16.705 -1.0898 -0.9080  0.7503
 8020TIP3    H245552   6.545   6.368  16.657 -0.7977  0.7277 -0.6482
 8021TIP3   OH245553   0.318   5.055   5.861  0.1915 -0.4276  0.3974
 8021TIP3    H145554   0.248   5.113   5.890 -0.5851 -0.8720 -0.5164
 8021TIP3    H245555   0.279   5.005   5.789  1.7798  0.1239 -0.9081
 8022TIP3   OH245556   0.375   0.243   0.810 -0.3737  0.1460  0.0972
 8022TIP3    H145557   0.390   0.196   0.892 -1.2206  0.8381  0.6719
 8022TIP3    H245558   0.379   0.336   0.834  1.2214  0.4029 -1.0046
 8023TIP3   OH245559   0.796   0.072   6.467  0.1235  0.2171  0.0647
 8023TIP3    H145560   0.869   0.123   6.501  1.7613 -1.1788 -1.2011
 8023TIP3    H245561   0.797  -0.009   6.517  0.3587 -0.3943 -0.9026
 8024TIP3   OH245562   1.386   3.052  15.981  0.0373  0.0789 -0.2696
 8024TIP3    H145563   1.365   3.145  15.976 -1.0158 -0.1050  0.5133
 8024TIP3    H245564   1.304   3.009  16.006  0.1745 -1.2102 -1.8176
 8025TIP3   OH245565   4.748   0.837   0.773 -0.1940 -0.3860 -0.1174
 8025TIP3    H145566   4.734   0.921   0.818  0.4637  0.3632 -1.2791
 8025TIP3    H245567   4.822   0.797   0.820  1.5914  1.1462 -1.4867
 8026TIP3   OH245568   4.197   1.716   4.278 -0.6106  0.1401  0.1825
 8026TIP3    H145569   4.158   1.798   4.250  0.8792  0.8550  0.0977
 8026TIP3    H245570   4.130   1.650   4.260 -0.7498  0.9031 -2.5220
 8027TIP3   OH245571   1.421   6.224  11.387  0.5495 -0.4314 -0.1999
 8027TIP3    H145572   1.479   6.166  11.339 -0.9426 -0.3815 -2.1691
 8027TIP3    H245573   1.364   6.165  11.437  0.7066 -0.5721 -0.1864
 8028TIP3   OH245574   6.199   4.291   2.823  0.5926 -0.0222 -0.1997
 8028TIP3    H145575   6.208   4.208   2.776  1.7908 -0.9944  1.6708
 8028TIP3    H245576   6.125   4.334   2.779  1.0978 -1.2144 -2.4101
 8029TIP3   OH245577   2.092   1.409   2.363 -0.0035 -0.0244 -0.5171
 8029TIP3    H145578   2.011   1.443   2.325  0.8752  0.0846 -2.4508
 8029TIP3    H245579   2.067   1.376   2.449 -1.5708  2.3533  0.0403
 8030TIP3   OH245580   2.280   4.897   3.693 -0.3963  0.6256 -0.3453
 8030TIP3    H145581   2.359   4.842   3.693 -1.1689 -0.5259  0.2313
 8030TIP3    H245582   2.242   4.883   3.606 -1.0300 -0.4429  0.0832
 8031TIP3   OH245583   4.912   4.662  15.581  0.2862 -0.2441  0.4052
 8031TIP3    H145584   4.933   4.684  15.671  1.3810 -0.9767  0.3354
 8031TIP3    H245585   4.871   4.742  15.546  0.8624  0.4192  1.2233
 8032TIP3   OH245586   1.648   1.503  10.741 -0.1620  0.0064 -0.2977
 8032TIP3    H145587   1.726   1.478  10.790 -0.4727 -0.0648  0.1586
 8032TIP3    H245588   1.608   1.420  10.716 -1.8417 -0.0318  2.2285
 8033TIP3   OH245589   5.790   6.638   1.788  0.7346 -0.3006 -0.3731
 8033TIP3    H145590   5.881   6.619   1.762  1.0931 -0.4937  0.9448
 8033TIP3    H245591   5.790   6.731   1.808  0.3872 -0.0899 -1.3316
 8034TIP3   OH245592   3.735   2.184   2.017  0.1959  0.0771  0.1319
 8034TIP3    H145593   3.675   2.128   2.067  1.0860 -1.7241 -0.7164
 8034TIP3    H245594   3.751   2.259   2.075 -2.7783  0.6212  0.3947
 8035TIP3   OH245595   1.472   5.833   3.805  0.1957  0.6033  0.8878
 8035TIP3    H145596   1.377   5.825   3.808  0.2481 -1.8574 -0.6542
 8035TIP3    H245597   1.491   5.866   3.717  0.7687 -0.6699  0.4996
 8036TIP3   OH245598   6.736   0.037  16.652 -0.1144  0.1855  0.0190
 8036TIP3    H145599   6.650  -0.004  16.644 -0.0996  0.1813 -0.1202
 8036TIP3    H245600   6.773  -0.001  16.732  0.6066 -1.3971 -1.0149
 8037TIP3   OH245601   3.204   1.894   1.723 -0.2016  0.2369  0.3422
 8037TIP3    H145602   3.267   1.941   1.777  0.0899  0.6175 -0.3138
 8037TIP3    H245603   3.130   1.954   1.715 -0.9461 -0.4801  1.6697
 8038TIP3   OH245604   4.162   4.801  14.793  0.2635  0.1207 -0.0629
 8038TIP3    H145605   4.152   4.893  14.817  1.6300 -0.4443  3.1048
 8038TIP3    H245606   4.134   4.752  14.870 -2.6681 -2.3454 -2.4157
 8039TIP3   OH245607   0.268   1.896   5.886  0.1394  0.2502  0.5099
 8039TIP3    H145608   0.260   1.990   5.872  0.8381 -0.0515 -2.6429
 8039TIP3    H245609   0.362   1.880   5.890  0.0868 -0.4565 -0.6549
 8040TIP3   OH245610   5.875   1.692  10.604 -0.1452  0.1636  1.3058
 8040TIP3    H145611   5.837   1.668  10.689  1.6623 -1.3491  1.7477
 8040TIP3    H245612   5.867   1.612  10.551  1.1549  0.2318  0.9798
 8041TIP3   OH245613   3.088   6.559   4.513  0.1416  0.0752 -0.0109
 8041TIP3    H145614   3.172   6.602   4.498 -0.5669  1.7620  0.5501
 8041TIP3    H245615   3.093   6.478   4.462  1.8984  0.3686 -0.3789
 8042TIP3   OH245616   1.410   1.733  15.029 -0.1409 -0.1313 -0.5147
 8042TIP3    H145617   1.412   1.827  15.046 -1.6194 -0.1075 -0.3658
 8042TIP3    H245618   1.392   1.694  15.115  2.1841 -0.7037 -0.2206
 8043TIP3   OH245619   6.090   5.138  14.582  0.6792  0.4997 -0.5379
 8043TIP3    H145620   6.098   5.218  14.530  1.1885  2.1159  1.8900
 8043TIP3    H245621   5.998   5.135  14.607  0.0792 -1.1041 -2.6430
 8044TIP3   OH245622   5.187   1.125   5.985  0.4214  0.2542 -0.5144
 8044TIP3    H145623   5.099   1.156   6.007  0.4407  0.7586 -1.0958
 8044TIP3    H245624   5.245   1.189   6.025  0.6178 -1.0621  1.4309
 8045TIP3   OH245625   6.130   0.905   3.364 -0.5775 -0.2254 -0.2843
 8045TIP3    H145626   6.091   0.872   3.283 -1.2884  1.9278 -0.8772
 8045TIP3    H245627   6.150   0.997   3.345  1.3591 -0.2743  1.2572
 8046TIP3   OH245628   3.579   0.768   1.952 -0.3770 -0.2593 -0.1938
 8046TIP3    H145629   3.548   0.854   1.924  2.0200  0.6366 -0.3490
 8046TIP3    H245630   3.518   0.743   2.022 -1.4279  1.3213 -0.4737
 8047TIP3   OH245631   1.419   5.958   3.494  0.3426 -0.1723 -0.1474
 8047TIP3    H145632   1.429   6.049   3.465  1.0214  0.0506  0.7564
 8047TIP3    H245633   1.508   5.923   3.494  0.2468 -0.4391  0.7781
 8048TIP3   OH245634   3.255   3.552   0.487  0.1408 -0.0275  0.0533
 8048TIP3    H145635   3.205   3.514   0.415 -0.4147  0.2348  0.2946
 8048TIP3    H245636   3.345   3.555   0.455 -0.1112  0.1530 -0.6538
 8049TIP3   OH245637   4.615   1.026  16.075 -0.0967 -1.4206  0.6148
 8049TIP3    H145638   4.576   0.971  16.143 -1.6101 -1.1518  0.0123
 8049TIP3    H245639   4.709   1.016  16.087 -0.2819 -0.6269  3.3627
 8050TIP3   OH245640   6.255   5.102  12.862 -0.3366 -0.2750  0.0925
 8050TIP3    H145641   6.261   5.197  12.863 -1.6752 -0.1524 -0.9495
 8050TIP3    H245642   6.331   5.074  12.810 -0.8169  0.3277 -0.9586
 8051TIP3   OH245643   4.063   0.009  16.051  0.2267 -0.1779  0.2012
 8051TIP3    H145644   4.027  -0.045  16.122  0.9114 -0.4723  0.3336
 8051TIP3    H245645   4.023   0.095  16.064 -0.6099 -0.5591  0.1991
 8052TIP3   OH245646   1.854   3.904   1.549 -0.1947  0.3612  0.0302
 8052TIP3    H145647   1.905   3.975   1.512  1.1874 -0.8859 -0.5479
 8052TIP3    H245648   1.825   3.853   1.473 -0.0175 -0.4366  0.4839
 8053TIP3   OH245649   1.865   3.309  14.091 -0.0990 -0.2197 -0.5237
 8053TIP3    H145650   1.950   3.352  14.103 -0.9245  0.8378  2.4918
 8053TIP3    H245651   1.801   3.381  14.098 -1.3411 -1.3679  0.4575
 8054TIP3   OH245652   1.191   3.998  15.447  0.1016 -0.0446  0.2527
 8054TIP3    H145653   1.150   4.081  15.471  0.1503 -0.4065  1.6766
 8054TIP3    H245654   1.268   4.023  15.396  0.3424  0.8216  1.0149
 8055TIP3   OH245655   3.492   5.747  12.013 -0.1469 -0.4414 -0.1342
 8055TIP3    H145656   3.475   5.751  12.107  0.9641  1.3784  0.0454
 8055TIP3    H245657   3.449   5.826  11.978 -2.3010 -2.1136 -1.5168
 8056TIP3   OH245658   0.720   1.209   0.601  0.7289  0.5180  0.3420
 8056TIP3    H145659   0.668   1.146   0.551 -1.4022  1.4637  1.2553
 8056TIP3    H245660   0.786   1.156   0.646 -1.4539 -1.2277  1.6787
 8057TIP3   OH245661   5.591   0.154   3.446  0.1011  0.5609  0.5734
 8057TIP3    H145662   5.520   0.090   3.436 -0.3385  1.3176 -1.6534
 8057TIP3    H245663   5.575   0.194   3.532 -1.1328 -0.4925  0.8762
 8058TIP3   OH245664   2.657   3.117   1.643 -0.4073 -0.5211  0.1913
 8058TIP3    H145665   2.622   3.195   1.686 -1.0785 -0.3135 -0.6845
 8058TIP3    H245666   2.740   3.099   1.688 -0.1708  0.7872  0.3204
 8059TIP3   OH245667   2.589   5.160  11.412  0.6186  0.7551 -0.1215
 8059TIP3    H145668   2.622   5.150  11.501 -0.5240 -0.7536  0.1794
 8059TIP3    H245669   2.666   5.151  11.357  0.9576 -1.4939  0.6115
 8060TIP3   OH245670   5.607   6.079  16.665 -0.1252 -0.0191  0.2497
 8060TIP3    H145671   5.561   6.122  16.737 -0.3217  0.9952 -0.4632
 8060TIP3    H245672   5.537   6.036  16.615 -0.0168 -0.4943  0.4937
 8061TIP3   OH245673   0.052   3.409  14.814  0.3047  0.4504 -0.7046
 8061TIP3    H145674   0.118   3.341  14.801  1.0203  0.6693  1.4034
 8061TIP3    H245675  -0.001   3.378  14.887  0.5980  2.0861  0.2509
 8062TIP3   OH245676   0.374   4.661  12.720  0.2837 -0.3066  0.1416
 8062TIP3    H145677   0.452   4.639  12.771  1.0994 -0.5809 -1.1574
 8062TIP3    H245678   0.372   4.756  12.718 -0.0011 -0.2834  1.0111
 8063TIP3   OH245679   5.689   6.378   1.609  0.2134  0.3134  0.0555
 8063TIP3    H145680   5.620   6.336   1.558  0.3239  0.0225  0.1466
 8063TIP3    H245681   5.642   6.426   1.677  0.0650  0.7064 -0.3209
 8064TIP3   OH245682   4.552   4.845   5.113 -0.1422 -0.0512  0.5067
 8064TIP3    H145683   4.637   4.814   5.144  0.4330  0.3711 -0.5894
 8064TIP3    H245684   4.503   4.864   5.193  0.3951 -1.3195  1.1667
 8065TIP3   OH245685   3.231   0.406  11.988 -0.0024  0.2548 -0.2110
 8065TIP3    H145686   3.171   0.444  12.053 -0.2174  0.5121 -0.5557
 8065TIP3    H245687   3.209   0.313  11.988 -1.3417  0.5438 -1.2882
 8066TIP3   OH245688   6.100   4.896  12.307  0.5933  0.2937  0.8019
 8066TIP3    H145689   6.159   4.854  12.245 -0.0309  0.5170  0.0363
 8066TIP3    H245690   6.078   4.828  12.370  1.9362  0.3033  1.3002
 8067TIP3   OH245691   0.974   0.640   3.876  0.6944 -0.4495  0.2239
 8067TIP3    H145692   0.951   0.550   3.901  1.8499 -0.7147  0.4030
 8067TIP3    H245693   1.066   0.648   3.900  1.2251  0.0555 -1.8466
 8068TIP3   OH245694   6.233   4.166  13.554  0.1566  0.1738  0.2637
 8068TIP3    H145695   6.296   4.100  13.524  0.1198  0.8916 -1.5342
 8068TIP3    H245696   6.168   4.171  13.484 -0.9260  0.7394  1.2632
 8069TIP3   OH245697   3.594   2.503  14.342  0.4412 -0.5776  0.2150
 8069TIP3    H145698   3.531   2.568  14.372  2.2849  2.2651 -1.5564
 8069TIP3    H245699   3.642   2.477  14.421 -0.5632 -0.0523  1.0166
 8070TIP3   OH245700   0.772   2.274   0.642 -0.5767  0.0804  0.3240
 8070TIP3    H145701   0.774   2.293   0.736 -1.3229  0.9419  0.1831
 8070TIP3    H245702   0.772   2.360   0.600 -2.6531 -0.2077 -0.3839
 8071TIP3   OH245703   6.771   3.900  15.518 -0.2953  0.2061  0.1678
 8071TIP3    H145704   6.795   3.886  15.426 -2.0875 -1.0271 -0.1688
 8071TIP3    H245705   6.686   3.944  15.514  0.0917  1.1100  1.2691
 8072TIP3   OH245706   1.885   0.797   5.117 -0.1596  0.6978 -0.3578
 8072TIP3    H145707   1.829   0.864   5.155  0.8317  1.7127 -0.6148
 8072TIP3    H245708   1.837   0.767   5.039 -0.7027  0.9646 -0.1316
 8073TIP3   OH245709   6.181   3.581  16.799  0.1882  0.1040 -0.3578
 8073TIP3    H145710   6.242   3.522  16.754  0.3881 -0.1352  0.2192
 8073TIP3    H245711   6.197   3.667  16.759  0.5638 -0.0512 -0.5475
 8074TIP3   OH245712   6.342   6.575   2.009 -0.1517 -0.0166  0.2359
 8074TIP3    H145713   6.402   6.557   2.081  0.8989 -2.3226 -1.1166
 8074TIP3    H245714   6.272   6.511   2.019 -0.6402  0.4495 -0.1352
 8075TIP3   OH245715   0.726   6.540  16.342  0.0483  0.5481 -0.1100
 8075TIP3    H145716   0.768   6.621  16.312  1.0069 -0.0359 -0.3699
 8075TIP3    H245717   0.749   6.535  16.435  1.6275 -0.3866 -0.5117
 8076TIP3   OH245718   3.586   3.497   0.041 -0.3064  0.1386 -0.2873
 8076TIP3    H145719   3.666   3.517   0.089  0.9298 -2.5315 -1.0068
 8076TIP3    H245720   3.613   3.492  -0.051 -1.2904 -0.7549 -0.5520
 8077TIP3   OH245721   6.392   0.210  15.380 -0.3501  0.6063 -0.2923
 8077TIP3    H145722   6.328   0.199  15.451  0.0537  2.0522  0.3312
 8077TIP3    H245723   6.433   0.294  15.398  0.6821  0.3931 -1.5366
 8078TIP3   OH245724   5.528   2.406  14.108  0.2255  1.0069  0.0720
 8078TIP3    H145725   5.544   2.480  14.050  0.9308 -0.2422 -1.4076
 8078TIP3    H245726   5.432   2.398  14.111  0.1816  1.1477 -0.8398
 8079TIP3   OH245727   1.819   2.410   4.206  0.5209 -0.2255 -0.0637
 8079TIP3    H145728   1.851   2.496   4.236 -0.2544  0.3515 -0.8587
 8079TIP3    H245729   1.798   2.363   4.287  0.4708  0.5231  0.3670
 8080TIP3   OH245730   5.978   4.018   1.026 -0.3066  0.2647 -0.1466
 8080TIP3    H145731   6.037   4.083   0.989 -1.1970  0.4202 -1.3756
 8080TIP3    H245732   6.035   3.946   1.053  0.4948  0.6582 -0.7443
 8081TIP3   OH245733   5.721   0.708  16.151 -0.7065 -0.2715 -0.0185
 8081TIP3    H145734   5.671   0.685  16.229  0.6719  0.4990  1.1330
 8081TIP3    H245735   5.810   0.726  16.183 -0.0208 -0.2436 -1.8007
 8082TIP3   OH245736   2.410   5.737   5.960 -0.3326  0.2915 -0.2161
 8082TIP3    H145737   2.440   5.646   5.964  1.5032  0.8889  2.3341
 8082TIP3    H245738   2.359   5.749   6.040  0.7019  1.8662  0.2467
 8083TIP3   OH245739   4.484   4.150  13.140  0.1160 -0.6692  0.3634
 8083TIP3    H145740   4.484   4.155  13.235 -0.7759  0.4797  0.3290
 8083TIP3    H245741   4.512   4.237  13.111  2.1324 -1.5249 -0.4547
 8084TIP3   OH245742   0.287   3.772   2.839  0.0743  0.4422 -0.1680
 8084TIP3    H145743   0.282   3.822   2.921 -0.7271 -1.1967  0.8312
 8084TIP3    H245744   0.215   3.806   2.786  0.5631  1.4787 -0.1889
 8085TIP3   OH245745   1.953   3.808   3.635  0.0755 -0.1662 -0.3937
 8085TIP3    H145746   1.970   3.891   3.679  0.2051 -0.0112 -0.7285
 8085TIP3    H245747   1.992   3.742   3.692  0.7744  0.0868 -0.5696
 8086TIP3   OH245748   0.549   4.873   1.877 -0.1695 -0.1019 -0.3350
 8086TIP3    H145749   0.542   4.788   1.834 -0.3515 -0.4661  0.3937
 8086TIP3    H245750   0.612   4.922   1.824 -1.7218  0.1239 -2.0625
 8087TIP3   OH245751   3.611   3.333  11.927 -0.7066 -0.0480  0.0035
 8087TIP3    H145752   3.599   3.300  12.016  0.1467  1.9900  0.9464
 8087TIP3    H245753   3.530   3.381  11.908 -0.1682  1.0814  0.4542
 8088TIP3   OH245754   2.565   1.702  11.233  0.1540  0.2189 -0.0907
 8088TIP3    H145755   2.522   1.683  11.150  1.2512  1.0321 -0.8897
 8088TIP3    H245756   2.547   1.795  11.248 -1.8466 -0.3798  1.7266
 8089TIP3   OH245757   3.263   0.555   4.006 -0.4863 -0.4004 -0.2794
 8089TIP3    H145758   3.343   0.523   4.047 -0.3297 -1.5258 -1.3795
 8089TIP3    H245759   3.266   0.519   3.917 -1.3820  0.9530 -0.8855
 8090TIP3   OH245760   0.869   2.860  16.706  0.3816 -0.4414  0.0842
 8090TIP3    H145761   0.782   2.850  16.667  0.6328 -0.4900 -0.4730
 8090TIP3    H245762   0.917   2.782  16.677  1.9261  1.5077 -3.1316
 8091TIP3   OH245763   4.216   2.006  15.936  0.2354 -0.2252  0.4491
 8091TIP3    H145764   4.167   2.037  16.012 -0.4832 -0.4893  0.1103
 8091TIP3    H245765   4.306   1.999  15.966  0.2692  1.2865  0.8018
 8092TIP3   OH245766   4.297   2.962   1.549 -0.7589 -0.7595  0.4099
 8092TIP3    H145767   4.237   2.898   1.587 -1.1616 -0.6772 -0.0688
 8092TIP3    H245768   4.353   2.912   1.491 -0.2760 -0.8542  0.9475
 8093TIP3   OH245769   5.200   3.016  12.861 -0.2375  0.6223  0.4081
 8093TIP3    H145770   5.261   3.064  12.917  0.5072 -0.2114  0.3474
 8093TIP3    H245771   5.219   2.923  12.879  0.8123  0.2881 -1.9881
 8094TIP3   OH245772   4.646   6.517  17.118 -0.5739  0.3210 -0.1568
 8094TIP3    H145773   4.638   6.592  17.178  0.7151  0.4159 -0.0754
 8094TIP3    H245774   4.596   6.447  17.160 -0.7732  0.7737  0.3726
 8095TIP3   OH245775   1.474   4.866  12.426 -0.1040  0.2705  0.3283
 8095TIP3    H145776   1.521   4.921  12.364 -0.5635 -1.1809 -1.3697
 8095TIP3    H245777   1.425   4.928  12.480  0.9522  1.6078 -0.1875
 8096TIP3   OH245778   3.545   5.020  16.051 -0.1539  0.1986  0.2945
 8096TIP3    H145779   3.614   5.078  16.017  0.5527 -0.6969  0.1492
 8096TIP3    H245780   3.562   5.015  16.145  0.8310 -1.0628  0.0839
 8097TIP3   OH245781   0.548   4.456   3.906 -0.8248  0.1287 -0.1402
 8097TIP3    H145782   0.511   4.371   3.884 -2.2109  0.6059  0.2549
 8097TIP3    H245783   0.527   4.512   3.831  1.0157 -0.0968 -0.8910
 8098TIP3   OH245784   1.665   0.672   5.370 -0.0088  0.0975  0.4927
 8098TIP3    H145785   1.596   0.689   5.434 -0.9795  1.0201 -0.7470
 8098TIP3    H245786   1.729   0.743   5.384 -0.0607  0.1095  0.6634
 8099TIP3   OH245787   2.499   0.355  11.449 -0.6112 -0.2049  0.0987
 8099TIP3    H145788   2.428   0.352  11.385  2.0448 -0.6215 -3.1223
 8099TIP3    H245789   2.501   0.267  11.487 -1.4984 -0.3262 -0.1141
 8100TIP3   OH245790   1.755   3.777   5.494  0.0025  0.2345  0.3577
 8100TIP3    H145791   1.837   3.784   5.445 -0.6337  0.8422 -0.6581
 8100TIP3    H245792   1.743   3.683   5.509 -0.0120 -0.0114 -1.0714
 8101TIP3   OH245793   1.665   0.591  11.981 -0.2254  0.4387  0.7266
 8101TIP3    H145794   1.601   0.660  11.964  1.8928  2.6135  1.0953
 8101TIP3    H245795   1.624   0.538  12.050 -1.4863  1.9440  1.1996
 8102TIP3   OH245796   4.638   6.147   0.345  0.2561 -0.2404  0.5226
 8102TIP3    H145797   4.720   6.149   0.295 -0.1411  0.0453 -0.1365
 8102TIP3    H245798   4.585   6.081   0.301 -0.7171  1.1419 -0.4571
 8103TIP3   OH245799   5.453   3.373   2.621  0.1263 -0.2763 -0.7492
 8103TIP3    H145800   5.407   3.367   2.537 -0.0505  2.5514 -0.9409
 8103TIP3    H245801   5.384   3.364   2.686 -0.4955  1.9624 -1.0198
 8104TIP3   OH245802   2.303   5.790   0.338 -0.6392 -0.0663  0.3427
 8104TIP3    H145803   2.301   5.873   0.387 -1.0310  0.9746 -1.3616
 8104TIP3    H245804   2.221   5.746   0.363 -0.3542 -0.0356  1.3862
 8105TIP3   OH245805   2.690   1.935  11.670  0.0423 -0.3474 -0.0568
 8105TIP3    H145806   2.719   1.847  11.694  2.3304  0.6415  1.0739
 8105TIP3    H245807   2.767   1.976  11.630 -0.3859  1.7355  1.1026
 8106TIP3   OH245808   6.249   5.935   0.243  0.0772  0.3693  0.2458
 8106TIP3    H145809   6.282   5.861   0.192 -0.6942 -0.1891  0.5324
 8106TIP3    H245810   6.257   6.010   0.184  0.3705 -0.0381 -0.2458
 8107TIP3   OH245811   4.638   3.982  15.417 -0.0970 -0.1723  0.1244
 8107TIP3    H145812   4.668   4.066  15.382 -2.5631  0.9609  0.4823
 8107TIP3    H245813   4.712   3.949  15.467  0.8572  1.9836  0.2660
 8108TIP3   OH245814   4.253   2.553   1.485  0.2779 -0.2967  0.4194
 8108TIP3    H145815   4.237   2.616   1.555  1.3785  2.6181 -1.7196
 8108TIP3    H245816   4.195   2.580   1.414  1.7103 -0.8358 -1.0445
 8109TIP3   OH245817   4.406   4.882  12.723  0.3573  0.0006 -0.2891
 8109TIP3    H145818   4.373   4.844  12.641  0.5666 -0.3347 -0.2214
 8109TIP3    H245819   4.346   4.955  12.742  0.2052 -0.0309 -0.6477
 8110TIP3   OH245820   4.003   4.103  13.445 -0.3082  0.0583 -0.1076
 8110TIP3    H145821   4.096   4.123  13.433 -0.5400  0.8775 -0.7005
 8110TIP3    H245822   3.984   4.129  13.535 -0.7458  3.4005 -1.0247
 8111TIP3   OH245823   0.643   3.707   5.249 -0.8666 -0.2336  0.2032
 8111TIP3    H145824   0.670   3.672   5.164 -1.2018 -1.6554  0.6479
 8111TIP3    H245825   0.547   3.699   5.249 -1.1317  2.1830 -0.2760
 8112TIP3   OH245826   4.152   5.988  16.573  0.0535  0.0719  0.0438
 8112TIP3    H145827   4.166   5.988  16.668 -0.9213 -1.5636  0.2198
 8112TIP3    H245828   4.232   5.950  16.537 -0.4304 -1.3434  0.4008
 8113TIP3   OH245829   4.937   6.020   1.696  0.3188 -0.2797  0.0450
 8113TIP3    H145830   4.858   6.020   1.750 -0.0038  0.2063 -0.4233
 8113TIP3    H245831   4.904   6.018   1.606  0.7955  1.8527 -0.2099
 8114TIP3   OH245832   1.514   3.711  12.988  0.2232 -0.0710 -0.2765
 8114TIP3    H145833   1.489   3.697  13.079  0.9047 -2.8345 -0.4105
 8114TIP3    H245834   1.476   3.637  12.941  0.4944  0.9062 -2.1164
 8115TIP3   OH245835   4.177   6.369   2.521  0.0499 -0.2529  0.1240
 8115TIP3    H145836   4.178   6.460   2.550  1.7581 -0.0963 -0.2899
 8115TIP3    H245837   4.135   6.321   2.593 -0.1451  0.7533  0.7017
 8116TIP3   OH245838   2.052   3.593   0.985  0.6756 -0.1683  0.1086
 8116TIP3    H145839   2.010   3.534   0.922  1.2980  0.0962 -0.5712
 8116TIP3    H245840   1.991   3.598   1.058  0.0768 -0.7217 -0.3453
 8117TIP3   OH245841   0.801   3.165  10.581  0.5081 -0.1622  0.6291
 8117TIP3    H145842   0.761   3.078  10.579  1.5137 -0.6406  0.6407
 8117TIP3    H245843   0.895   3.148  10.580  0.7227  0.9183  1.2383
 8118TIP3   OH245844   4.211   4.712  14.366 -0.0311 -0.1871  0.1048
 8118TIP3    H145845   4.303   4.714  14.339  0.1804 -0.8105  0.7544
 8118TIP3    H245846   4.163   4.699  14.285  0.5244 -0.8877 -0.1213
 8119TIP3   OH245847   4.441   1.888   1.410 -0.0937  0.1845  0.2877
 8119TIP3    H145848   4.423   1.891   1.504 -0.9072  1.5531  0.1192
 8119TIP3    H245849   4.400   1.968   1.375  2.1579  0.9037 -0.9011
 8120TIP3   OH245850   3.217   5.033  14.376 -0.4486 -0.0737  0.2811
 8120TIP3    H145851   3.178   5.118  14.398 -2.3092 -1.1731  1.5352
 8120TIP3    H245852   3.216   5.030  14.281  2.1972  2.3827  0.0420
 8121TIP3   OH245853   3.338   5.021  13.087  0.2435 -0.1286 -0.1932
 8121TIP3    H145854   3.396   4.951  13.116 -0.5358 -0.4654  0.6059
 8121TIP3    H245855   3.260   5.012  13.142 -0.2421  0.8027 -0.7000
 8122TIP3   OH245856   2.286   0.084  13.631 -0.1676 -0.7198 -0.2169
 8122TIP3    H145857   2.229   0.156  13.657 -0.3304 -1.6827  2.4509
 8122TIP3    H245858   2.227   0.012  13.611  0.0503 -0.8203 -0.5153
 8123TIP3   OH245859   1.331   1.826  13.745  0.2854  0.1120  0.0567
 8123TIP3    H145860   1.323   1.849  13.653  3.0253 -2.1264 -0.8724
 8123TIP3    H245861   1.397   1.885  13.780  2.0085 -1.4002 -0.4766
 8124TIP3   OH245862   4.721   1.492   0.078 -0.0469 -0.0771 -0.3873
 8124TIP3    H145863   4.692   1.578   0.108  0.2981 -0.1577  0.1944
 8124TIP3    H245864   4.769   1.509  -0.002  0.0193  0.2750 -0.2740
 8125TIP3   OH245865   1.498   2.120  12.113 -0.5125  0.3748 -0.3938
 8125TIP3    H145866   1.488   2.133  12.207  0.0430  1.5773 -0.4889
 8125TIP3    H245867   1.477   2.205  12.074 -2.4972 -0.5337 -1.5223
 8126TIP3   OH245868   2.028   1.502  15.621  0.0847 -0.3082 -0.0120
 8126TIP3    H145869   2.011   1.424  15.569  1.3157  0.6788 -2.0537
 8126TIP3    H245870   1.956   1.561  15.599  1.2870  0.6029 -1.7496
 8127TIP3   OH245871   4.842   4.960   0.417 -0.6798  0.3389 -0.0125
 8127TIP3    H145872   4.855   4.992   0.506 -0.4592 -1.3797  0.6083
 8127TIP3    H245873   4.926   4.972   0.374 -0.8671  1.4366 -0.0889
 8128TIP3   OH245874   3.759   1.632   5.859 -0.1973  0.4652  0.5626
 8128TIP3    H145875   3.818   1.701   5.888  1.1343 -0.2719 -0.3187
 8128TIP3    H245876   3.786   1.613   5.769 -0.2173 -1.5085  0.9335
 8129TIP3   OH245877   6.756   3.860  15.224  0.8565  0.2027  0.0851
 8129TIP3    H145878   6.837   3.863  15.173  0.8707 -1.9055 -0.0758
 8129TIP3    H245879   6.715   3.777  15.201  0.0368 -0.0810  2.2686
 8130TIP3   OH245880   5.906   5.491  13.117  1.0579  0.0664  0.3666
 8130TIP3    H145881   5.822   5.535  13.134  0.4301 -1.0273  0.1559
 8130TIP3    H245882   5.961   5.514  13.192 -0.0698 -0.7445  1.4766
 8131TIP3   OH245883   4.154   3.728  11.553 -0.4316 -0.0152 -0.0608
 8131TIP3    H145884   4.208   3.798  11.590 -0.5155 -0.3643  0.7343
 8131TIP3    H245885   4.129   3.674  11.628  0.6004 -1.5779 -0.7720
 8132TIP3   OH245886   6.630   6.574  15.557  0.4459 -0.4005  0.0403
 8132TIP3    H145887   6.611   6.627  15.635 -1.2043 -0.0157 -0.5807
 8132TIP3    H245888   6.725   6.563  15.558  0.4851 -0.2722  2.0131
 8133TIP3   OH245889   5.294   4.013   3.213  0.0215  0.0187 -0.3370
 8133TIP3    H145890   5.384   4.043   3.200  0.2211  0.0408  0.9514
 8133TIP3    H245891   5.302   3.920   3.234 -0.2799 -0.0303 -0.4304
 8134TIP3   OH245892   5.824   3.106   1.859 -0.1491  0.3948 -0.0278
 8134TIP3    H145893   5.785   3.173   1.915 -2.5385  0.5783 -1.7577
 8134TIP3    H245894   5.802   3.023   1.902 -1.0880  0.5729 -0.1396
 8135TIP3   OH245895   5.640   4.371   1.332  0.4953 -0.0877 -0.2941
 8135TIP3    H145896   5.663   4.399   1.420  0.2797 -0.6067 -0.0658
 8135TIP3    H245897   5.660   4.277   1.330 -0.4247 -0.2975 -0.4709
 8136TIP3   OH245898   1.470   1.843  13.395  0.0254 -0.3098  0.1892
 8136TIP3    H145899   1.465   1.814  13.486 -0.1183  1.2218  0.6918
 8136TIP3    H245900   1.553   1.808  13.363  0.4561 -0.1909  1.1543
 8137TIP3   OH245901   6.379   2.577  15.692  0.1741  0.3607  0.2977
 8137TIP3    H145902   6.361   2.671  15.681 -1.5747  0.0235  0.0220
 8137TIP3    H245903   6.305   2.533  15.650 -0.2913 -1.1192  2.4673
 8138TIP3   OH245904   2.694   0.078  12.816  0.4980 -0.4680 -0.4779
 8138TIP3    H145905   2.748   0.134  12.761  0.9407 -0.9619 -0.5492
 8138TIP3    H245906   2.719   0.101  12.906 -1.2667  1.4023 -0.3804
 8139TIP3   OH245907   0.360   4.203  14.002  0.4418  0.9120  0.3817
 8139TIP3    H145908   0.443   4.208  13.956  1.1478 -0.5637  1.3987
 8139TIP3    H245909   0.351   4.288  14.045  1.2885  1.1793  0.0555
 8140TIP3   OH245910   2.356   1.319  11.310 -0.4428  0.0632 -0.1963
 8140TIP3    H145911   2.308   1.323  11.228 -0.5152 -1.9660 -0.3025
 8140TIP3    H245912   2.448   1.311  11.284 -0.5424 -1.6113 -0.1588
 8141TIP3   OH245913   1.821   4.241  10.914  0.3638  0.3383  0.0894
 8141TIP3    H145914   1.733   4.269  10.886 -0.1142  0.3847  1.5360
 8141TIP3    H245915   1.879   4.274  10.846 -0.4377  2.7030  0.4305
 8142TIP3   OH245916   0.428   0.227  12.402 -0.2483  0.5319 -0.4514
 8142TIP3    H145917   0.360   0.294  12.395 -1.3074 -0.6652 -2.3357
 8142TIP3    H245918   0.484   0.258  12.474 -3.6172  0.7873  2.3168
 8143TIP3   OH245919   4.292   6.796  15.895  0.1028 -0.1044  0.3578
 8143TIP3    H145920   4.280   6.867  15.833  0.8267 -0.7174 -0.5049
 8143TIP3    H245921   4.216   6.802  15.954 -0.9370  0.0955 -0.9702
 8144TIP3   OH245922   1.433   3.232  11.533  0.8787  0.0388  0.2843
 8144TIP3    H145923   1.393   3.318  11.540 -0.0683 -0.3831  0.2692
 8144TIP3    H245924   1.365   3.171  11.561 -0.1701 -1.0663 -3.8602
 8145TIP3   OH245925   6.054   2.524  11.871 -0.0429  0.0936 -0.2918
 8145TIP3    H145926   5.970   2.504  11.914  0.7695 -0.8698  0.9306
 8145TIP3    H245927   6.071   2.616  11.892 -0.7687  0.2941 -0.5404
 8146TIP3   OH245928   2.606   6.253  11.390  0.2741 -0.4407 -0.2210
 8146TIP3    H145929   2.513   6.275  11.382  0.2979 -0.8410 -1.9676
 8146TIP3    H245930   2.651   6.337  11.397 -0.0718 -0.1409 -1.4291
 8147TIP3   OH245931   1.245   4.386  12.368  0.7848  0.2831 -0.0245
 8147TIP3    H145932   1.185   4.312  12.372  0.2135  0.6810 -0.9471
 8147TIP3    H245933   1.196   4.456  12.325  1.6250  0.8920 -0.0367
 8148TIP3   OH245934   5.970   3.157  15.523  0.2893  0.0056 -0.1271
 8148TIP3    H145935   5.939   3.193  15.440  1.9681 -0.3400 -0.9320
 8148TIP3    H245936   5.931   3.069  15.526  0.4118 -0.0709 -0.6608
 8149TIP3   OH245937   5.511   0.349  16.045  0.1158  0.0505 -0.2375
 8149TIP3    H145938   5.523   0.255  16.039  2.1581  0.2306  0.4502
 8149TIP3    H245939   5.466   0.363  16.128  0.7284 -0.2537  0.1490
 8150TIP3   OH245940   6.567   2.513   3.767 -0.4242  0.2968  0.1397
 8150TIP3    H145941   6.492   2.559   3.728 -0.8690 -0.0454  0.5688
 8150TIP3    H245942   6.568   2.427   3.724 -0.2431  0.3243  0.0889
 8151TIP3   OH245943   4.780   5.892   5.263  0.4122  0.1388  0.0471
 8151TIP3    H145944   4.870   5.926   5.266  0.1276  1.0040 -0.7501
 8151TIP3    H245945   4.765   5.874   5.170  0.5182 -2.1511  0.4024
 8152TIP3   OH245946   0.037   0.816  13.062  0.3908 -0.3586 -0.4981
 8152TIP3    H145947  -0.058   0.806  13.069  0.3848 -0.7379 -1.0076
 8152TIP3    H245948   0.054   0.906  13.089  0.0178 -0.6376  0.7006
 8153TIP3   OH245949   5.762   5.356   4.682  0.3839 -0.0154  0.1985
 8153TIP3    H145950   5.703   5.290   4.645  1.3043 -1.0033  0.4628
 8153TIP3    H245951   5.718   5.439   4.665 -1.4786 -0.7691  1.1042
 8154TIP3   OH245952   0.514   3.675   3.203  0.4890  0.2199  0.3088
 8154TIP3    H145953   0.569   3.714   3.135  0.7001 -0.5883  0.0119
 8154TIP3    H245954   0.514   3.582   3.183  2.0608 -0.3165  2.4728
 8155TIP3   OH245955   2.265   6.180   1.793 -0.2355  0.4204 -0.5094
 8155TIP3    H145956   2.305   6.162   1.708  0.6126  1.1966 -0.3013
 8155TIP3    H245957   2.336   6.165   1.856 -0.8892 -0.2711  0.0827
 8156TIP3   OH245958   2.989   6.654  12.552 -0.2113  0.3215  0.1200
 8156TIP3    H145959   3.009   6.732  12.501  0.3059  0.4646  0.5296
 8156TIP3    H245960   2.898   6.634  12.531 -0.2974  0.9375 -0.1168
 8157TIP3   OH245961   2.347   4.190   4.369 -0.1793 -0.0968  0.2861
 8157TIP3    H145962   2.332   4.254   4.299 -0.8385 -0.1516  0.3782
 8157TIP3    H245963   2.417   4.134   4.335  1.6275  1.6757  0.8778
 8158TIP3   OH245964   5.297   2.606   5.705  0.7781 -0.1144  0.4140
 8158TIP3    H145965   5.272   2.638   5.791  1.6797  0.7720  0.3570
 8158TIP3    H245966   5.261   2.670   5.644  1.9128  0.3853  0.2546
 8159TIP3   OH245967   4.046   4.245  12.765 -0.2635  0.5422  0.3227
 8159TIP3    H145968   4.039   4.187  12.841  1.4765  1.5994  1.3720
 8159TIP3    H245969   4.139   4.245  12.744 -0.6340  0.7794 -1.4355
 8160TIP3   OH245970   0.954   5.943  13.762 -0.4732 -0.0118 -0.1275
 8160TIP3    H145971   1.004   5.926  13.841 -2.8952  0.5172  1.6107
 8160TIP3    H245972   0.963   6.038  13.747  2.7065 -0.4993 -2.5744
 8161TIP3   OH245973   3.912   4.416   4.120  0.1354  0.2515 -0.1148
 8161TIP3    H145974   3.878   4.487   4.066 -0.8840 -0.4704 -0.4524
 8161TIP3    H245975   3.842   4.398   4.183  0.4273 -0.3783  0.0383
 8162TIP3   OH245976   1.469   6.433   0.568 -0.3087 -0.3512 -0.2345
 8162TIP3    H145977   1.474   6.347   0.526 -0.3162 -0.9696  0.9749
 8162TIP3    H245978   1.376   6.447   0.583 -0.2616 -0.4245  0.1357
 8163TIP3   OH245979   2.425   5.663   6.312  0.2287  0.1529  0.4572
 8163TIP3    H145980   2.381   5.739   6.274 -1.3134  0.5818  2.8478
 8163TIP3    H245981   2.354   5.600   6.327  0.5778  0.2769  3.0815
 8164TIP3   OH245982   3.172   4.512   2.255  0.3189  0.0933 -0.3216
 8164TIP3    H145983   3.099   4.455   2.233  0.9677 -0.7133 -0.4107
 8164TIP3    H245984   3.143   4.600   2.229 -0.5907 -0.2228 -0.3892
 8165TIP3   OH245985   5.842   5.827   4.847  0.4977 -0.2179 -0.0766
 8165TIP3    H145986   5.915   5.830   4.785  0.8549 -3.3416  0.0283
 8165TIP3    H245987   5.851   5.742   4.890 -2.3696 -0.0615  1.0198
 8166TIP3   OH245988   5.521   0.802   2.911 -0.0268 -0.0852 -0.8414
 8166TIP3    H145989   5.599   0.794   2.857  0.9312 -1.1073  0.6093
 8166TIP3    H245990   5.453   0.755   2.863 -0.1990  2.0164 -2.8137
 8167TIP3   OH245991   6.050   5.915  13.857 -0.5313 -0.4741 -0.7373
 8167TIP3    H145992   6.072   5.997  13.901 -1.3744 -0.2119 -0.7918
 8167TIP3    H245993   6.020   5.943  13.770  0.1605 -0.9142 -1.1196
 8168TIP3   OH245994   4.612   4.912  15.549 -0.0757  0.1314  0.2216
 8168TIP3    H145995   4.690   4.879  15.505 -0.0704  0.6753 -0.1822
 8168TIP3    H245996   4.629   5.005  15.561 -0.2907  0.0889  0.9301
 8169TIP3   OH245997   4.432   0.619  15.694  0.4471 -0.2024  0.5796
 8169TIP3    H145998   4.375   0.692  15.670  0.5716  0.0217  0.9528
 8169TIP3    H245999   4.373   0.547  15.711  0.3322 -0.2388  0.0386
 8170TIP3   OH246000   1.726   3.751  11.410 -0.5154  0.3405 -0.3329
 8170TIP3    H146001   1.702   3.660  11.394 -0.1631  0.2696 -0.4754
 8170TIP3    H246002   1.655   3.802  11.373 -0.0199  0.1606 -1.5657
 8171TIP3   OH246003   3.931   4.867   6.197 -0.1036 -0.0521  0.0858
 8171TIP3    H146004   3.978   4.943   6.232 -0.9143  0.3094  0.4115
 8171TIP3    H246005   3.841   4.877   6.229 -1.0847  0.6814 -2.6012
 8172TIP3   OH246006   5.111   0.259   4.296 -0.1046 -0.1390  0.4297
 8172TIP3    H146007   5.189   0.311   4.316 -0.6176  0.2449  1.4991
 8172TIP3    H246008   5.130   0.173   4.335 -0.0866 -0.1448  0.4082
 8173TIP3   OH246009   1.958   2.620   0.379  0.6267 -0.3548 -0.0562
 8173TIP3    H146010   1.886   2.682   0.372  1.0782  0.1879  0.0790
 8173TIP3    H246011   1.922   2.538   0.345  0.8325  0.6221 -2.9485
 8174TIP3   OH246012   3.956   5.453  14.599  0.5501  0.4672  0.2467
 8174TIP3    H146013   3.982   5.470  14.690  0.7247  1.0756  0.0924
 8174TIP3    H246014   3.984   5.363  14.582  0.6857  0.4150  0.7385
 8175TIP3   OH246015   6.407   5.790  15.036 -0.2551  0.1984  0.4844
 8175TIP3    H146016   6.437   5.878  15.062  0.6251  0.2930 -0.7651
 8175TIP3    H246017   6.401   5.742  15.118  0.5009  1.0594  1.0639
 8176TIP3   OH246018   0.411   3.110  13.462 -0.2027 -0.9181 -0.0542
 8176TIP3    H146019   0.457   3.073  13.538  0.3883 -0.2773 -0.0982
 8176TIP3    H246020   0.336   3.157  13.500  0.8418  0.5599  0.2625
 8177TIP3   OH246021   0.002   3.589   1.380 -0.2875 -0.4140 -0.6766
 8177TIP3    H146022  -0.018   3.618   1.469 -2.8809  2.1064 -1.8945
 8177TIP3    H246023   0.083   3.634   1.358  1.6920 -2.8902  1.0736
 8178TIP3   OH246024   3.065   2.729  16.027  0.4106  0.1215  0.6203
 8178TIP3    H146025   3.003   2.676  15.978 -0.4417  0.2267  1.5537
 8178TIP3    H246026   3.138   2.743  15.966 -0.7120  0.4577 -0.6926
 8179TIP3   OH246027   3.117   4.164  15.143 -0.0839 -0.1648 -0.2648
 8179TIP3    H146028   3.181   4.174  15.213 -0.1484 -0.2681 -0.1903
 8179TIP3    H246029   3.068   4.246  15.144 -0.4911 -0.4066  0.2229
 8180TIP3   OH246030   1.555   1.568   0.445  0.2940  0.1501 -0.1180
 8180TIP3    H146031   1.607   1.602   0.518  0.7699 -1.9653  0.5943
 8180TIP3    H246032   1.618   1.549   0.376 -0.0706  1.4480 -0.8422
 8181TIP3   OH246033   4.122   6.032   1.386 -0.2217 -0.4499 -0.5929
 8181TIP3    H146034   4.048   6.034   1.325  0.1188  0.6029 -0.9840
 8181TIP3    H246035   4.081   6.031   1.473 -0.7011  0.0238 -0.8081
 8182TIP3   OH246036   1.191   1.327   1.017 -0.1251  0.1145 -0.0283
 8182TIP3    H146037   1.233   1.380   0.949  0.6461 -1.4673 -0.8571
 8182TIP3    H246038   1.258   1.264   1.042 -1.0737 -0.6155  0.7403
 8183TIP3   OH246039   0.879   6.679  11.001 -0.2256 -0.0254 -0.7066
 8183TIP3    H146040   0.951   6.742  11.006  0.4402 -0.8366  0.3292
 8183TIP3    H246041   0.894   6.631  10.920 -0.6607  1.0343 -1.4355
 8184TIP3   OH246042   5.916   4.883   5.741  0.0808  0.3765  0.1913
 8184TIP3    H146043   5.865   4.927   5.809 -0.7172 -1.5485  0.8981
 8184TIP3    H246044   5.999   4.861   5.783 -0.3786 -0.7361  0.5408
 8185TIP3   OH246045   5.458   3.228  17.202 -0.0511 -0.0189 -0.0469
 8185TIP3    H146046   5.501   3.242  17.286 -0.0472 -0.0775 -0.0378
 8185TIP3    H246047   5.474   3.308  17.153 -0.5552  0.2436  0.2235
 8186TIP3   OH246048   2.875   2.320   2.065 -0.3884 -0.4938  0.4338
 8186TIP3    H146049   2.804   2.284   2.011  0.6962 -1.1761 -0.5741
 8186TIP3    H246050   2.949   2.262   2.049  0.8551  1.0766  0.2626
 8187TIP3   OH246051   2.322   6.283   0.808 -0.6614 -0.1464  0.0406
 8187TIP3    H146052   2.410   6.275   0.846 -0.2711  3.0367  0.1263
 8187TIP3    H246053   2.333   6.259   0.716 -0.0279 -1.1555  0.3686
 8188TIP3   OH246054   4.000   0.919  11.290  0.7554  0.1696 -0.2006
 8188TIP3    H146055   3.959   0.868  11.361 -1.7044  0.5746 -1.2167
 8188TIP3    H246056   4.094   0.912  11.306  0.4934 -3.4331  0.5614
 8189TIP3   OH246057   5.815   0.529   5.098  0.2082 -0.3221  0.2849
 8189TIP3    H146058   5.761   0.500   5.171  1.5888 -0.5652  1.2466
 8189TIP3    H246059   5.825   0.624   5.111 -0.6920 -0.1129 -0.4037
 8190TIP3   OH246060   3.883   5.671   0.828 -0.3126 -0.6920 -0.2096
 8190TIP3    H146061   3.868   5.577   0.830  0.7210 -0.9674 -2.3693
 8190TIP3    H246062   3.960   5.684   0.884 -0.6261 -1.0829  0.3210
 8191TIP3   OH246063   1.057   5.867   1.023 -0.4472  0.6225 -0.2517
 8191TIP3    H146064   0.987   5.850   1.085 -0.0868 -0.1699 -0.0390
 8191TIP3    H246065   1.013   5.900   0.945 -0.8507  2.1537  0.5993
 8192TIP3   OH246066   4.573   1.117   1.370 -0.6301  0.0451 -0.3955
 8192TIP3    H146067   4.655   1.154   1.403 -0.6051 -0.2435 -0.1306
 8192TIP3    H246068   4.579   1.024   1.390 -1.6083  0.2269  0.8775
 8193TIP3   OH246069   0.583   4.775   5.530  0.0318  0.4145  0.3153
 8193TIP3    H146070   0.549   4.806   5.446 -0.0722 -0.3654  0.0670
 8193TIP3    H246071   0.507   4.771   5.587  0.2745  2.0360  0.7988
 8194TIP3   OH246072   4.666   1.537  15.106 -0.3436 -0.0581 -0.5257
 8194TIP3    H146073   4.664   1.478  15.182 -0.9731  1.1447  0.4377
 8194TIP3    H246074   4.586   1.589  15.114  0.5706  1.4658 -0.8820
 8195TIP3   OH246075   5.863   4.765  16.293 -0.1130 -0.2856 -0.3094
 8195TIP3    H146076   5.845   4.677  16.326  3.1954 -0.7894  0.5165
 8195TIP3    H246077   5.942   4.793  16.340  0.3893  2.1110 -2.3358
 8196TIP3   OH246078   5.319   3.032  17.081  0.3818 -0.2206 -0.0168
 8196TIP3    H146079   5.363   2.957  17.121  0.1485 -0.7414 -0.7053
 8196TIP3    H246080   5.365   3.108  17.115  0.9394 -0.6998  0.3207
 8197TIP3   OH246081   0.327   2.600  15.144 -0.7981 -0.3330  0.3336
 8197TIP3    H146082   0.361   2.636  15.226  0.6373 -0.1975 -0.2871
 8197TIP3    H246083   0.258   2.660  15.118  2.0672  2.6712 -1.1207
 8198TIP3   OH246084   6.320   2.213  12.789  0.0187  0.2872 -0.0745
 8198TIP3    H146085   6.265   2.135  12.777  0.0373  0.4443 -1.2970
 8198TIP3    H246086   6.311   2.261  12.707  1.9737  0.3381 -0.2989
 8199TIP3   OH246087   6.444   4.181   1.535 -0.0030 -0.5888 -0.2559
 8199TIP3    H146088   6.488   4.252   1.489 -1.8340  0.6247 -0.2399
 8199TIP3    H246089   6.497   4.104   1.517  1.0203  0.4336 -1.8291
 8200TIP3   OH246090   6.459   0.428   5.779  0.0113 -0.5370  0.2208
 8200TIP3    H146091   6.429   0.401   5.866 -1.2488 -0.2416 -0.0879
 8200TIP3    H246092   6.389   0.485   5.747  0.0687 -1.2542 -1.2958
 8201TIP3   OH246093   2.731   5.271  15.798  0.4625 -0.8456  0.4118
 8201TIP3    H146094   2.797   5.263  15.729 -1.5663 -0.2619 -1.7325
 8201TIP3    H246095   2.648   5.261  15.752 -1.0945  1.8035  2.3786
 8202TIP3   OH246096   5.611   6.088   6.030 -0.8195 -0.8602  0.5366
 8202TIP3    H146097   5.653   6.098   6.115  1.1011  2.2395 -0.6272
 8202TIP3    H246098   5.534   6.145   6.034  0.0830  0.4703 -0.1925
 8203TIP3   OH246099   4.055   0.611   2.989  0.1885 -0.0957 -0.2744
 8203TIP3    H146100   4.124   0.627   3.053 -0.0164 -0.1909 -0.0282
 8203TIP3    H246101   4.085   0.535   2.939  0.0588 -0.4090  0.1213
 8204TIP3   OH246102   3.094   4.039  17.126 -0.1167  0.2348 -0.0499
 8204TIP3    H146103   3.147   4.049  17.047 -0.1381 -0.5873 -0.1856
 8204TIP3    H246104   3.149   3.986  17.185 -1.9339 -3.5344 -1.4364
 8205TIP3   OH246105   3.013   4.261  15.500 -0.7283 -0.0136 -0.1761
 8205TIP3    H146106   3.073   4.188  15.514 -2.0079 -0.8244  1.4510
 8205TIP3    H246107   2.951   4.228  15.434  1.1182  1.2102 -2.6924
 8206TIP3   OH246108   4.872   5.139   1.014  0.3291 -0.2501 -0.2288
 8206TIP3    H146109   4.892   5.219   1.063  1.6856 -0.4494 -0.4274
 8206TIP3    H246110   4.896   5.160   0.924 -1.0039 -0.2986 -0.6198
 8207TIP3   OH246111   3.988   5.632  11.395 -0.3788 -0.7597 -0.3157
 8207TIP3    H146112   3.947   5.709  11.354  0.8667 -0.0307 -0.2399
 8207TIP3    H246113   3.922   5.563  11.387 -0.6938 -0.2916 -2.3646
 8208TIP3   OH246114   6.646   6.769   1.683  0.2656 -0.3395  0.3442
 8208TIP3    H146115   6.624   6.856   1.650  1.8170 -1.0238 -2.8201
 8208TIP3    H246116   6.714   6.786   1.749 -1.8331  0.9758  2.2988
 8209TIP3   OH246117   3.836   4.913  16.122 -0.7482 -0.1130  0.0988
 8209TIP3    H146118   3.812   4.847  16.056 -0.3184 -0.5106  0.3372
 8209TIP3    H246119   3.752   4.938  16.162 -0.9649 -0.1653 -0.3173
 8210TIP3   OH246120   5.147   0.709   4.570  0.0343 -0.2674  0.5684
 8210TIP3    H146121   5.220   0.769   4.553 -1.0878  0.7327 -0.9216
 8210TIP3    H246122   5.071   0.766   4.583 -0.5251 -1.2944  2.0290
 8211TIP3   OH246123   1.601   0.218   5.805  0.0719 -0.1567  0.0707
 8211TIP3    H146124   1.505   0.221   5.799  0.0267 -1.3646 -0.0581
 8211TIP3    H246125   1.620   0.136   5.851  1.0959 -0.9945 -1.7388
 8212TIP3   OH246126   6.705   5.877  15.207  0.0110 -1.1571  0.0392
 8212TIP3    H146127   6.662   5.813  15.151  1.4074 -0.9034 -1.3868
 8212TIP3    H246128   6.798   5.863  15.192  0.4300 -0.7241  1.9418
 8213TIP3   OH246129   2.205   6.106   3.056  0.1891  0.0401 -0.0407
 8213TIP3    H146130   2.147   6.030   3.046 -0.1713  0.2556  0.4026
 8213TIP3    H246131   2.215   6.117   3.150 -0.4440  1.0555 -0.0735
 8214TIP3   OH246132   2.827   5.964  16.922 -0.4324 -0.2331  0.1831
 8214TIP3    H146133   2.822   6.024  16.996  0.9366  1.8504 -1.2967
 8214TIP3    H246134   2.921   5.951  16.908 -0.6398 -3.3690  0.8520
 8215TIP3   OH246135   3.695   6.138  16.659 -0.2236  0.8185  0.0672
 8215TIP3    H146136   3.665   6.182  16.738 -0.5688 -0.7273  0.8471
 8215TIP3    H246137   3.705   6.046  16.686 -0.0369  0.3232 -1.5991
 8216TIP3   OH246138   0.717   0.149  16.179  0.6601  0.8017 -0.0778
 8216TIP3    H146139   0.749   0.094  16.108  0.3863 -0.9741  1.1222
 8216TIP3    H246140   0.782   0.139  16.249 -1.2670 -1.1350  1.5847
 8217TIP3   OH246141   3.758   0.525   0.850  0.2505  0.5066  0.4555
 8217TIP3    H146142   3.763   0.613   0.888 -1.0562 -0.0758  2.0894
 8217TIP3    H246143   3.781   0.466   0.922 -1.2237 -0.6032  0.0668
 8218TIP3   OH246144   4.977   6.567  15.990  0.3611  0.0473  0.2572
 8218TIP3    H146145   5.002   6.641  16.046  1.4039  1.8472 -2.3862
 8218TIP3    H246146   4.881   6.570  15.987  0.4097  1.7990 -0.3818
 8219TIP3   OH246147   4.247   3.563   1.433  0.2826  0.9701 -0.2698
 8219TIP3    H146148   4.261   3.490   1.373 -0.2452  2.3779 -2.2068
 8219TIP3    H246149   4.333   3.603   1.442  0.9475 -0.7865  2.1572
 8220TIP3   OH246150   1.123   5.245   3.833  0.1288 -0.0331  0.0571
 8220TIP3    H146151   1.199   5.201   3.871 -0.8269 -0.9442  0.9749
 8220TIP3    H246152   1.115   5.209   3.745  1.1983  0.6447 -0.3351
 8221TIP3   OH246153   2.369   4.489   5.030  0.0523  0.1770  0.7096
 8221TIP3    H146154   2.296   4.427   5.024  0.7143 -0.4936 -0.7274
 8221TIP3    H246155   2.367   4.518   5.121 -1.7093 -0.1854  0.8319
 8222TIP3   OH246156   2.576   6.365  12.524  0.3085  0.5552 -0.0481
 8222TIP3    H146157   2.564   6.270  12.526  0.2974  0.5486 -0.3713
 8222TIP3    H246158   2.539   6.391  12.440  5.9770  0.0542 -3.1445
 8223TIP3   OH246159   1.040   1.782  13.676  0.3553  0.2626  0.6506
 8223TIP3    H146160   1.089   1.808  13.599 -0.5763 -0.0320 -0.0580
 8223TIP3    H246161   1.091   1.816  13.750  2.0360 -0.7218 -0.0077
 8224TIP3   OH246162   5.598   0.327   6.162  0.7246  0.1226 -0.0404
 8224TIP3    H146163   5.665   0.317   6.230  0.8407  0.1958 -0.1457
 8224TIP3    H246164   5.542   0.399   6.193  0.1712 -0.5166  0.4831
 8225TIP3   OH246165   6.808   2.708   5.102  0.2304  0.3001  0.0856
 8225TIP3    H146166   6.730   2.671   5.062  0.0110  0.4784  0.3421
 8225TIP3    H246167   6.816   2.795   5.062 -0.0002  0.4862  0.4354
 8226TIP3   OH246168   4.210   1.292   0.414 -0.3552 -0.6271 -0.3915
 8226TIP3    H146169   4.176   1.295   0.503  0.7473 -0.6692  0.0412
 8226TIP3    H246170   4.132   1.280   0.359 -1.0340 -0.6764  0.5623
 8227TIP3   OH246171   5.518   3.173   0.667  0.5354 -0.0353 -0.0566
 8227TIP3    H146172   5.547   3.149   0.755 -1.0117 -0.0773  0.4792
 8227TIP3    H246173   5.459   3.247   0.681  0.7725  0.3760 -1.1348
 8228TIP3   OH246174   2.360   4.603  10.911 -0.3276 -0.4551  0.0871
 8228TIP3    H146175   2.374   4.544  10.985 -1.1064 -0.8420 -0.0689
 8228TIP3    H246176   2.297   4.558  10.855  0.6213 -0.3915 -1.0727
 8229TIP3   OH246177   1.156   0.817  16.323  0.6865 -0.1653 -0.3853
 8229TIP3    H146178   1.237   0.861  16.347 -0.7677  2.1371  0.6438
 8229TIP3    H246179   1.097   0.832  16.397 -1.1091 -0.6201 -1.6373
 8230TIP3   OH246180   5.862   0.955  11.717 -0.4137 -0.0873  0.2605
 8230TIP3    H146181   5.823   1.024  11.770 -0.5741  1.1300 -1.3742
 8230TIP3    H246182   5.943   0.993  11.683 -0.5937 -0.6092 -0.8123
 8231TIP3   OH246183   4.808   5.827  16.350  0.0585 -0.0421 -0.7296
 8231TIP3    H146184   4.807   5.856  16.258  0.2984 -1.1970 -1.1075
 8231TIP3    H246185   4.901   5.821  16.372  0.0182  1.7742  0.1193
 8232TIP3   OH246186   3.840   4.666  13.633 -0.2516  0.6009 -0.2316
 8232TIP3    H146187   3.846   4.593  13.571 -2.4720  0.5282 -0.4296
 8232TIP3    H246188   3.795   4.629  13.709  2.6061  0.6361  1.6372
 8233TIP3   OH246189   5.296   5.900   1.068 -0.5723 -0.1797 -0.1524
 8233TIP3    H146190   5.202   5.911   1.082 -0.3705  0.4082  0.8407
 8233TIP3    H246191   5.334   5.898   1.156  0.5612  1.6843 -0.5271
 8234TIP3   OH246192   4.985   5.490  11.699 -0.0479  0.2514  0.3586
 8234TIP3    H146193   4.968   5.480  11.606  0.0672 -1.4575  0.4871
 8234TIP3    H246194   4.914   5.545  11.731 -2.0365 -1.8717 -0.1652
 8235TIP3   OH246195   3.943   3.161   0.068  0.2873 -0.5209 -0.0869
 8235TIP3    H146196   3.965   3.132   0.157  0.2996 -1.2011 -0.3047
 8235TIP3    H246197   3.847   3.161   0.066  0.2619 -2.3170 -0.6245
 8236TIP3   OH246198   0.254   3.121   2.409  0.3633 -0.0252 -0.2759
 8236TIP3    H146199   0.195   3.122   2.333  0.5726 -3.9421 -0.7121
 8236TIP3    H246200   0.335   3.159   2.376 -0.3563  0.7917 -1.1765
 8237TIP3   OH246201   3.097   0.223  14.675 -1.0056  0.4071 -0.3664
 8237TIP3    H146202   3.040   0.180  14.740 -0.4462  1.8295  1.1220
 8237TIP3    H246203   3.181   0.178  14.684 -1.0113  0.4055 -0.3189
 8238TIP3   OH246204   3.558   2.615  13.462 -0.5524  0.0068 -0.4109
 8238TIP3    H146205   3.618   2.544  13.438 -1.0906 -1.1156  1.3385
 8238TIP3    H246206   3.611   2.674  13.515 -0.2612  0.6197 -1.3601
 8239TIP3   OH246207   0.082   4.825  13.625  0.8276  0.5539  0.5833
 8239TIP3    H146208   0.041   4.857  13.544 -1.7537  0.3957  1.7093
 8239TIP3    H246209   0.053   4.887  13.692  0.0199 -1.1958  1.9371
 8240TIP3   OH246210   4.974   2.529  14.318  0.7234 -0.1598 -0.4132
 8240TIP3    H146211   4.916   2.589  14.272  2.2335  2.0526  0.4297
 8240TIP3    H246212   4.934   2.443  14.306 -2.4514  1.1742 -0.2490
 8241TIP3   OH246213   5.681   2.129   0.698 -0.5330 -0.4542 -0.4674
 8241TIP3    H146214   5.645   2.156   0.782 -1.0258  1.3452 -1.2001
 8241TIP3    H246215   5.680   2.209   0.645  1.1848 -1.1886 -1.6998
 8242TIP3   OH246216   0.896   3.156   4.600  0.4330  0.0306  0.0491
 8242TIP3    H146217   0.876   3.073   4.557 -0.1687  0.9514 -1.5566
 8242TIP3    H246218   0.821   3.172   4.658 -0.5785  0.5140 -1.3441
 8243TIP3   OH246219   1.737   1.450   4.412 -1.0064  0.6885 -0.1891
 8243TIP3    H146220   1.699   1.533   4.439  2.2212  2.1963  0.1638
 8243TIP3    H246221   1.777   1.415   4.492 -1.0995 -0.4788 -0.6374
 8244TIP3   OH246222   4.040   6.416   2.296 -0.1849 -0.1895 -0.1249
 8244TIP3    H146223   4.029   6.321   2.299 -0.9011 -0.0968  0.5653
 8244TIP3    H246224   4.100   6.436   2.368 -1.5015  0.0468  0.9503
 8245TIP3   OH246225   0.525   1.957   1.998  0.5719  0.1842  0.0895
 8245TIP3    H146226   0.565   1.956   1.911  1.5407  0.8694  0.5120
 8245TIP3    H246227   0.508   1.865   2.017  2.4560 -0.2008  0.1085
 8246TIP3   OH246228   4.994   2.411  12.875  0.4741 -0.3862 -0.3897
 8246TIP3    H146229   5.066   2.421  12.938  0.8579 -0.4500 -0.8140
 8246TIP3    H246230   4.983   2.316  12.867  0.1431 -0.3757 -0.1084
 8247TIP3   OH246231   3.778   5.673   3.693  0.7731  0.1518 -0.0300
 8247TIP3    H146232   3.752   5.765   3.696 -0.8648 -0.2840  0.1322
 8247TIP3    H246233   3.767   5.642   3.783  0.3152 -0.4458 -0.2856
 8248TIP3   OH246234   1.233   5.432  15.810 -0.1726  0.1342  0.6624
 8248TIP3    H146235   1.259   5.518  15.778  0.1035  0.0902  0.7684
 8248TIP3    H246236   1.141   5.442  15.833 -0.6858 -0.1036 -1.1100
 8249TIP3   OH246237   5.598   0.169   5.950  0.6520  0.3102  0.5306
 8249TIP3    H146238   5.626   0.231   6.018  1.4489  1.7495 -1.0278
 8249TIP3    H246239   5.666   0.101   5.950  0.5872  0.2435  1.2346
 8250TIP3   OH246240   6.171   6.124   4.801 -0.0908 -0.1544  0.2229
 8250TIP3    H146241   6.125   6.098   4.721 -0.3795 -0.1793  0.3954
 8250TIP3    H246242   6.110   6.103   4.872 -0.0141  0.2784  0.4205
 8251TIP3   OH246243   4.682   0.468  14.099 -0.7075  0.0664 -0.1247
 8251TIP3    H146244   4.650   0.454  14.188 -1.3122 -0.4321 -0.4154
 8251TIP3    H246245   4.650   0.556  14.076 -0.2916  0.3225  0.2539
 8252TIP3   OH246246   3.043   3.597   0.972 -0.1496 -0.3019  0.3898
 8252TIP3    H146247   3.033   3.593   0.877 -1.7624  1.0706  0.4630
 8252TIP3    H246248   3.136   3.618   0.985 -0.1310  0.5658 -0.9308
 8253TIP3   OH246249   2.868   0.821   3.941 -0.6023 -0.3743 -0.1229
 8253TIP3    H146250   2.784   0.828   3.987 -0.1819  0.0726  0.5782
 8253TIP3    H246251   2.884   0.908   3.906 -0.4978 -0.4958 -0.3823
 8254TIP3   OH246252   1.519   4.152  14.145 -0.4339 -0.4206  0.3245
 8254TIP3    H146253   1.456   4.105  14.198  1.6958 -1.9413  1.6507
 8254TIP3    H246254   1.602   4.105  14.157  0.9706  1.3904 -1.4058
 8255TIP3   OH246255   1.462   1.567   4.519 -0.4976 -0.5904  0.0177
 8255TIP3    H146256   1.377   1.592   4.482 -0.4082 -0.0990  0.1422
 8255TIP3    H246257   1.518   1.643   4.505  0.0273 -1.0352 -0.3776
 8256TIP3   OH246258   1.951   5.719   4.577  0.1490  0.2376 -0.0027
 8256TIP3    H146259   2.037   5.697   4.541 -0.4007 -1.9418 -0.1514
 8256TIP3    H246260   1.904   5.635   4.579 -2.3360  1.5044 -0.8740
 8257TIP3   OH246261   2.719   4.788  15.445  0.1651 -0.1160  0.6440
 8257TIP3    H146262   2.666   4.868  15.451  0.6784  0.3228 -0.3177
 8257TIP3    H246263   2.781   4.795  15.517 -0.8020 -0.4315  1.5217
 8258TIP3   OH246264   4.615   2.349  13.110  0.0807 -0.1969  0.3149
 8258TIP3    H146265   4.637   2.363  13.203  0.1289 -0.9053  0.4178
 8258TIP3    H246266   4.625   2.435  13.070 -0.7604  0.2913  1.1293
 8259TIP3   OH246267   3.783   4.102  13.632 -1.3211  0.4806 -0.5230
 8259TIP3    H146268   3.761   4.059  13.550 -1.3404 -1.1893  0.3058
 8259TIP3    H246269   3.747   4.044  13.700  0.3907  0.7763  0.7115
 8260TIP3   OH246270   2.176   1.396   1.399 -0.2050 -0.3588  0.5419
 8260TIP3    H146271   2.157   1.394   1.305 -2.1576  1.5899  0.7956
 8260TIP3    H246272   2.247   1.460   1.407 -3.2914  3.4369  0.6365
 8261TIP3   OH246273   1.896   0.110   6.270 -0.3922 -0.6743 -1.2850
 8261TIP3    H146274   1.811   0.108   6.312 -0.1849 -0.4417 -0.8478
 8261TIP3    H246275   1.943   0.181   6.314  0.5803 -1.8082 -0.4461
 8262TIP3   OH246276   2.669   3.189   0.525 -0.3714  0.0373 -0.1968
 8262TIP3    H146277   2.626   3.124   0.470 -1.2053  1.6835 -1.6034
 8262TIP3    H246278   2.659   3.157   0.614 -1.7114 -1.1942 -0.7665
 8263TIP3   OH246279   3.942   2.257   4.636  0.4214  0.0616 -0.4207
 8263TIP3    H146280   4.022   2.215   4.670  0.2288 -0.7267 -0.9132
 8263TIP3    H246281   3.875   2.236   4.701  0.6992  1.1629  0.2634
 8264TIP3   OH246282   0.183   1.317  13.166 -0.4041 -0.3299 -0.3013
 8264TIP3    H146283   0.151   1.227  13.157  0.5218 -0.6235 -0.8272
 8264TIP3    H246284   0.112   1.363  13.210 -1.6585 -0.8933 -1.6340
 8265TIP3   OH246285   4.377   2.000  13.989  0.2642 -0.3024 -0.8140
 8265TIP3    H146286   4.290   2.022  13.957 -0.3524  0.7844  1.3673
 8265TIP3    H246287   4.422   2.085  13.996  1.6836 -0.8868 -2.3187
 8266TIP3   OH246288   3.554   6.090   4.852  0.1981 -0.3947 -0.2567
 8266TIP3    H146289   3.646   6.068   4.837  0.5839  1.3079 -0.5993
 8266TIP3    H246290   3.505   6.013   4.822  1.5668 -2.2096  1.8774
 8267TIP3   OH246291   1.425   1.331   3.966 -0.1331 -0.1327 -0.2823
 8267TIP3    H146292   1.497   1.271   3.950  1.2590  1.1850  0.7064
 8267TIP3    H246293   1.463   1.418   3.953 -1.0952  0.6710  1.8264
 8268TIP3   OH246294   4.492   0.403  13.767  0.3520 -0.2045 -0.2322
 8268TIP3    H146295   4.430   0.360  13.708 -0.7360  1.9015 -0.7240
 8268TIP3    H246296   4.439   0.436  13.839  1.1075  0.4333  0.0544
 8269TIP3   OH246297   4.730   2.848  12.745  0.2693  0.2013 -0.2198
 8269TIP3    H146298   4.728   2.943  12.755  0.2112  0.1551  0.2481
 8269TIP3    H246299   4.809   2.821  12.792 -0.1227 -0.0502  0.3064
 8270TIP3   OH246300   0.494   5.055   5.352  0.6382  0.6777  0.7781
 8270TIP3    H146301   0.499   4.966   5.316 -1.2732  0.4107  1.0755
 8270TIP3    H246302   0.585   5.083   5.360  1.4504 -2.1885  3.0422
 8271TIP3   OH246303   5.183   2.672  12.737 -0.1455  0.1241 -0.2805
 8271TIP3    H146304   5.214   2.728  12.666  1.1895 -0.3224 -0.0712
 8271TIP3    H246305   5.242   2.689  12.810 -0.0810 -1.1061 -0.0176
 8272TIP3   OH246306   5.518   2.496  13.225  0.5780  0.5512  0.6715
 8272TIP3    H146307   5.510   2.450  13.142  2.6809 -0.4558  0.9699
 8272TIP3    H246308   5.588   2.450  13.272 -1.4691  0.1378  3.6304
 8273TIP3   OH246309   3.328   0.254   0.557  0.2716 -0.1226  0.1070
 8273TIP3    H146310   3.238   0.281   0.571  0.7286  1.3656  0.3086
 8273TIP3    H246311   3.337   0.247   0.462 -0.0131 -0.1630  0.0829
 8274TIP3   OH246312   4.170   3.486   2.050 -0.5724 -0.2989 -0.3818
 8274TIP3    H146313   4.122   3.536   1.984  1.6340  3.5735  0.6030
 8274TIP3    H246314   4.127   3.508   2.133  0.8446  0.6335  0.1445
 8275TIP3   OH246315   1.666   5.446   0.546 -0.5146 -0.0874 -0.7432
 8275TIP3    H146316   1.629   5.368   0.588 -0.9435  0.7975  0.5956
 8275TIP3    H246317   1.718   5.487   0.615 -1.6132  1.6631 -0.9046
 8276TIP3   OH246318   4.769   4.316  13.523 -0.5326  0.6445 -0.6774
 8276TIP3    H146319   4.841   4.314  13.460 -1.0524  1.0193 -1.2929
 8276TIP3    H246320   4.790   4.389  13.581 -0.1912  0.4668 -0.5706
 8277TIP3   OH246321   4.346   1.074  13.323  0.2496  0.3500 -0.0638
 8277TIP3    H146322   4.294   1.000  13.354 -0.0824  1.2665  1.6973
 8277TIP3    H246323   4.369   1.051  13.233 -1.8553 -0.7908 -0.3680
 8278TIP3   OH246324   1.019   5.409   6.463 -0.3638  0.6902  0.3754
 8278TIP3    H146325   1.107   5.382   6.489 -0.2071  1.3595  0.5369
 8278TIP3    H246326   0.981   5.330   6.423 -0.4933 -0.2594  2.2620
 8279TIP3   OH246327   0.078   1.275  13.676 -0.1168  0.1831  0.3327
 8279TIP3    H146328   0.120   1.267  13.762  0.9077 -1.5496 -0.2990
 8279TIP3    H246329   0.117   1.354  13.638  1.3058 -0.4220  0.4690
 8280TIP3   OH246330   1.168   0.345  14.114 -0.1539  0.0515 -0.4454
 8280TIP3    H146331   1.092   0.291  14.136  1.4551 -2.5921 -0.8977
 8280TIP3    H246332   1.173   0.341  14.018  0.6406  0.0446 -0.4072
 8281TIP3   OH246333   0.475   6.604   0.872 -0.2564  0.8023 -0.0670
 8281TIP3    H146334   0.493   6.691   0.835 -2.5042  1.0310 -0.8002
 8281TIP3    H246335   0.499   6.543   0.802  0.6271  0.8665  0.1717
 8282TIP3   OH246336   4.760   3.792  11.803 -0.3837 -0.6062 -0.0228
 8282TIP3    H146337   4.751   3.777  11.709 -2.4188 -0.2273  0.0710
 8282TIP3    H246338   4.742   3.707  11.843 -1.8184 -0.2745  0.0890
 8283TIP3   OH246339   1.843   0.505   5.993  0.0929 -0.0087  0.4004
 8283TIP3    H146340   1.929   0.546   5.994 -0.1885  0.6111 -0.2161
 8283TIP3    H246341   1.862   0.411   5.986  0.7512  0.2436 -3.1711
 8284TIP3   OH246342   6.036   5.415  16.570  0.0702  0.1474 -0.2937
 8284TIP3    H146343   6.075   5.434  16.655 -1.9102  0.3018  0.6289
 8284TIP3    H246344   6.032   5.501  16.526  0.8318  0.1120 -0.4485
 8285TIP3   OH246345   5.815   1.097  11.955  0.0032  0.5662  0.2572
 8285TIP3    H146346   5.747   1.039  11.988  0.3790  1.9542  3.9948
 8285TIP3    H246347   5.769   1.159  11.899 -1.0335 -0.9648 -0.6617
 8286TIP3   OH246348   1.074   4.919   4.733 -0.5146 -0.1034 -0.4382
 8286TIP3    H146349   1.012   4.987   4.760  0.3190 -0.5495  3.0711
 8286TIP3    H246350   1.128   4.962   4.666 -0.3713  2.6004  1.2534
 8287TIP3   OH246351   3.014   4.418  11.694 -0.0355  0.2491 -0.0455
 8287TIP3    H146352   3.015   4.411  11.598  1.6621 -0.3427 -0.0322
 8287TIP3    H246353   3.086   4.479  11.713 -2.1157  2.5989  0.7786
 8288TIP3   OH246354   4.480   0.042   3.046  0.2618  0.1474  0.3599
 8288TIP3    H146355   4.487   0.027   2.952 -1.7601  2.9997 -0.3886
 8288TIP3    H246356   4.569   0.068   3.072  0.9663 -1.1720 -0.6140
 8289TIP3   OH246357   1.563   1.962   1.642  0.3994 -0.4451  0.2173
 8289TIP3    H146358   1.508   1.887   1.664 -0.2679  0.1523  0.6239
 8289TIP3    H246359   1.601   1.940   1.557 -3.2870  0.5843 -1.9595
 8290TIP3   OH246360   1.451   4.990  13.948  0.5690 -0.1509  0.1259
 8290TIP3    H146361   1.429   5.026  13.862  0.9201  0.3026  0.2224
 8290TIP3    H246362   1.541   5.019  13.964  0.8125 -0.9532  0.2719
 8291TIP3   OH246363   2.419   1.925   3.129  0.0655  0.0790 -0.0562
 8291TIP3    H146364   2.403   1.843   3.083  2.8515  0.0651 -1.1925
 8291TIP3    H246365   2.401   1.993   3.064  0.5197  0.2383 -0.0142
 8292TIP3   OH246366   6.349   5.960   4.590 -0.1123 -0.2349 -0.8876
 8292TIP3    H146367   6.260   5.972   4.558 -0.6138  0.4101  0.6323
 8292TIP3    H246368   6.340   5.962   4.686  1.3393 -1.7300 -0.6938
 8293TIP3   OH246369   2.021   4.199  13.485 -0.2722 -0.1015  0.0788
 8293TIP3    H146370   2.063   4.285  13.474 -3.2082  1.2367 -2.2180
 8293TIP3    H246371   2.041   4.174  13.575  1.8161  2.3637  0.4105
 8294TIP3   OH246372   6.343   0.971  11.738 -0.0990  0.1411 -0.9859
 8294TIP3    H146373   6.406   1.042  11.724 -1.5592  1.5429 -0.6995
 8294TIP3    H246374   6.396   0.891  11.737  1.6842  1.2756 -0.6265
 8295TIP3   OH246375   5.181   2.838   5.629  0.0277  0.8325  0.8325
 8295TIP3    H146376   5.140   2.894   5.695 -0.2698  1.4890  0.1121
 8295TIP3    H246377   5.269   2.874   5.618 -0.3201  1.4804  0.0299
 8296TIP3   OH246378   3.851   3.983  13.200 -0.2682  0.0099  0.5481
 8296TIP3    H146379   3.839   4.025  13.115  1.2015 -1.1502 -0.2853
 8296TIP3    H246380   3.937   4.014  13.230 -0.0867 -0.7696  0.8637
 8297TIP3   OH246381   4.176   1.752   0.644 -0.2369 -0.5902 -0.0979
 8297TIP3    H146382   4.105   1.753   0.579  0.1259  1.2514 -0.5223
 8297TIP3    H246383   4.162   1.671   0.694 -2.5540 -0.3623 -0.2643
 8298TIP3   OH246384   5.049   2.039   4.122  0.5984 -0.6030  0.2817
 8298TIP3    H146385   5.130   2.005   4.160 -0.9418 -2.4915  2.0592
 8298TIP3    H246386   4.993   2.058   4.197 -0.3905  1.4370 -0.8674
 8299TIP3   OH246387   4.332   4.645  13.451 -0.4536  0.5479  0.1276
 8299TIP3    H146388   4.398   4.578  13.465 -0.9701 -0.1152 -0.5464
 8299TIP3    H246389   4.381   4.727  13.447  0.1635  0.2513  1.1553
 8300TIP3   OH246390   0.901   3.102   1.295  0.0254  0.2980 -0.6093
 8300TIP3    H146391   0.809   3.074   1.290  0.0877  0.1977 -1.4495
 8300TIP3    H246392   0.930   3.078   1.382 -1.6174  3.0201  0.8384
 8301TIP3   OH246393   2.207   0.468   4.071  0.5843 -0.3090 -0.0629
 8301TIP3    H146394   2.266   0.474   3.995  1.1864  2.8468  0.5210
 8301TIP3    H246395   2.152   0.392   4.052  1.1268 -0.0274 -3.3579
 8302TIP3   OH246396   3.081   0.335   0.600  0.2226  0.2593 -0.4597
 8302TIP3    H146397   3.073   0.367   0.690  1.2889  0.2706 -0.3486
 8302TIP3    H246398   3.010   0.272   0.591 -0.1472  0.5517  0.2595
 8303TIP3   OH246399   5.515   6.286  14.256 -0.2764 -0.9489  1.0222
 8303TIP3    H146400   5.572   6.257  14.184 -0.8374  0.3685 -0.0025
 8303TIP3    H246401   5.523   6.381  14.256 -1.7572 -0.7971  1.4548
 8304TIP3   OH246402   1.054   6.558   5.561  0.4026 -0.7940 -0.0443
 8304TIP3    H146403   1.139   6.520   5.539 -0.1610 -0.5935 -2.9665
 8304TIP3    H246404   1.012   6.492   5.617  3.1376 -0.0240  3.2106
 8305TIP3   OH246405   1.664   3.938   1.736  0.1452 -0.7488 -0.0312
 8305TIP3    H146406   1.653   3.843   1.746  0.0976 -0.7687 -0.2650
 8305TIP3    H246407   1.723   3.947   1.661 -0.4654 -0.5751 -0.4942
 8306TIP3   OH246408   4.360   5.506   5.581  0.1691 -0.2097 -0.1373
 8306TIP3    H146409   4.381   5.597   5.602  1.5428 -0.9090  1.8992
 8306TIP3    H246410   4.303   5.478   5.652 -1.7629 -0.4855 -1.7101
 8307TIP3   OH246411   5.880   6.556  15.458  0.2182  0.0443  0.2275
 8307TIP3    H146412   5.787   6.548  15.440  0.6419 -0.0774 -2.4513
 8307TIP3    H246413   5.915   6.468  15.444  1.1189  0.6827 -2.0899
 8308TIP3   OH246414   4.971   6.637   4.277  0.0062 -0.3437 -0.0423
 8308TIP3    H146415   5.024   6.652   4.355  0.1696 -0.2361 -0.1752
 8308TIP3    H246416   4.884   6.670   4.301  0.4003  0.9993 -0.3896
 8309TIP3   OH246417   6.456   1.899  13.936  0.4425 -0.1443 -0.2726
 8309TIP3    H146418   6.461   1.990  13.967  0.6298  0.0995 -0.9971
 8309TIP3    H246419   6.529   1.855  13.980  0.3722  0.0623  0.0535
 8310TIP3   OH246420   2.514   5.526   4.074 -0.4105  0.4447 -0.2987
 8310TIP3    H146421   2.576   5.462   4.039 -0.4530  1.1075 -1.6736
 8310TIP3    H246422   2.539   5.608   4.031 -0.7868  1.2112  0.9033
 8311TIP3   OH246423   0.881   0.678  15.781 -0.4316  0.5723 -0.5473
 8311TIP3    H146424   0.962   0.630  15.798  0.8922  2.8476 -0.0438
 8311TIP3    H246425   0.812   0.622  15.817  0.9772 -1.0662 -0.2796
 8312TIP3   OH246426   2.763   5.774   0.726  0.2210 -0.5075  0.3869
 8312TIP3    H146427   2.757   5.679   0.713  2.3865 -0.5334 -1.0073
 8312TIP3    H246428   2.849   5.787   0.765  1.2765  1.0460 -2.2091
 8313TIP3   OH246429   3.940   5.872   5.397 -0.6784 -0.8885 -0.3915
 8313TIP3    H146430   3.891   5.931   5.339  1.6169 -0.6116 -2.2322
 8313TIP3    H246431   3.878   5.803   5.419 -2.7289  0.9144 -0.1708
 8314TIP3   OH246432   4.862   0.368  14.631 -0.3287  0.0616 -0.0837
 8314TIP3    H146433   4.805   0.326  14.696 -1.0155 -0.8809 -1.2397
 8314TIP3    H246434   4.941   0.391  14.679 -0.3117 -1.7325  0.8382
 8315TIP3   OH246435   0.607   3.890   4.345  0.2148 -0.4867  0.1660
 8315TIP3    H146436   0.535   3.938   4.304  0.7442 -0.7956 -1.1771
 8315TIP3    H246437   0.680   3.952   4.348  0.2391 -0.5258  0.4963
 8316TIP3   OH246438   3.762   1.586  13.127 -0.3804 -0.1803 -0.2406
 8316TIP3    H146439   3.858   1.582  13.121 -0.2085  1.4800  0.8974
 8316TIP3    H246440   3.739   1.669  13.086 -1.3600 -0.5916 -0.5490
 8317TIP3   OH246441   6.016   4.363  14.505  0.8341  0.0446 -0.7881
 8317TIP3    H146442   6.039   4.369  14.598  0.7544 -1.0746 -0.6783
 8317TIP3    H246443   6.005   4.453  14.477  1.0915  0.4087  0.2349
 8318TIP3   OH246444   3.291   5.537  15.159  0.1303 -0.2590 -0.5819
 8318TIP3    H146445   3.215   5.587  15.130  1.1103  0.3896 -2.1508
 8318TIP3    H246446   3.266   5.446  15.148 -0.6200 -0.0732 -0.5085
 8319TIP3   OH246447   0.131   5.243  13.370 -0.3831 -0.0103 -0.6296
 8319TIP3    H146448   0.157   5.159  13.408  0.4868 -0.1319 -1.4549
 8319TIP3    H246449   0.181   5.308  13.418 -0.6406 -0.0012 -0.3668
 8320TIP3   OH246450   4.116   1.848   3.929 -0.2256  0.5496 -0.0668
 8320TIP3    H146451   4.071   1.763   3.936  0.7404 -0.0821 -1.1007
 8320TIP3    H246452   4.128   1.876   4.019  1.5873 -1.6019  0.4491
 8321TIP3   OH246453   0.908   0.347  13.337  0.6417 -0.2150 -0.1112
 8321TIP3    H146454   0.832   0.404  13.353  1.8331  0.6096  3.4866
 8321TIP3    H246455   0.876   0.283  13.273 -1.2707  3.3815 -3.1978
 8322TIP3   OH246456   3.301   5.020   2.545 -0.1837 -0.2647  0.3445
 8322TIP3    H146457   3.324   4.988   2.632  1.6927 -2.2588 -0.7910
 8322TIP3    H246458   3.320   4.947   2.486  1.5653  1.9849 -2.1174
 8323TIP3   OH246459   6.731   1.326  12.518  0.0624 -0.1039 -0.3313
 8323TIP3    H146460   6.789   1.266  12.470  0.0660 -1.0181  0.7719
 8323TIP3    H246461   6.729   1.405  12.464  0.8149 -0.7486 -1.3506
 8324TIP3   OH246462   5.845   1.941  16.518  0.3341 -0.1511  0.6498
 8324TIP3    H146463   5.773   1.880  16.530  0.1933 -0.2220 -0.4871
 8324TIP3    H246464   5.866   1.971  16.607  0.5523 -1.9979  1.2713
 8325TIP3   OH246465   0.537   0.774   2.288 -0.5555 -0.1637  0.0890
 8325TIP3    H146466   0.593   0.828   2.344 -1.3619 -0.0779  0.8353
 8325TIP3    H246467   0.448   0.793   2.318 -0.9522 -0.7195 -0.7016
 8326TIP3   OH246468   3.570   4.228   5.487 -0.2938 -0.7824  0.0288
 8326TIP3    H146469   3.578   4.199   5.578 -1.9713  1.0710  0.8394
 8326TIP3    H246470   3.658   4.259   5.465  0.0738 -1.0073  1.1127
 8327TIP3   OH246471   5.712   2.821  16.670  0.4381 -0.4061 -0.2619
 8327TIP3    H146472   5.629   2.777  16.686 -0.3232  1.0226 -0.1518
 8327TIP3    H246473   5.702   2.861  16.583  0.3689  1.1289  0.4186
 8328TIP3   OH246474   5.232   3.256  14.771 -0.8843  0.3183  0.0875
 8328TIP3    H146475   5.157   3.295  14.725 -0.6077 -0.0731 -0.7129
 8328TIP3    H246476   5.203   3.168  14.794  0.1169 -0.7242 -2.3549
 8329TIP3   OH246477   3.583   6.801   4.747  0.9351  0.2300 -0.1168
 8329TIP3    H146478   3.557   6.749   4.823  0.3131  1.1374  0.3160
 8329TIP3    H246479   3.642   6.744   4.697 -1.4271 -1.7300 -0.8382
 8330TIP3   OH246480   0.128   3.126  15.845 -0.3374  1.3420 -0.1568
 8330TIP3    H146481   0.170   3.206  15.877 -0.9224  2.1471 -1.3199
 8330TIP3    H246482   0.073   3.096  15.917 -0.1517  2.0287  0.2698
 8331TIP3   OH246483   3.774   4.946  13.521 -0.6197  0.0907  0.3188
 8331TIP3    H146484   3.781   4.870  13.579 -0.0210  1.3898  2.0126
 8331TIP3    H246485   3.863   4.962  13.491 -0.6802  0.3658  0.2797
 8332TIP3   OH246486   1.810   0.052  11.402 -0.2026 -0.3522  0.8689
 8332TIP3    H146487   1.903   0.056  11.379 -0.2341 -0.2251  0.7586
 8332TIP3    H246488   1.781  -0.033  11.370 -0.6004  0.4087 -0.9344
 8333TIP3   OH246489   2.202   0.606   5.037  0.1420  0.5491 -0.0401
 8333TIP3    H146490   2.138   0.550   5.080 -0.4645 -0.2486 -1.8711
 8333TIP3    H246491   2.150   0.658   4.975  1.1265  0.5921 -0.8567
 8334TIP3   OH246492   6.423   1.928  14.316  0.0825  0.1042 -0.7491
 8334TIP3    H146493   6.468   2.010  14.294  0.7118 -0.7850 -3.0990
 8334TIP3    H246494   6.439   1.871  14.241  0.8063 -2.6970  1.3566
 8335TIP3   OH246495   0.471   3.422   3.872  0.2366  0.5485  0.0025
 8335TIP3    H146496   0.378   3.425   3.850  0.3078  0.9167 -0.2584
 8335TIP3    H246497   0.510   3.369   3.802  0.1509 -0.0180  0.3795
 8336TIP3   OH246498   0.607   2.007  15.081  0.5826  0.6138 -0.2100
 8336TIP3    H146499   0.562   2.080  15.123  0.3257 -0.4870  1.5703
 8336TIP3    H246500   0.674   1.981  15.145  0.0399 -1.2898 -0.3501
 8337TIP3   OH246501   2.120   3.053   4.941  0.6969 -0.1493  0.0169
 8337TIP3    H146502   2.141   3.097   5.024  1.7493 -0.1834 -0.2293
 8337TIP3    H246503   2.111   3.124   4.878  1.9462 -0.2466 -0.2823
 8338TIP3   OH246504   2.755   0.057  16.950  0.8743  0.3105  0.2732
 8338TIP3    H146505   2.784  -0.004  16.882 -2.4215 -0.5312 -0.5443
 8338TIP3    H246506   2.707   0.002  17.013  0.4891  1.6296  1.1677
 8339TIP3   OH246507   1.427   0.444   0.928 -0.3416 -0.4610  0.0521
 8339TIP3    H146508   1.382   0.470   1.008  0.3919 -1.7892  0.9453
 8339TIP3    H246509   1.411   0.515   0.866 -0.7238  0.7022  1.4513
 8340TIP3   OH246510   3.188   1.115  16.005  0.1912 -0.2977 -0.0496
 8340TIP3    H146511   3.114   1.116  16.066 -1.7148 -1.1374 -2.2143
 8340TIP3    H246512   3.259   1.075  16.054 -1.3355 -1.1711  1.5469
 8341TIP3   OH246513   4.508   0.024   1.302  0.0166 -0.3596 -0.5114
 8341TIP3    H146514   4.564   0.093   1.266  0.0017  0.1068  0.3388
 8341TIP3    H246515   4.472   0.062   1.382 -1.0832 -0.8531 -0.7608
 8342TIP3   OH246516   0.226   6.589   2.582  0.1208  0.4910  0.2853
 8342TIP3    H146517   0.220   6.672   2.631  0.2752 -0.1589  1.4398
 8342TIP3    H246518   0.315   6.557   2.600 -0.1337 -0.2100  0.3142
 8343TIP3   OH246519   6.736   6.560   5.019 -0.5841 -0.7196 -0.4693
 8343TIP3    H146520   6.677   6.600   5.084 -0.1841  0.7893 -0.9987
 8343TIP3    H246521   6.809   6.525   5.070  0.0310  1.0003 -0.1248
 8344TIP3   OH246522   5.497   1.931   0.968  0.4507 -0.0854 -0.3826
 8344TIP3    H146523   5.465   1.841   0.976 -2.2384  0.8313  0.1454
 8344TIP3    H246524   5.467   1.960   0.882 -2.8657  1.6994  1.2174
 8345TIP3   OH246525   4.675   1.156   0.677  0.5378 -0.5181  0.1334
 8345TIP3    H146526   4.690   1.148   0.583 -1.5963  1.7056 -0.4977
 8345TIP3    H246527   4.762   1.171   0.714  1.2187  0.6110 -1.7672
 8346TIP3   OH246528   6.274   3.108  11.296 -0.3302  0.0836  0.0393
 8346TIP3    H146529   6.308   3.019  11.294 -1.4696 -0.3753 -0.0440
 8346TIP3    H246530   6.202   3.105  11.360 -1.4670  0.5196 -1.1827
 8347TIP3   OH246531   5.621   5.007  15.296 -0.4556 -0.1903  0.5164
 8347TIP3    H146532   5.585   5.076  15.240 -1.9818  0.0380  1.7109
 8347TIP3    H246533   5.708   5.038  15.320  0.2078 -0.2553 -1.6000
 8348TIP3   OH246534   6.000   0.497   0.395  0.1058  0.1483 -0.2203
 8348TIP3    H146535   5.953   0.542   0.325 -0.4618 -0.0370  0.0337
 8348TIP3    H246536   5.935   0.487   0.465  0.4395 -0.3719  0.0238
 8349TIP3   OH246537   0.063   3.085   5.532  0.2746 -0.6632 -0.4006
 8349TIP3    H146538   0.120   3.087   5.455 -1.2109 -1.9665 -1.6061
 8349TIP3    H246539   0.116   3.122   5.602  3.1437 -3.0681 -1.0789
 8350TIP3   OH246540   3.958   0.131   2.496  0.0199  0.3188 -0.5821
 8350TIP3    H146541   3.964   0.043   2.458  0.5207  0.3243 -0.5266
 8350TIP3    H246542   3.865   0.143   2.515 -0.5209  0.9713 -3.3257
 8351TIP3   OH246543   2.280   2.795  12.211 -0.2272  0.1968  0.4907
 8351TIP3    H146544   2.375   2.809  12.214 -0.4036  1.3133  1.0789
 8351TIP3    H246545   2.271   2.699  12.214  0.9109 -0.0150 -1.0530
 8352TIP3   OH246546   1.957   0.651   5.327  0.1231  0.0965 -0.0914
 8352TIP3    H146547   1.932   0.679   5.240  2.3000 -1.7788 -1.4469
 8352TIP3    H246548   1.901   0.575   5.345  0.6764 -0.4341 -0.5466
 8353TIP3   OH246549   1.316   0.819  13.503  0.0165  0.2398  0.3285
 8353TIP3    H146550   1.257   0.871  13.448  0.6776  2.6979  1.7912
 8353TIP3    H246551   1.403   0.853  13.484  0.7200 -1.5148  0.1647
 8354TIP3   OH246552   2.296   1.808  16.180 -0.2769 -0.2116 -0.2392
 8354TIP3    H146553   2.352   1.765  16.245 -0.9381 -0.2208  0.3329
 8354TIP3    H246554   2.309   1.901  16.196 -0.5272 -0.2137 -0.0073
 8355TIP3   OH246555   6.497   0.720  11.758  0.1486 -0.7729 -0.1333
 8355TIP3    H146556   6.566   0.655  11.772  1.0894  0.1960 -0.1783
 8355TIP3    H246557   6.511   0.750  11.668  0.4828  0.3690  0.2926
 8356TIP3   OH246558   3.390   3.498  15.038  0.0729  0.6990 -0.3105
 8356TIP3    H146559   3.440   3.566  15.083 -0.4417  0.4607  0.6312
 8356TIP3    H246560   3.299   3.524  15.048 -0.4228 -1.6092  2.7207
 8357TIP3   OH246561   1.719   6.056   1.330 -0.3667  0.3570  0.3997
 8357TIP3    H146562   1.757   5.979   1.373 -0.2294  0.4946  0.5285
 8357TIP3    H246563   1.785   6.082   1.265 -0.9225 -0.3253 -0.4503
 8358TIP3   OH246564   5.693   2.910   2.255  0.2765 -0.1712 -0.3427
 8358TIP3    H146565   5.771   2.964   2.269 -0.3962  1.3182 -1.9180
 8358TIP3    H246566   5.698   2.883   2.163 -0.5024 -1.0070 -0.1533
 8359TIP3   OH246567   3.505   5.061   1.618  0.5200  0.2852 -0.2653
 8359TIP3    H146568   3.597   5.089   1.621  0.8745 -0.4418 -2.5734
 8359TIP3    H246569   3.462   5.128   1.566 -0.1767  0.3300  0.3532
 8360TIP3   OH246570   5.897   1.764  15.130 -0.1470 -0.1801  0.8482
 8360TIP3    H146571   5.839   1.837  15.150 -0.6012 -0.8582  2.1093
 8360TIP3    H246572   5.982   1.791  15.166  0.5086  1.0349 -1.4578
 8361TIP3   OH246573   5.789   6.169   3.005  0.2244 -0.3221 -0.0620
 8361TIP3    H146574   5.883   6.171   2.987  0.0693 -0.2903 -0.8798
 8361TIP3    H246575   5.783   6.158   3.100  1.0511 -1.1243 -0.0938
 8362TIP3   OH246576   5.461   6.022  13.125 -0.1022  0.5560  0.4643
 8362TIP3    H146577   5.409   6.062  13.055 -0.0538 -0.4222 -0.1506
 8362TIP3    H246578   5.549   6.016  13.090 -0.1256 -0.1561  0.4967
 8363TIP3   OH246579   4.164   5.118   2.020 -0.6867  0.2571  0.7077
 8363TIP3    H146580   4.210   5.098   1.939 -1.6220 -0.4467  0.3447
 8363TIP3    H246581   4.108   5.193   1.998 -0.9264  0.0786  0.7105
 8364TIP3   OH246582   4.554   6.304  10.838  0.5691 -0.4240  0.1397
 8364TIP3    H146583   4.541   6.236  10.904  0.0207 -1.8147 -1.3513
 8364TIP3    H246584   4.624   6.359  10.874  1.0874 -1.8156  1.3511
 8365TIP3   OH246585   0.925   5.197  15.821  0.1655 -0.5576 -0.0335
 8365TIP3    H146586   0.870   5.141  15.875 -0.6478  0.7916  0.5976
 8365TIP3    H246587   1.013   5.161  15.832 -0.3454 -1.7660  0.2514
 8366TIP3   OH246588   3.251   4.737   4.056 -0.9572 -0.4515 -0.4496
 8366TIP3    H146589   3.316   4.807   4.054 -0.9988 -0.4292 -1.7717
 8366TIP3    H246590   3.167   4.781   4.050 -0.9877 -0.5913 -1.1644
 8367TIP3   OH246591   0.323   6.535  13.456  0.4572 -0.2244  0.1026
 8367TIP3    H146592   0.268   6.459  13.477  0.7535 -0.4589  0.0389
 8367TIP3    H246593   0.396   6.530  13.518 -0.0814  0.6273  0.8314
 8368TIP3   OH246594   0.495   4.009   0.930  0.0323 -0.2577  0.5722
 8368TIP3    H146595   0.521   4.102   0.929 -1.1463  0.1716  3.0542
 8368TIP3    H246596   0.539   3.973   1.007 -1.7128 -1.0368  1.2563
 8369TIP3   OH246597   6.675   0.656  16.029  0.4547 -0.0508 -0.1381
 8369TIP3    H146598   6.593   0.671  15.983  1.0035 -2.2693 -2.0494
 8369TIP3    H246599   6.653   0.666  16.121 -1.5942  0.8607 -0.6657
 8370TIP3   OH246600   0.164   5.884   3.398  0.1742  0.3403 -0.0420
 8370TIP3    H146601   0.161   5.882   3.493 -0.8254  2.2820  0.0085
 8370TIP3    H246602   0.072   5.882   3.370  0.4127  0.8926 -0.9186
 8371TIP3   OH246603   2.326   3.456  11.484  0.1879 -0.2038  0.0817
 8371TIP3    H146604   2.265   3.385  11.461 -0.2909  0.4016 -0.5857
 8371TIP3    H246605   2.407   3.435  11.438 -0.6843  0.8635 -2.0806
 8372TIP3   OH246606   6.630   0.664  15.716  0.5832 -0.2424 -0.3322
 8372TIP3    H146607   6.656   0.646  15.626  0.4005 -1.5888 -0.1445
 8372TIP3    H246608   6.692   0.730  15.747  0.0781  0.9405 -1.7173
 8373TIP3   OH246609   2.869   4.092  15.722 -0.0264  0.0342 -0.5599
 8373TIP3    H146610   2.947   4.114  15.774  0.3332 -1.5249 -0.3908
 8373TIP3    H246611   2.831   4.176  15.700  0.9176  0.7959  0.5731
 8374TIP3   OH246612   0.497   6.046  13.135 -0.2201 -0.5039  0.1967
 8374TIP3    H146613   0.479   5.952  13.132 -2.4849 -0.1229  0.0123
 8374TIP3    H246614   0.442   6.083  13.066  1.7021  0.8434 -0.7026
 8375TIP3   OH246615   3.862   2.965   2.269 -0.0227  0.2288 -0.3077
 8375TIP3    H146616   3.949   2.997   2.247 -0.9830  1.8924 -1.9425
 8375TIP3    H246617   3.848   2.889   2.212  1.1677 -1.5093  1.5809
 8376TIP3   OH246618   3.092   0.785   3.364 -0.3178 -0.1839  0.5280
 8376TIP3    H146619   3.182   0.789   3.398 -0.4653 -1.2060  1.0664
 8376TIP3    H246620   3.037   0.816   3.436 -0.5906 -1.8908  1.0757
 8377TIP3   OH246621   2.620   1.381  11.218  0.3805 -0.7404  0.1193
 8377TIP3    H146622   2.622   1.475  11.231 -0.8275 -0.5702 -0.7921
 8377TIP3    H246623   2.671   1.366  11.137  0.4036 -0.8516  0.1537
 8378TIP3   OH246624   5.682   4.013   0.593  0.0664 -0.0517 -0.1147
 8378TIP3    H146625   5.657   3.990   0.504  0.3351  0.5578 -0.3479
 8378TIP3    H246626   5.606   3.989   0.646 -0.4512  0.4360 -0.6267
 8379TIP3   OH246627   2.552   0.835  12.572 -0.2185 -0.0184  0.0173
 8379TIP3    H146628   2.595   0.919  12.559  1.9547 -1.1190 -0.2428
 8379TIP3    H246629   2.622   0.774  12.595 -1.6894 -1.8340 -0.0067
 8380TIP3   OH246630   6.739   0.421   5.021  0.2760  0.3427  0.9161
 8380TIP3    H146631   6.644   0.413   5.012  0.1764  0.6497  1.5810
 8380TIP3    H246632   6.757   0.387   5.109  0.8410 -0.1508  0.6133
 8381TIP3   OH246633   2.818   6.631   0.238 -0.8116  1.0315  0.3267
 8381TIP3    H146634   2.902   6.659   0.273  0.8285 -2.5637 -0.3128
 8381TIP3    H246635   2.780   6.578   0.308 -0.4938 -0.8692 -0.8761
 8382TIP3   OH246636   0.373   0.492  14.897  0.2274 -0.2985 -0.0071
 8382TIP3    H146637   0.324   0.574  14.902 -1.2852 -1.1642 -0.0081
 8382TIP3    H246638   0.350   0.445  14.977 -0.9141 -1.7682 -1.1471
 8383TIP3   OH246639   0.900   0.107   3.359 -0.1587  0.4989  0.4883
 8383TIP3    H146640   0.845   0.182   3.382  0.7142  0.9202  1.2763
 8383TIP3    H246641   0.926   0.070   3.443 -1.5684 -1.4679  0.1176
 8384TIP3   OH246642   5.911   4.036  16.741  0.3241  0.8249  0.1411
 8384TIP3    H146643   5.873   4.060  16.656  2.5903  0.2749 -1.1269
 8384TIP3    H246644   5.842   3.987  16.786 -0.5244 -0.0572 -1.9749
 8385TIP3   OH246645   2.731   2.412  12.098  0.1658 -0.0205  0.4848
 8385TIP3    H146646   2.742   2.348  12.169  1.4493 -1.1900 -0.7152
 8385TIP3    H246647   2.744   2.361  12.018 -0.0749  1.5125 -0.5621
 8386TIP3   OH246648   3.294   4.944   5.895  0.4056  0.2721 -0.1048
 8386TIP3    H146649   3.307   4.988   5.979 -1.5889  0.9836 -0.1278
 8386TIP3    H246650   3.323   4.854   5.910 -0.3555  0.2739  1.4846
 8387TIP3   OH246651   6.435   2.786  10.951  0.2539 -0.0284 -0.8383
 8387TIP3    H146652   6.438   2.865  10.896  1.9945 -0.1588 -0.9876
 8387TIP3    H246653   6.493   2.724  10.907 -1.5190 -1.6350 -1.0260
 8388TIP3   OH246654   2.543   0.396  12.819  0.0617 -0.7002 -0.0264
 8388TIP3    H146655   2.576   0.378  12.731  1.5924 -0.7624  0.5366
 8388TIP3    H246656   2.544   0.492  12.826 -0.3593 -0.6831 -0.1809
 8389TIP3   OH246657   3.670   4.394  14.488 -0.2824 -0.2952  0.5729
 8389TIP3    H146658   3.662   4.304  14.458 -0.9781 -0.6722  1.8168
 8389TIP3    H246659   3.636   4.393  14.577 -0.8097  1.3040  0.4287
 8390TIP3   OH246660   1.789   0.306  13.387  0.1190 -0.1601  0.0540
 8390TIP3    H146661   1.722   0.293  13.320  1.3367  0.0931 -1.2650
 8390TIP3    H246662   1.862   0.250  13.359  0.5327 -0.2944  1.3477
 8391TIP3   OH246663   0.853   1.811  11.942  0.7835 -0.2999 -0.2258
 8391TIP3    H146664   0.774   1.762  11.920  0.2104  1.0999 -1.4637
 8391TIP3    H246665   0.822   1.884  11.995  1.2425  0.1731 -0.5945
 8392TIP3   OH246666   0.396   2.537  12.153 -0.3649  0.0930 -0.1560
 8392TIP3    H146667   0.343   2.608  12.116  0.2299  0.3184 -0.5857
 8392TIP3    H246668   0.480   2.544  12.108  0.0249 -0.2760  0.4974
 8393TIP3   OH246669   0.153   4.984   5.056 -0.2803 -0.0720  0.6599
 8393TIP3    H146670   0.214   5.051   5.086  0.7234 -0.0192 -1.3560
 8393TIP3    H246671   0.204   4.930   4.996 -2.1462 -0.1159 -0.9895
 8394TIP3   OH246672   2.658   1.875  16.068 -0.1086  0.0465 -0.2269
 8394TIP3    H146673   2.740   1.861  16.021  0.0762 -0.4403  0.2392
 8394TIP3    H246674   2.623   1.788  16.083 -0.0888  0.1868  0.6736
 8395TIP3   OH246675   0.594   5.204   2.393 -0.0498  0.0961 -0.3833
 8395TIP3    H146676   0.560   5.198   2.304 -0.9345 -0.5645 -0.0215
 8395TIP3    H246677   0.663   5.270   2.388 -0.8459  0.8996 -1.3244
 8396TIP3   OH246678   4.107   5.910   1.890  0.2633 -0.3993 -0.8787
 8396TIP3    H146679   4.030   5.963   1.911  0.0889 -0.9797  0.0612
 8396TIP3    H246680   4.082   5.861   1.812  0.8613  1.7218 -2.4949
 8397TIP3   OH246681   3.962   4.415  14.190 -0.0438 -0.3487 -0.4670
 8397TIP3    H146682   3.945   4.391  14.099  1.4659  0.8147 -1.1050
 8397TIP3    H246683   4.050   4.382  14.207 -0.0386  0.0592  0.3392
 8398TIP3   OH246684   1.121   5.444  12.009  0.2998  0.2760  0.3695
 8398TIP3    H146685   1.199   5.487  12.044 -0.3221  0.3772  1.6932
 8398TIP3    H246686   1.153   5.391  11.936  1.3094  1.8063 -0.3631
 8399TIP3   OH246687   6.212   4.893  16.051 -0.2361 -0.1379  0.0697
 8399TIP3    H146688   6.209   4.864  16.142  0.7380 -2.1620 -0.4952
 8399TIP3    H246689   6.211   4.812  15.999 -1.5372  0.9675 -1.7744
 8400TIP3   OH246690   4.723   6.039  14.413 -0.0448  0.4605  0.2730
 8400TIP3    H146691   4.672   6.114  14.444  0.1956 -0.0444  2.0132
 8400TIP3    H246692   4.717   5.975  14.485  1.1717 -0.4944 -0.4440
 8401TIP3   OH246693   1.257   3.086  16.447  0.5133 -0.3186  0.4619
 8401TIP3    H146694   1.321   3.066  16.516  1.8667  2.8029  0.2974
 8401TIP3    H246695   1.302   3.065  16.366  0.6466  0.1401  0.4124
 8402TIP3   OH246696   4.902   0.442   3.565 -0.2970 -0.2539  0.5420
 8402TIP3    H146697   4.819   0.447   3.519 -0.2409  0.9541  0.5345
 8402TIP3    H246698   4.881   0.398   3.648 -0.3219 -2.8130 -0.7141
 8403TIP3   OH246699   4.417   3.639  15.706 -0.1716 -0.3919  0.6225
 8403TIP3    H146700   4.484   3.704  15.684  0.0881 -1.0042 -0.4645
 8403TIP3    H246701   4.465   3.568  15.747  0.1679 -1.6202 -1.7405
 8404TIP3   OH246702   4.627   2.943  14.211  0.2933 -0.3259  0.3663
 8404TIP3    H146703   4.618   2.878  14.281  1.8225  0.7623  1.6409
 8404TIP3    H246704   4.706   2.992  14.234 -1.1862  2.4727 -0.1643
 8405TIP3   OH246705   5.831   1.596   1.929  0.4722 -0.8463 -0.1758
 8405TIP3    H146706   5.757   1.535   1.925  0.0998 -0.5106  1.0429
 8405TIP3    H246707   5.792   1.682   1.910  0.4747 -0.6360  0.6984
 8406TIP3   OH246708   6.755   2.401   0.584  0.3639 -0.3330  0.3915
 8406TIP3    H146709   6.764   2.458   0.507  0.7289 -1.1419 -0.1823
 8406TIP3    H246710   6.712   2.322   0.550  3.1285 -1.9497  0.3322
 8407TIP3   OH246711   1.815   4.147  13.213  0.1164 -0.0516  0.3382
 8407TIP3    H146712   1.883   4.163  13.278  1.3817 -0.5377 -0.8334
 8407TIP3    H246713   1.789   4.235  13.184  1.2529  0.1121 -0.2175
 8408TIP3   OH246714   5.759   0.627   4.719 -0.2791  0.2312 -0.0937
 8408TIP3    H146715   5.789   0.602   4.632  2.5591 -0.3396  0.9122
 8408TIP3    H246716   5.750   0.543   4.766 -0.3764  0.5917  0.5494
 8409TIP3   OH246717   3.106   6.497  16.465  0.5866  0.0052  0.3671
 8409TIP3    H146718   3.112   6.565  16.398  1.1046 -1.3067 -0.9748
 8409TIP3    H246719   3.042   6.434  16.431 -0.4576  0.1426  1.9285
 8410TIP3   OH246720   6.627   4.279   3.987 -0.5678  0.0231 -0.3228
 8410TIP3    H146721   6.533   4.278   4.004 -0.9433  1.8813 -1.8596
 8410TIP3    H246722   6.664   4.331   4.059 -0.8292 -0.0601 -0.1283
 8411TIP3   OH246723   5.365   3.587   3.589 -0.1349  0.2347  0.2164
 8411TIP3    H146724   5.286   3.552   3.630  0.7428 -1.1085  0.8637
 8411TIP3    H246725   5.411   3.510   3.556  0.5141  1.0639 -0.9006
 8412TIP3   OH246726   5.953   1.340  11.867 -0.0834 -0.7574 -0.5829
 8412TIP3    H146727   5.943   1.396  11.789 -0.6508 -0.8322 -0.5700
 8412TIP3    H246728   5.923   1.395  11.939 -1.2954 -1.2879 -0.6546
 8413TIP3   OH246729   1.173   5.594  12.445  0.2373  0.1770 -0.3766
 8413TIP3    H146730   1.178   5.543  12.364  0.0364  1.0639 -0.9684
 8413TIP3    H246731   1.126   5.673  12.420  2.1206  1.5020  0.0664
 8414TIP3   OH246732   3.908   5.489   1.265  0.3239  0.2653 -0.1917
 8414TIP3    H146733   3.862   5.439   1.199 -1.8909 -0.6487  1.8861
 8414TIP3    H246734   3.943   5.565   1.219 -3.1347  0.9347 -2.0291
 8415TIP3   OH246735   5.201   6.707  11.942 -0.5090 -0.1208  0.0839
 8415TIP3    H146736   5.270   6.707  11.876  0.0007  0.7508  0.5994
 8415TIP3    H246737   5.245   6.734  12.023 -1.2139 -0.7208  0.6884
 8416TIP3   OH246738   1.646   0.041  15.767  0.2425 -0.5389 -0.3170
 8416TIP3    H146739   1.651  -0.055  15.772 -0.0436 -0.5194  3.5106
 8416TIP3    H246740   1.731   0.072  15.796 -0.1900  0.3498  0.0470
 8417TIP3   OH246741   6.530   5.386   1.356 -0.5032 -0.4109  0.1683
 8417TIP3    H146742   6.603   5.326   1.375  0.4502  1.3894  2.7818
 8417TIP3    H246743   6.561   5.439   1.283  0.3113 -0.5185  0.4223
 8418TIP3   OH246744   3.968   1.679   1.390 -0.2559  0.0904  0.3047
 8418TIP3    H146745   4.038   1.616   1.405 -0.2884  0.0167  0.1520
 8418TIP3    H246746   4.006   1.742   1.329 -1.1556 -1.4177 -1.9521
 8419TIP3   OH246747   6.456   6.157   0.657 -0.3225  0.6445  0.1068
 8419TIP3    H146748   6.497   6.110   0.729 -0.6122  1.0239  0.5233
 8419TIP3    H246749   6.419   6.236   0.697  0.4591  1.4102 -0.6371
 8420TIP3   OH246750   3.507   4.087   1.611  0.0063 -0.4317 -0.0540
 8420TIP3    H146751   3.528   4.005   1.567  2.0187  0.7129 -1.3313
 8420TIP3    H246752   3.501   4.063   1.704  2.1048 -1.7912 -0.2089
 8421TIP3   OH246753   0.396   3.355   5.353  0.3839 -0.0944  0.1343
 8421TIP3    H146754   0.327   3.420   5.363  0.5307 -0.1029  1.4008
 8421TIP3    H246755   0.477   3.406   5.358  0.5125 -0.4169  1.7404
 8422TIP3   OH246756   6.153   6.375   5.496 -0.3781 -1.1071 -0.2367
 8422TIP3    H146757   6.179   6.401   5.585  1.4638 -0.9202 -0.7723
 8422TIP3    H246758   6.121   6.286   5.506 -1.1575 -0.7440  0.7472
 8423TIP3   OH246759   1.118   5.653   3.395 -0.5081 -0.3419  0.1159
 8423TIP3    H146760   1.136   5.746   3.404 -0.8429 -0.3113  0.4798
 8423TIP3    H246761   1.022   5.647   3.388 -0.4382 -0.5780 -0.8472
 8424TIP3   OH246762   5.536   6.471   0.979  0.2464 -0.3479 -0.1894
 8424TIP3    H146763   5.510   6.555   1.015 -1.6455 -1.1006  0.3320
 8424TIP3    H246764   5.631   6.472   0.980  0.2787  0.6230  2.6516
 8425TIP3   OH246765   4.420   2.875   4.786  0.0550  0.0907 -0.7232
 8425TIP3    H146766   4.389   2.812   4.721 -1.6346  0.8907 -0.7434
 8425TIP3    H246767   4.431   2.823   4.866 -0.8658 -0.3358 -0.8595
 8426TIP3   OH246768   1.962   6.747  15.251 -0.3922  0.2452  0.0117
 8426TIP3    H146769   1.988   6.673  15.196 -0.1533  1.2216 -1.2409
 8426TIP3    H246770   1.967   6.714  15.341 -0.9526 -1.4494 -0.5405
 8427TIP3   OH246771   1.353   3.569  12.442  0.2825 -0.7900 -0.2114
 8427TIP3    H146772   1.334   3.557  12.349 -0.2107 -1.2288 -0.0561
 8427TIP3    H246773   1.439   3.529  12.454  1.4504  1.3648 -0.9508
 8428TIP3   OH246774   6.507   0.689   2.731  0.4172  0.0085 -0.9329
 8428TIP3    H146775   6.568   0.633   2.682  1.3924 -0.3994  0.6789
 8428TIP3    H246776   6.547   0.699   2.817 -0.8172  1.4308 -0.4797
 8429TIP3   OH246777   6.032   0.421   2.675  0.5396  0.3652 -0.5935
 8429TIP3    H146778   6.105   0.470   2.713  1.2036 -0.6247 -0.5451
 8429TIP3    H246779   5.967   0.416   2.745  0.1881  1.6812 -0.7968
 8430TIP3   OH246780   4.681   6.595  14.511 -0.1943  0.0532 -0.2035
 8430TIP3    H146781   4.595   6.618  14.545 -0.2210 -0.6238  0.2043
 8430TIP3    H246782   4.663   6.539  14.434 -0.1226  0.2125 -0.3370
 8431TIP3   OH246783   4.289   1.510   4.058 -0.5608  0.9746  0.6083
 8431TIP3    H146784   4.329   1.437   4.105 -0.3780 -0.1929 -1.2398
 8431TIP3    H246785   4.197   1.510   4.086 -0.5680  0.0106  0.6071
 8432TIP3   OH246786   5.295   5.464   4.328  0.1023  0.3387 -0.0219
 8432TIP3    H146787   5.208   5.429   4.349 -0.3279  1.0140 -0.6304
 8432TIP3    H246788   5.277   5.541   4.274  1.0738  0.7979  0.3046
 8433TIP3   OH246789   2.227   6.474   2.262 -0.8688 -0.1963  0.4202
 8433TIP3    H146790   2.283   6.473   2.340 -0.2718 -1.8368  0.0104
 8433TIP3    H246791   2.284   6.509   2.193 -1.1408  0.4748  0.5284
 8434TIP3   OH246792   6.269   1.123  14.893 -0.0562 -0.6930  0.3170
 8434TIP3    H146793   6.316   1.107  14.975  0.7481  0.8357  0.1828
 8434TIP3    H246794   6.248   1.216  14.895 -1.7625 -1.0247 -0.3460
 8435TIP3   OH246795   1.121   2.288   3.698  1.0838 -0.4524 -0.4040
 8435TIP3    H146796   1.129   2.364   3.640  1.1747  0.0890  0.3097
 8435TIP3    H246797   1.196   2.295   3.758  0.8210 -0.8331 -0.0244
 8436TIP3   OH246798   2.981   2.351  15.082  0.1342 -0.0435 -0.1280
 8436TIP3    H146799   2.979   2.264  15.042  1.4586  0.2337 -0.8318
 8436TIP3    H246800   2.941   2.408  15.017 -1.0447 -0.1424  0.4698
 8437TIP3   OH246801   1.234   2.834   3.292 -0.1574  0.1265  0.0371
 8437TIP3    H146802   1.237   2.835   3.196  0.7574 -0.3680  0.0525
 8437TIP3    H246803   1.208   2.744   3.314 -1.6507  0.5805  0.2407
 8438TIP3   OH246804   1.407   3.067   2.123  0.0485 -0.2140  0.0315
 8438TIP3    H146805   1.396   3.025   2.038  1.2220 -1.8831  0.6608
 8438TIP3    H246806   1.471   3.136   2.107  1.0765 -1.2018 -0.2524
 8439TIP3   OH246807   5.685   3.886  12.666 -0.2010  0.3648 -0.0057
 8439TIP3    H146808   5.768   3.915  12.629 -0.9475 -0.3665 -2.4337
 8439TIP3    H246809   5.636   3.851  12.591 -1.9686 -0.9323  1.6518
 8440TIP3   OH246810   1.223   5.872   0.350 -0.1195 -0.2039 -0.1425
 8440TIP3    H146811   1.253   5.927   0.423 -0.3990 -0.3514  0.0854
 8440TIP3    H246812   1.144   5.830   0.383 -0.4076 -0.0558 -0.6340
 8441TIP3   OH246813   1.605   3.369  12.457  0.1688  0.7259 -0.0067
 8441TIP3    H146814   1.650   3.286  12.475 -0.0083  0.0907 -2.1756
 8441TIP3    H246815   1.675   3.432  12.441  0.3083  1.0896  1.9060
 8442TIP3   OH246816   5.207   4.926   6.699 -0.0181 -0.0719  0.2631
 8442TIP3    H146817   5.246   4.840   6.713 -0.9952 -0.5310  0.2331
 8442TIP3    H246818   5.193   4.960   6.788 -0.6313 -0.4069  0.2967
 8443TIP3   OH246819   3.923   4.391  15.454 -0.0391 -0.1436 -0.2472
 8443TIP3    H146820   3.862   4.449  15.407  1.4419  0.9461 -0.9012
 8443TIP3    H246821   3.912   4.415  15.546 -1.0028 -0.3780 -0.2827
 8444TIP3   OH246822   6.219   1.796  12.000  0.1285 -0.4378  0.6707
 8444TIP3    H146823   6.285   1.823  11.937 -1.6324 -1.2573 -1.6603
 8444TIP3    H246824   6.270   1.768  12.077  2.3163  1.2109 -0.0767
 8445TIP3   OH246825   4.050   2.526   4.107 -0.3029  0.2083  0.1701
 8445TIP3    H146826   4.044   2.538   4.201  1.4613  1.2227  0.1880
 8445TIP3    H246827   3.977   2.576   4.071 -1.6964 -1.1259  1.0088
 8446TIP3   OH246828   6.741   4.194  12.497 -0.2741 -0.0425 -0.5577
 8446TIP3    H146829   6.718   4.255  12.567 -1.0431 -0.2558 -0.6150
 8446TIP3    H246830   6.726   4.244  12.417 -0.2004 -0.0724 -0.5900
 8447TIP3   OH246831   4.582   1.425   5.536 -0.0528 -0.0593  0.4519
 8447TIP3    H146832   4.538   1.460   5.614 -0.7980 -0.6810  0.3197
 8447TIP3    H246833   4.651   1.369   5.570 -2.0930 -2.5471  0.7433
 8448TIP3   OH246834   4.349   4.042  12.484  0.0012 -0.1365  0.0085
 8448TIP3    H146835   4.343   4.095  12.564 -1.4816 -0.0656 -0.1068
 8448TIP3    H246836   4.267   3.992  12.483  0.3598 -0.7336 -1.0586
 8449TIP3   OH246837   3.111   6.038   1.637 -0.5849  0.2441 -0.3579
 8449TIP3    H146838   3.047   6.108   1.648 -1.0206 -0.2911  0.6717
 8449TIP3    H246839   3.086   5.971   1.702  1.2007  0.1752  0.3417
 8450TIP3   OH246840   6.592   2.858  11.671 -0.0310 -0.3300  0.2874
 8450TIP3    H146841   6.535   2.929  11.701 -0.1746  1.5199 -3.7647
 8450TIP3    H246842   6.673   2.870  11.720 -1.4739 -0.1301  2.7819
 8451TIP3   OH246843   6.100   3.309   5.922  0.0199 -0.5184 -0.5482
 8451TIP3    H146844   6.064   3.365   5.991 -0.9314 -2.0863  0.2807
 8451TIP3    H246845   6.159   3.250   5.967  0.5866 -0.5718 -1.3305
 8452TIP3   OH246846   6.482   6.656  16.606 -0.7645 -0.1710  0.4526
 8452TIP3    H146847   6.534   6.577  16.621 -2.5538 -1.1835  1.8492
 8452TIP3    H246848   6.483   6.701  16.691 -0.7523  0.6707  0.0084
 8453TIP3   OH246849   6.520   5.203   5.468 -0.0260  0.3602 -0.0391
 8453TIP3    H146850   6.613   5.197   5.488  0.6075  1.8393 -2.1872
 8453TIP3    H246851   6.507   5.294   5.441 -2.2268  0.3368  0.7390
 8454TIP3   OH246852   4.355   1.329   0.021  0.3563 -0.0225 -0.3011
 8454TIP3    H146853   4.373   1.256   0.081  1.8298  1.3533  1.0536
 8454TIP3    H246854   4.312   1.395   0.076  0.7848  0.8636 -0.9970
 8455TIP3   OH246855   0.300   3.464   0.117  0.3871 -0.2003 -0.0540
 8455TIP3    H146856   0.205   3.451   0.115  0.2939  0.5063 -2.1257
 8455TIP3    H246857   0.311   3.549   0.159 -0.0150  0.3817 -1.0927
 8456TIP3   OH246858   4.126   6.049   5.511 -0.1987 -0.2764  0.2161
 8456TIP3    H146859   4.206   5.996   5.510  0.0951  0.1565  0.3936
 8456TIP3    H246860   4.055   5.985   5.512  0.0405 -0.7386 -2.7845
 8457TIP3   OH246861   2.902   3.491  15.515  0.2653  0.2285 -0.3745
 8457TIP3    H146862   2.967   3.424  15.497  1.1737  0.6972  0.9563
 8457TIP3    H246863   2.909   3.552  15.442  0.2161 -0.5410 -1.0268
 8458TIP3   OH246864   0.132   0.400   1.905  0.4571 -0.3409 -0.3740
 8458TIP3    H146865   0.114   0.494   1.898  1.7206 -0.0456  0.1198
 8458TIP3    H246866   0.139   0.370   1.814 -0.6063 -0.0980 -0.5416
 8459TIP3   OH246867   5.733   0.641  15.250  0.2047 -0.2963 -0.4676
 8459TIP3    H146868   5.803   0.603  15.197 -0.3677 -1.7329 -0.2378
 8459TIP3    H246869   5.747   0.736  15.243  2.8744 -0.5160  0.5115
 8460TIP3   OH246870   5.285   5.517   3.237  0.5993 -0.8506  0.6572
 8460TIP3    H146871   5.243   5.542   3.155  1.3300  0.0383  0.5243
 8460TIP3    H246872   5.293   5.600   3.285 -0.4014 -1.4645  1.9107
 8461TIP3   OH246873   6.450   3.643  11.946  0.3282  0.0662  0.1275
 8461TIP3    H146874   6.367   3.666  11.905  0.3953 -0.3288 -0.2406
 8461TIP3    H246875   6.466   3.713  12.009 -0.4719 -0.0528  0.4775
 8462TIP3   OH246876   1.498   1.049   2.334 -0.3801  0.1144 -0.4113
 8462TIP3    H146877   1.439   0.986   2.291  0.8955 -0.2368 -1.7307
 8462TIP3    H246878   1.576   0.997   2.355  0.3421  1.0529 -0.7345
 8463TIP3   OH246879   5.569   0.983  15.074  0.6929  0.7576  0.2757
 8463TIP3    H146880   5.517   0.970  15.153 -0.4824 -1.3587 -0.7493
 8463TIP3    H246881   5.656   0.951  15.096  0.5492  0.8090  0.9208
 8464TIP3   OH246882   5.625   5.800   0.274 -0.2196 -0.6510 -0.5436
 8464TIP3    H146883   5.694   5.866   0.264  0.5461 -1.4405 -0.6462
 8464TIP3    H246884   5.609   5.797   0.368 -2.4661  1.8297 -0.7208
 8465TIP3   OH246885   1.162   2.187  13.152 -0.1151 -0.5401 -0.1436
 8465TIP3    H146886   1.205   2.107  13.184  0.5450  0.0857  0.5578
 8465TIP3    H246887   1.154   2.242  13.230 -0.3560  0.1846 -0.6747
 8466TIP3   OH246888   0.078   2.668   2.000 -0.0404 -0.2655  0.5463
 8466TIP3    H146889   0.061   2.638   2.089 -2.8861  0.1069  0.2411
 8466TIP3    H246890   0.004   2.727   1.980  1.4761  1.1268 -1.4192
 8467TIP3   OH246891   4.800   4.534   6.722  0.1483  0.6618  0.1675
 8467TIP3    H146892   4.781   4.626   6.742 -1.5145  0.4057 -0.0727
 8467TIP3    H246893   4.739   4.512   6.652  0.6534 -0.5804  0.0976
 8468TIP3   OH246894   0.785   5.109   2.025  0.6647 -0.5294  0.4200
 8468TIP3    H146895   0.714   5.141   2.081 -0.1924  0.1224 -0.9789
 8468TIP3    H246896   0.747   5.033   1.981  0.8421 -0.2063 -0.2974
 8469TIP3   OH246897   5.189   2.362   5.556 -0.2937  0.4674  0.5080
 8469TIP3    H146898   5.184   2.384   5.648  0.0076  1.1067  0.3792
 8469TIP3    H246899   5.283   2.352   5.539 -0.1053  2.8462 -0.2715
 8470TIP3   OH246900   1.369   5.042   2.434  0.6317  0.0215  0.1784
 8470TIP3    H146901   1.314   4.964   2.445  1.2656 -0.1765  2.4676
 8470TIP3    H246902   1.456   5.015   2.465  1.2829  1.1894 -0.5512
 8471TIP3   OH246903   5.043   0.376  13.817  0.2799  0.4983  0.3858
 8471TIP3    H146904   5.005   0.439  13.878  1.2589  0.6584  0.8552
 8471TIP3    H246905   5.002   0.293  13.841  1.7598  0.2527  2.3496
 8472TIP3   OH246906   5.524   1.610   0.641 -0.6169  0.4229  0.7966
 8472TIP3    H146907   5.561   1.523   0.656  1.6807  1.2745  0.4714
 8472TIP3    H246908   5.579   1.669   0.693 -1.7272  1.7669  0.5202
 8473TIP3   OH246909   2.428   6.430  14.941  0.8784  0.4082  0.5919
 8473TIP3    H146910   2.370   6.398  14.872  0.2830  0.2787  1.1342
 8473TIP3    H246911   2.505   6.462  14.895  1.8753 -2.4882  0.0312
 8474TIP3   OH246912   5.855   4.284   3.078  0.1700  1.2622  0.5306
 8474TIP3    H146913   5.911   4.352   3.041  0.4007  0.8897  0.1856
 8474TIP3    H246914   5.847   4.307   3.171 -0.6082  2.3390  0.2232
 8475TIP3   OH246915   1.135   0.062  15.137 -0.2940  0.0384  0.1167
 8475TIP3    H146916   1.222   0.025  15.122 -0.5964 -0.2889 -0.8891
 8475TIP3    H246917   1.101   0.081  15.050 -1.6161 -0.7202  0.4345
 8476TIP3   OH246918   6.641   2.052   4.864 -0.4498  0.0938  0.3463
 8476TIP3    H146919   6.609   1.994   4.933  1.3623 -1.3317  0.0513
 8476TIP3    H246920   6.707   2.107   4.909  0.5325 -0.6492 -0.1520
 8477TIP3   OH246921   2.666   6.009  13.682  0.4778  0.0293 -0.0417
 8477TIP3    H146922   2.618   6.034  13.603  1.2269  1.8900  0.0497
 8477TIP3    H246923   2.666   5.913  13.680  0.1513  0.0187 -2.0985
 8478TIP3   OH246924   3.761   5.876  16.578 -0.7213 -0.1392 -0.2360
 8478TIP3    H146925   3.850   5.857  16.608 -0.0328  0.1148 -1.9989
 8478TIP3    H246926   3.758   5.843  16.488 -1.1859  3.1313 -1.5588
 8479TIP3   OH246927   1.951   6.210  13.629 -0.2186  0.3539 -0.3023
 8479TIP3    H146928   2.001   6.177  13.704 -0.7003  0.7606  0.2030
 8479TIP3    H246929   2.006   6.190  13.553 -0.3621 -1.4017 -0.0061
 8480TIP3   OH246930   5.081   2.681   2.768 -0.6713  0.2014 -0.0266
 8480TIP3    H146931   5.160   2.733   2.779 -0.1311 -0.2890 -1.3864
 8480TIP3    H246932   5.076   2.664   2.673 -1.8265 -0.6585  0.1641
 8481TIP3   OH246933   1.916   5.161   0.577  0.4338 -0.5470  0.0784
 8481TIP3    H146934   1.914   5.189   0.669  0.7324  0.5020 -0.2269
 8481TIP3    H246935   1.936   5.240   0.528  1.4132 -1.3174 -0.8145
 8482TIP3   OH246936   6.033   6.638   4.474  0.7387  0.5219 -0.2905
 8482TIP3    H146937   6.116   6.641   4.426  1.5579  1.1044  1.0832
 8482TIP3    H246938   5.999   6.550   4.459  2.5906 -0.4232  0.6539
 8483TIP3   OH246939   6.109   0.857  16.519 -0.0541 -0.0400  0.0668
 8483TIP3    H146940   6.176   0.792  16.497 -0.8364 -1.4786  1.7378
 8483TIP3    H246941   6.057   0.816  16.588 -0.9269  2.1628  0.7965
 8484TIP3   OH246942   0.099   1.952  10.983 -0.1285 -0.1544 -0.4582
 8484TIP3    H146943   0.121   1.871  10.936  0.1585  0.8403 -2.1091
 8484TIP3    H246944   0.009   1.938  11.012 -0.0113 -1.1481 -0.5184
 8485TIP3   OH246945   4.842   4.488   2.562  0.5211  0.9033 -0.2164
 8485TIP3    H146946   4.792   4.516   2.640  0.8510  0.6254  0.0976
 8485TIP3    H246947   4.777   4.447   2.506  0.1297  1.7952 -0.4347
 8486TIP3   OH246948   3.532   1.587   1.267  0.1348  0.7299 -0.0493
 8486TIP3    H146949   3.607   1.554   1.318 -0.2293 -0.3019 -0.1563
 8486TIP3    H246950   3.571   1.617   1.185  0.3389 -0.7920 -0.5464
 8487TIP3   OH246951   0.720   2.978   4.873  0.1770  0.4991  0.1852
 8487TIP3    H146952   0.649   2.966   4.936 -1.1120  1.3100 -1.0605
 8487TIP3    H246953   0.704   3.065   4.836  2.8721  1.5081  1.1387
 8488TIP3   OH246954   1.232   5.444  15.223 -0.6365 -0.6067  0.1465
 8488TIP3    H146955   1.209   5.351  15.219  0.4681 -0.9370  0.9732
 8488TIP3    H246956   1.327   5.444  15.235 -0.8574  0.5426  2.5479
 8489TIP3   OH246957   4.441   4.873   6.799  0.3810  0.5762  0.0986
 8489TIP3    H146958   4.423   4.928   6.723  0.9998 -0.0748 -0.5376
 8489TIP3    H246959   4.528   4.901   6.829  1.3008 -0.9390 -1.0540
 8490TIP3   OH246960   6.700   5.544   2.723 -0.2285  0.4176  0.5310
 8490TIP3    H146961   6.793   5.567   2.730  0.0138 -0.2238 -0.4869
 8490TIP3    H246962   6.692   5.464   2.775 -0.0578  0.0592  0.0069
 8491TIP3   OH246963   6.346   6.406   0.968 -0.6209 -0.6696  0.0258
 8491TIP3    H146964   6.326   6.483   1.022  0.7566  0.1718 -0.6132
 8491TIP3    H246965   6.354   6.441   0.879  3.0460 -0.9485  0.1115
 8492TIP3   OH246966   3.860   3.334  12.628 -0.3248  0.0369 -0.5998
 8492TIP3    H146967   3.910   3.345  12.708 -2.3678  0.3065  0.7151
 8492TIP3    H246968   3.780   3.385  12.641 -1.7536 -1.7158 -1.8433
 8493TIP3   OH246969   3.464   5.836  12.569 -0.3365 -0.5487 -0.7836
 8493TIP3    H146970   3.373   5.859  12.590  0.3719  1.8115  0.0468
 8493TIP3    H246971   3.498   5.798  12.650 -0.5444 -1.3476 -1.0660
 8494TIP3   OH246972   3.893   4.922  11.557 -0.4798 -0.0396  0.7850
 8494TIP3    H146973   3.966   4.972  11.595 -0.0749 -0.3266  0.3932
 8494TIP3    H246974   3.818   4.981  11.562  0.2800  1.1405 -0.9193
 8495TIP3   OH246975   5.940   4.117   2.186 -0.8960 -0.1895  0.2654
 8495TIP3    H146976   5.945   4.025   2.160  1.5427 -0.5620  1.7081
 8495TIP3    H246977   5.950   4.166   2.105 -0.0903 -1.2406 -0.2868
 8496TIP3   OH246978   0.969   5.330   6.164 -0.0172  0.2211 -0.0557
 8496TIP3    H146979   0.905   5.393   6.130 -0.0505  0.3992  0.3333
 8496TIP3    H246980   0.917   5.259   6.201  0.0096 -0.8736 -1.9807
 8497TIP3   OH246981   4.187   4.805   5.540  0.5191  0.3766 -0.3249
 8497TIP3    H146982   4.168   4.896   5.517  0.0091  0.9529  2.1858
 8497TIP3    H246983   4.102   4.768   5.564  0.5783 -1.0767 -2.1018
 8498TIP3   OH246984   0.194   4.107  12.284 -0.2329  0.1660  0.1498
 8498TIP3    H146985   0.231   4.133  12.199 -3.1812  0.3024 -1.1961
 8498TIP3    H246986   0.178   4.190  12.329  0.1923  0.1404  0.3593
 8499TIP3   OH246987   3.956   5.980  16.341  0.8987 -0.5593  0.1861
 8499TIP3    H146988   3.969   6.031  16.421 -0.4283 -0.5864  0.4350
 8499TIP3    H246989   4.038   5.991  16.293  0.7098  1.7248  0.2809
 8500TIP3   OH246990   5.387   5.192  11.191 -0.2709  0.1606  0.3926
 8500TIP3    H146991   5.450   5.206  11.262  1.1446  1.1459 -0.9889
 8500TIP3    H246992   5.363   5.099  11.199  2.6021 -0.7152  0.0258
 8501TIP3   OH246993   5.581   1.396  13.482 -0.4960 -0.2960 -1.0466
 8501TIP3    H146994   5.556   1.408  13.390 -0.8302 -1.2992 -1.1019
 8501TIP3    H246995   5.674   1.376  13.479 -1.0318 -3.1518 -1.4670
 8502TIP3   OH246996   2.597   0.834  15.399 -0.2463 -0.0323 -0.1374
 8502TIP3    H146997   2.581   0.919  15.357  1.7060  0.7522  0.6353
 8502TIP3    H246998   2.513   0.812  15.441 -0.8457  1.3688 -0.5559
 8503TIP3   OH246999   3.881   2.001   3.999  0.1023  0.0622  0.7904
 8503TIP3    H147000   3.849   1.929   4.053 -0.4519 -0.0093  0.3765
 8503TIP3    H247001   3.896   2.073   4.061 -1.3933  0.2763  0.9397
 8504TIP3   OH247002   6.658   1.383  14.545 -0.1156  0.2012  0.3126
 8504TIP3    H147003   6.597   1.455  14.526  0.3170  0.4369 -0.2397
 8504TIP3    H247004   6.681   1.348  14.459  2.4801  1.7708  0.2445
 8505TIP3   OH247005   4.932   0.061   3.775  0.4501  0.0431  0.4294
 8505TIP3    H147006   4.883   0.000   3.830 -1.3948 -0.2745 -1.4650
 8505TIP3    H247007   4.899   0.148   3.799 -0.8526 -0.1456 -0.6042
 8506TIP3   OH247008   6.212   2.585   5.761  0.5317  0.4864 -0.7740
 8506TIP3    H147009   6.262   2.601   5.841  0.6952  1.7068 -1.0911
 8506TIP3    H247010   6.121   2.579   5.791  0.8042 -1.4516 -0.2343
 8507TIP3   OH247011   5.754   1.673   4.298  0.0974  0.5447  0.6542
 8507TIP3    H147012   5.739   1.604   4.362 -0.0126  2.3567  2.7189
 8507TIP3    H247013   5.849   1.677   4.289  0.0821 -0.1572  0.2140
 8508TIP3   OH247014   4.464   5.579  11.862 -0.4791  0.4192  0.1941
 8508TIP3    H147015   4.455   5.514  11.792 -0.2115 -1.2296  1.6130
 8508TIP3    H247016   4.376   5.586  11.899 -0.5502  1.0477 -0.0801
 8509TIP3   OH247017   6.395   3.752  15.408  0.4323  0.0083  0.4862
 8509TIP3    H147018   6.471   3.695  15.423 -0.1264 -1.3107 -1.2809
 8509TIP3    H247019   6.406   3.824  15.469  2.6539 -0.5962  0.8838
 8510TIP3   OH247020   6.147   1.751  11.162  0.3977  0.4960  0.2174
 8510TIP3    H147021   6.147   1.840  11.126  0.2329  0.1129 -0.7645
 8510TIP3    H247022   6.089   1.756  11.237  0.8291  1.3466  0.5109
 8511TIP3   OH247023   0.635   2.946  15.583  0.3445  0.4440 -0.6181
 8511TIP3    H147024   0.669   3.006  15.517  0.7706 -0.6992 -1.4581
 8511TIP3    H247025   0.702   2.878  15.592 -0.3255 -0.1659 -0.0216
 8512TIP3   OH247026   1.044   0.213   5.779  0.5080  0.1030 -0.2194
 8512TIP3    H147027   1.035   0.130   5.732 -0.1745  0.0007  0.0797
 8512TIP3    H247028   0.954   0.236   5.804  0.8643  0.0465  1.2034
 8513TIP3   OH247029   0.161   5.939   0.396 -0.5442 -0.2524 -0.1756
 8513TIP3    H147030   0.066   5.929   0.393 -0.6678  0.6926  0.3163
 8513TIP3    H247031   0.187   5.900   0.479 -0.4771 -0.6642 -0.3876
 8514TIP3   OH247032   5.248   1.272   4.651 -0.8054 -0.2506  0.2218
 8514TIP3    H147033   5.266   1.212   4.579 -1.0419 -1.0237  0.7858
 8514TIP3    H247034   5.226   1.355   4.609  0.3516 -0.3235 -0.5526
 8515TIP3   OH247035   3.298   4.814   2.327  0.3394 -0.4288 -0.2951
 8515TIP3    H147036   3.330   4.727   2.352 -0.4780 -0.9728 -1.0603
 8515TIP3    H247037   3.349   4.837   2.250 -1.7277 -1.7775 -2.1840
 8516TIP3   OH247038   1.830   5.827   5.184  0.0910 -0.2399  0.2474
 8516TIP3    H147039   1.796   5.773   5.114  1.6084 -1.3793  0.3312
 8516TIP3    H247040   1.894   5.885   5.142 -2.1082  2.2125  0.0030
 8517TIP3   OH247041   0.317   1.264   0.474  0.2219  0.1655 -0.3620
 8517TIP3    H147042   0.378   1.212   0.527  0.9456  1.5283  0.1940
 8517TIP3    H247043   0.231   1.231   0.498  0.5974  0.0234  0.8802
 8518TIP3   OH247044   6.522   4.360   4.681  0.4432  0.3886 -0.3926
 8518TIP3    H147045   6.436   4.324   4.698  0.9511 -1.1955 -0.9972
 8518TIP3    H247046   6.544   4.409   4.760 -0.1174 -0.9756  0.6410
 8519TIP3   OH247047   3.297   4.191  16.977  0.3917 -0.2797  0.1113
 8519TIP3    H147048   3.286   4.259  16.910 -0.6514  0.1162  0.6635
 8519TIP3    H247049   3.314   4.111  16.927  0.9080  0.2427 -0.5747
 8520TIP3   OH247050   6.670   3.259  12.183  0.3477 -0.2149  0.4632
 8520TIP3    H147051   6.608   3.273  12.112 -1.4887 -1.7218  1.6712
 8520TIP3    H247052   6.663   3.337  12.238 -0.5454 -0.4047  0.6232
 8521TIP3   OH247053   3.206   2.139  17.215 -0.1192  0.1670 -0.5881
 8521TIP3    H147054   3.140   2.119  17.148 -0.0470  1.8133 -1.2175
 8521TIP3    H247055   3.156   2.147  17.296 -1.1435  3.2999 -1.3639
 8522TIP3   OH247056   6.084   6.793  14.877  0.6305 -0.2621 -0.1712
 8522TIP3    H147057   6.103   6.818  14.967  2.6052 -0.0995 -0.5963
 8522TIP3    H247058   6.107   6.700  14.873  0.3542 -0.3196 -0.4636
 8523TIP3   OH247059   2.434   2.586   2.513 -0.2674 -0.5129 -0.0968
 8523TIP3    H147060   2.464   2.521   2.577 -1.6258  0.5347  1.7087
 8523TIP3    H247061   2.488   2.663   2.530 -0.1151 -0.4694 -0.7569
 8524TIP3   OH247062   2.762   5.209   3.221  0.1223 -0.4987 -0.1575
 8524TIP3    H147063   2.728   5.122   3.203 -1.5798  0.2756 -0.8723
 8524TIP3    H247064   2.751   5.257   3.139  1.0732  0.3803  0.2128
 8525TIP3   OH247065   5.041   4.005   4.106 -0.6181  0.7476 -0.1850
 8525TIP3    H147066   4.983   4.080   4.094  0.0737  0.9466 -3.0325
 8525TIP3    H247067   5.085   3.995   4.021  1.5218 -1.0430  1.0245
 8526TIP3   OH247068   6.193   1.335  14.008 -0.1065 -0.7802 -0.2877
 8526TIP3    H147069   6.246   1.400  14.054 -1.4983  0.4852 -0.4144
 8526TIP3    H247070   6.195   1.258  14.065  1.2655 -0.5350  0.0427
 8527TIP3   OH247071   2.998   3.183   0.014 -0.4075  0.1854  0.1485
 8527TIP3    H147072   2.969   3.220  -0.069 -0.3349  1.9435  0.8566
 8527TIP3    H247073   3.005   3.089  -0.002  0.3596  0.5636 -2.0456
 8528TIP3   OH247074   1.494   0.539   6.366 -0.2208 -0.1470  0.2650
 8528TIP3    H147075   1.540   0.592   6.301  0.9459  0.9754  1.9405
 8528TIP3    H247076   1.435   0.600   6.409 -0.9148 -0.8572  0.3318
 8529TIP3   OH247077   6.551   5.707  12.222 -0.6497 -0.3203  0.5144
 8529TIP3    H147078   6.542   5.745  12.134 -3.9215 -0.4530  0.6728
 8529TIP3    H247079   6.643   5.680  12.227  0.3100  2.0378 -1.8623
 8530TIP3   OH247080   1.020   5.674   6.042  0.0058  0.1728 -0.3057
 8530TIP3    H147081   1.039   5.660   6.135 -0.1208 -0.2260 -0.3381
 8530TIP3    H247082   0.957   5.606   6.020 -0.2555  0.5058 -0.5912
 8531TIP3   OH247083   1.783   4.342  11.683  0.4639 -0.0192 -0.2450
 8531TIP3    H147084   1.827   4.305  11.759 -0.4254  1.3312  0.9882
 8531TIP3    H247085   1.846   4.406  11.648  0.4150  0.2087  0.0806
 8532TIP3   OH247086   0.678   2.096  14.054  0.2738  0.5044  0.6357
 8532TIP3    H147087   0.642   2.077  14.140 -0.2966  1.7432  0.6881
 8532TIP3    H247088   0.715   2.012  14.024  1.0042  0.1965  2.3080
 8533TIP3   OH247089   0.555   5.315   3.412 -0.5142  0.1985  0.0905
 8533TIP3    H147090   0.582   5.224   3.397  0.7722  0.4945  0.4579
 8533TIP3    H247091   0.546   5.352   3.324 -3.0573 -0.8000 -0.1390
 8534TIP3   OH247092   3.871   0.594  13.641  0.7525 -0.0789 -0.0850
 8534TIP3    H147093   3.808   0.542  13.591  0.9005 -2.6345  2.1552
 8534TIP3    H247094   3.820   0.666  13.677 -0.5216 -1.1590  0.3184
 8535TIP3   OH247095   0.409   2.871   3.554 -0.1104  0.4583  0.7125
 8535TIP3    H147096   0.322   2.837   3.532  0.4730 -0.0258 -1.0036
 8535TIP3    H247097   0.393   2.934   3.624 -1.7496 -0.1294  0.9186
 8536TIP3   OH247098   5.319   0.726   2.727 -0.4350  0.9418 -0.0454
 8536TIP3    H147099   5.317   0.680   2.811 -0.3406  0.0608 -0.5161
 8536TIP3    H247100   5.245   0.787   2.731 -1.7040 -0.5279 -0.1177
 8537TIP3   OH247101   3.289   2.387   4.466  0.0873  0.8302  0.3678
 8537TIP3    H147102   3.236   2.430   4.533 -0.8074  1.4038 -0.6633
 8537TIP3    H247103   3.234   2.315   4.436 -0.9357  2.4355 -1.9054
 8538TIP3   OH247104   0.596   5.650   3.763  0.1644 -0.9824 -0.3233
 8538TIP3    H147105   0.627   5.622   3.677  0.1714 -0.6073 -0.4444
 8538TIP3    H247106   0.675   5.661   3.815  0.2107 -0.5040 -0.4866
 8539TIP3   OH247107   2.379   3.541  12.188 -0.1111  0.1538  0.5457
 8539TIP3    H147108   2.289   3.509  12.190 -0.6368  1.1987 -1.8909
 8539TIP3    H247109   2.371   3.633  12.163  1.6084  0.4816  1.0399
 8540TIP3   OH247110   0.758   5.437  14.171  0.1030 -0.0772 -0.1478
 8540TIP3    H147111   0.678   5.408  14.214  0.4953 -1.5128 -0.3089
 8540TIP3    H247112   0.756   5.394  14.085  0.9294  0.0355 -0.2365
 8541TIP3   OH247113   5.441   2.204   5.367 -0.0802  0.4103  0.0902
 8541TIP3    H147114   5.383   2.253   5.308  0.7233  0.8095 -0.3921
 8541TIP3    H247115   5.516   2.181   5.312 -0.4448 -1.4260  0.2852
 8542TIP3   OH247116   2.949   1.031   2.280 -0.1586 -0.0732 -0.0016
 8542TIP3    H147117   2.967   0.979   2.202  0.6839 -0.2162  0.2764
 8542TIP3    H247118   2.896   1.105   2.249 -2.1047 -1.5049 -0.2661
 8543TIP3   OH247119   2.290   4.303  15.104  0.1079  0.0054 -0.0268
 8543TIP3    H147120   2.291   4.216  15.064 -0.9913  0.7203 -1.7285
 8543TIP3    H247121   2.311   4.287  15.196 -1.2615 -2.2238 -0.0154
 8544TIP3   OH247122   3.984   5.763   1.211  0.0748  0.8495  0.1211
 8544TIP3    H147123   3.946   5.851   1.201  0.9687  1.3000  0.5731
 8544TIP3    H247124   4.048   5.772   1.281  1.1354  0.1527 -0.7190
 8545TIP3   OH247125   1.743   4.222   1.606 -0.0459  0.6801  0.3176
 8545TIP3    H147126   1.825   4.208   1.560 -0.2753  0.7416 -0.1121
 8545TIP3    H247127   1.676   4.222   1.538 -0.4416  0.2988  0.6959
 8546TIP3   OH247128   4.783   6.556  12.794 -0.5817 -0.7493  0.1354
 8546TIP3    H147129   4.729   6.487  12.756 -0.1585 -1.8486  1.4467
 8546TIP3    H247130   4.852   6.509  12.840 -0.6582  0.5419  1.6384
 8547TIP3   OH247131   1.698   1.495  12.998 -0.2674 -0.5063  0.2385
 8547TIP3    H147132   1.605   1.512  12.981 -0.2501 -0.7153 -0.0625
 8547TIP3    H247133   1.738   1.581  13.004 -0.5302 -0.4084  0.6415
 8548TIP3   OH247134   1.799   5.319  12.677 -0.0534  0.4146 -0.1776
 8548TIP3    H147135   1.724   5.371  12.648 -0.1425  0.4044  0.0355
 8548TIP3    H247136   1.875   5.363  12.638 -0.1609  0.4866 -0.3042
 8549TIP3   OH247137   1.793   5.217   5.308  0.0021  0.3344  0.0397
 8549TIP3    H147138   1.718   5.160   5.328 -0.8750  0.8360 -1.6166
 8549TIP3    H247139   1.803   5.272   5.385 -0.5707 -0.5394  0.7570
 8550TIP3   OH247140   1.974   3.791  14.882  0.0760  0.5120 -0.4568
 8550TIP3    H147141   1.953   3.867  14.938 -1.0601 -0.2614  0.2015
 8550TIP3    H247142   1.911   3.797  14.810 -0.2900 -0.0230 -0.1859
 8551TIP3   OH247143   5.108   2.990  11.611 -0.1762 -0.5820 -0.0973
 8551TIP3    H147144   5.047   3.061  11.592  0.9145 -0.4192 -3.7922
 8551TIP3    H247145   5.067   2.912  11.573  0.1660 -1.2862  0.9248
 8552TIP3   OH247146   3.656   5.550   4.493 -0.2507  0.2460  0.1680
 8552TIP3    H147147   3.597   5.582   4.561 -1.6402  0.5307 -1.1167
 8552TIP3    H247148   3.608   5.564   4.411  1.1455 -0.5771 -0.8336
 8553TIP3   OH247149   5.610   4.993   6.123 -0.1100  0.1388 -0.0066
 8553TIP3    H147150   5.608   5.076   6.075 -0.0045  1.6673  2.4527
 8553TIP3    H247151   5.570   5.013   6.208  2.4197 -1.5659  1.7454
 8554TIP3   OH247152   0.020   1.064  10.426  0.1912  0.3411  0.0291
 8554TIP3    H147153   0.110   1.068  10.458  0.0892 -0.0044  0.3704
 8554TIP3    H247154   0.016   0.983  10.375  0.4615  1.0895 -1.2131
 8555TIP3   OH247155   1.197   4.750  12.877  0.1721  0.5170  0.4641
 8555TIP3    H147156   1.230   4.769  12.789  0.8666  2.1851  1.0398
 8555TIP3    H247157   1.272   4.767  12.935 -0.2278 -0.6807  1.3994
 8556TIP3   OH247158   1.505   2.445   5.880 -0.0120  0.2391  0.1712
 8556TIP3    H147159   1.444   2.509   5.844 -1.0525 -1.3401 -1.0130
 8556TIP3    H247160   1.575   2.439   5.816  1.1880  1.6637  1.2796
 8557TIP3   OH247161   2.687   1.433  13.713  0.5279 -0.3224  0.0382
 8557TIP3    H147162   2.637   1.478  13.645  1.2772  1.0046  0.3251
 8557TIP3    H247163   2.747   1.499  13.747  1.3367 -1.4168  0.8418
 8558TIP3   OH247164   3.826   2.539   5.101 -0.3723  0.4561 -0.0988
 8558TIP3    H147165   3.904   2.588   5.076  0.6555 -0.0118  2.0314
 8558TIP3    H247166   3.855   2.449   5.110 -1.3369  0.1363 -0.0204
 8559TIP3   OH247167   1.175   4.243   1.511  0.1050 -0.1753  0.1546
 8559TIP3    H147168   1.092   4.250   1.557 -0.5982 -1.5963 -0.8146
 8559TIP3    H247169   1.238   4.287   1.568 -0.9139 -0.9015  1.9172
 8560TIP3   OH247170   1.552   2.491   4.502  0.5190  0.0890 -0.0866
 8560TIP3    H147171   1.524   2.515   4.591  3.1728 -0.2019  0.9381
 8560TIP3    H247172   1.476   2.508   4.447 -1.0081  0.9357  2.1403
 8561TIP3   OH247173   0.125   3.658   3.825  0.2507  0.1516 -0.4700
 8561TIP3    H147174   0.170   3.624   3.748  0.2202  1.0971 -0.9213
 8561TIP3    H247175   0.157   3.605   3.898  1.5175  0.3009 -0.8947
 8562TIP3   OH247176   0.334   6.500  12.447  0.0149 -0.1918 -0.1391
 8562TIP3    H147177   0.419   6.515  12.406  0.7318  1.2237  1.6894
 8562TIP3    H247178   0.291   6.436  12.391  2.9589 -2.3089 -0.2302
 8563TIP3   OH247179   1.129   4.009   0.391 -0.3579 -0.2721  0.1771
 8563TIP3    H147180   1.039   4.021   0.422 -0.3504 -1.0560  0.5023
 8563TIP3    H247181   1.119   3.969   0.304 -0.3021 -1.3494  0.6638
 8564TIP3   OH247182   2.565   6.723  11.405  0.0244 -0.5237  0.1771
 8564TIP3    H147183   2.575   6.652  11.468 -1.5130 -1.4392 -0.5688
 8564TIP3    H247184   2.486   6.770  11.434  0.6594  0.5043  0.2911
 8565TIP3   OH247185   6.182   2.714  10.855 -0.4515  0.1870  0.3679
 8565TIP3    H147186   6.247   2.744  10.919  0.8681 -0.9085 -0.4044
 8565TIP3    H247187   6.234   2.686  10.780 -1.4026 -4.3706  1.1244
 8566TIP3   OH247188   2.971   4.840  13.648  0.3622 -0.0727 -0.0423
 8566TIP3    H147189   2.931   4.927  13.654 -2.6334 -1.2639 -0.9114
 8566TIP3    H247190   2.959   4.815  13.556  3.3891 -0.4981 -0.4206
 8567TIP3   OH247191   3.861   5.867   1.562 -0.7105  0.0548 -0.6197
 8567TIP3    H147192   3.934   5.816   1.596 -1.5311 -0.8745 -0.1876
 8567TIP3    H247193   3.814   5.806   1.504 -0.0039  1.2521 -2.5443
 8568TIP3   OH247194   6.782   1.983  11.321  0.3154 -0.3406  0.4123
 8568TIP3    H147195   6.697   1.949  11.292  0.1783 -1.2871  1.8214
 8568TIP3    H247196   6.771   1.996  11.415  1.3016  0.9024  0.3806
 8569TIP3   OH247197   5.835   0.122  14.879 -0.8524 -0.5602  0.2720
 8569TIP3    H147198   5.762   0.066  14.905 -0.1239 -1.7424 -0.1709
 8569TIP3    H247199   5.912   0.067  14.887 -0.2376  0.0160 -1.3108
 8570TIP3   OH247200   2.102   2.965  12.891 -0.0480  0.3243 -0.4762
 8570TIP3    H147201   2.109   2.889  12.833 -2.3277 -1.9105  1.8743
 8570TIP3    H247202   2.018   3.004  12.869 -0.1378  0.4877  0.1273
 8571TIP3   OH247203   0.469   6.630  16.600 -0.4266 -0.2387  0.3099
 8571TIP3    H147204   0.420   6.688  16.542  0.8514  0.8601  0.2693
 8571TIP3    H247205   0.505   6.688  16.667  0.5506 -1.0466  0.5082
 8572TIP3   OH247206   0.482   3.254   0.173  0.3594  0.0598  0.2430
 8572TIP3    H147207   0.441   3.241   0.259 -2.2769 -1.6999 -1.1416
 8572TIP3    H247208   0.428   3.320   0.130  1.1091  0.2708 -0.4015
 8573TIP3   OH247209   4.671   0.463  16.299 -0.9898 -0.2921 -0.0862
 8573TIP3    H147210   4.638   0.535  16.352 -0.3977 -0.1899  0.1495
 8573TIP3    H247211   4.724   0.505  16.231 -1.9350 -0.4036 -0.9251
 8574TIP3   OH247212   4.671   0.409  11.314  0.4001 -0.2985 -0.3264
 8574TIP3    H147213   4.607   0.399  11.244  0.2167 -0.6880 -0.1081
 8574TIP3    H247214   4.646   0.490  11.358 -1.8444 -1.9119  1.6417
 8575TIP3   OH247215   2.204   3.347  13.360  0.1366  0.3077  0.7420
 8575TIP3    H147216   2.251   3.395  13.292  0.3191 -2.3303 -1.1389
 8575TIP3    H247217   2.271   3.318  13.421  0.3406  0.4380  0.5793
 8576TIP3   OH247218   3.208   6.185  11.893 -0.3856  0.2875  0.1135
 8576TIP3    H147219   3.227   6.271  11.856  0.1474  0.8449  1.6144
 8576TIP3    H247220   3.114   6.173  11.880 -0.5478  1.2966  0.2823
 8577TIP3   OH247221   2.803   0.215  15.165 -0.2962 -0.2666 -0.0918
 8577TIP3    H147222   2.799   0.301  15.123 -2.9075  0.2865  1.1225
 8577TIP3    H247223   2.740   0.220  15.237  0.2537 -2.8688  0.6766
 8578TIP3   OH247224   3.273   6.392  13.174 -0.2642  0.1247 -0.4727
 8578TIP3    H147225   3.239   6.473  13.210 -0.4570  0.0206 -0.4164
 8578TIP3    H247226   3.356   6.416  13.133  0.7928 -0.0325  1.4571
 8579TIP3   OH247227   0.504   1.121  16.112 -0.0457  0.0766  0.1001
 8579TIP3    H147228   0.573   1.159  16.166 -1.1772 -0.6049  2.1176
 8579TIP3    H247229   0.541   1.039  16.080  1.2973  1.3288 -1.7758
 8580TIP3   OH247230   5.975   5.514   6.398  0.6011 -0.7675  0.0779
 8580TIP3    H147231   5.968   5.431   6.349  0.1231 -0.4461 -0.4128
 8580TIP3    H247232   5.989   5.487   6.488 -1.8930 -1.4633  0.3475
 8581TIP3   OH247233   4.624   1.209  14.784  0.0496  0.1294  0.0832
 8581TIP3    H147234   4.673   1.251  14.854  2.5548 -1.0678 -0.8263
 8581TIP3    H247235   4.684   1.210  14.709 -2.5311  1.4082 -2.1314
 8582TIP3   OH247236   6.783   0.098   5.680  0.4350  1.2300  0.3077
 8582TIP3    H147237   6.755   0.089   5.589 -0.4717  1.3421  0.5596
 8582TIP3    H247238   6.875   0.122   5.675  0.5412  0.6778 -0.5633
 8583TIP3   OH247239   2.360   5.768   4.997  0.2313  0.3945  0.1323
 8583TIP3    H147240   2.290   5.780   5.061 -0.2332  0.8470 -0.4499
 8583TIP3    H247241   2.323   5.711   4.930 -0.0486  1.6584 -0.8393
 8584TIP3   OH247242   2.129   5.609   0.657 -0.6037 -0.6299 -0.0076
 8584TIP3    H147243   2.222   5.592   0.642 -0.3721  0.2509  0.3661
 8584TIP3    H247244   2.100   5.536   0.712 -1.1014 -3.0594 -3.2349
 8585TIP3   OH247245   0.533   3.597   3.469  0.6244  0.0654  0.3232
 8585TIP3    H147246   0.616   3.550   3.460 -0.1112 -1.5536  1.4414
 8585TIP3    H247247   0.530   3.655   3.393  2.4064 -0.4160 -0.1672
 8586TIP3   OH247248   2.420   1.884  11.724 -0.2761  0.1175  0.0684
 8586TIP3    H147249   2.502   1.919  11.691  1.6642 -3.0017  1.1272
 8586TIP3    H247250   2.399   1.812  11.665 -1.1070 -0.4413  1.0032
 8587TIP3   OH247251   2.353   5.258   3.975 -0.1997  0.8557 -0.4809
 8587TIP3    H147252   2.300   5.221   3.905 -0.8113 -0.2276  0.5180
 8587TIP3    H247253   2.344   5.353   3.965 -0.1076  0.7273 -1.9616
 8588TIP3   OH247254   0.374   2.298   3.297  0.1790 -0.3025  0.3958
 8588TIP3    H147255   0.366   2.367   3.363 -0.0883 -0.3171  0.3802
 8588TIP3    H247256   0.404   2.222   3.346  0.9727 -0.0434  0.3304
 8589TIP3   OH247257   3.025   3.642  13.345  0.1374 -0.6947  0.2908
 8589TIP3    H147258   3.029   3.642  13.250 -0.4383 -1.9278  0.2509
 8589TIP3    H247259   3.112   3.670  13.373 -0.2636  1.6496 -0.5760
 8590TIP3   OH247260   2.736   0.772   4.633 -0.2990 -0.3737 -0.2677
 8590TIP3    H147261   2.779   0.797   4.552 -0.5127  0.8773 -0.0217
 8590TIP3    H247262   2.785   0.818   4.702  0.4968 -2.1842  0.4407
 8591TIP3   OH247263   2.341   3.500   1.963 -0.3978 -0.6552  0.9025
 8591TIP3    H147264   2.374   3.571   1.909 -0.2923  0.2493  2.1188
 8591TIP3    H247265   2.318   3.541   2.046 -3.1055 -1.5285  0.6848
 8592TIP3   OH247266   4.934   4.387   5.368  0.2756  0.5918  0.6403
 8592TIP3    H147267   4.978   4.304   5.349 -1.7329 -0.8141  1.7073
 8592TIP3    H247268   4.985   4.453   5.321 -0.3124 -1.6576 -3.6585
 8593TIP3   OH247269   0.689   1.496   4.866 -0.1261 -0.7879 -0.1439
 8593TIP3    H147270   0.636   1.419   4.845 -0.4775 -0.5853 -0.0160
 8593TIP3    H247271   0.640   1.541   4.935  0.5934 -0.9957  0.5106
 8594TIP3   OH247272   5.200   5.596   2.976 -0.5876  0.4545  0.2736
 8594TIP3    H147273   5.143   5.667   2.945  0.0492  1.9796  2.3295
 8594TIP3    H247274   5.273   5.595   2.914 -0.1701  2.2498  0.6633
 8595TIP3   OH247275   3.127   5.910  16.194  0.1784  0.0781  0.1258
 8595TIP3    H147276   3.052   5.892  16.250 -0.1321  0.5423 -0.1262
 8595TIP3    H247277   3.162   5.824  16.171  1.4707 -0.1197  2.5166
 8596TIP3   OH247278   3.802   3.635  14.622  0.4799 -0.3780 -0.0369
 8596TIP3    H147279   3.726   3.627  14.565  1.0210  0.0904 -0.8458
 8596TIP3    H247280   3.860   3.564  14.595  1.1280  0.3889 -0.6934
 8597TIP3   OH247281   2.429   5.682  16.777  0.4142  0.0075  0.0204
 8597TIP3    H147282   2.381   5.763  16.764  0.0850  0.0273  1.2508
 8597TIP3    H247283   2.459   5.685  16.868  1.1553 -0.8429 -0.1763
 8598TIP3   OH247284   4.187   5.138  17.040  0.3793  0.1568 -0.3189
 8598TIP3    H147285   4.282   5.152  17.036  0.5086 -0.7188 -0.5223
 8598TIP3    H247286   4.163   5.167  17.128  0.6864  1.1871 -0.5582
 8599TIP3   OH247287   2.863   0.202  13.032 -0.4972 -0.6607 -0.0391
 8599TIP3    H147288   2.851   0.116  13.073  0.7629 -0.7322  0.2327
 8599TIP3    H247289   2.796   0.257  13.072 -0.3059 -1.1298  0.9618
 8600TIP3   OH247290   1.272   5.015   5.900  0.3419 -0.1797  0.1546
 8600TIP3    H147291   1.212   5.038   5.971  1.0845 -0.3233  0.8419
 8600TIP3    H247292   1.222   5.030   5.820 -1.5894 -2.9350  0.7122
 8601TIP3   OH247293   6.727   1.123   3.292  0.3241  0.0035 -0.2069
 8601TIP3    H147294   6.696   1.208   3.261 -1.3675 -0.9151 -1.1938
 8601TIP3    H247295   6.765   1.141   3.378  0.3915  1.7990 -0.5760
 8602TIP3   OH247296   1.641   0.815  12.410  0.1642  0.1401  0.5408
 8602TIP3    H147297   1.584   0.828  12.335  0.2790 -0.6418  0.3089
 8602TIP3    H247298   1.673   0.903  12.432  0.2893  0.3522 -0.4517
 8603TIP3   OH247299   0.049   3.530   0.251 -0.6428 -0.0718  0.4693
 8603TIP3    H147300  -0.021   3.531   0.185 -0.1101 -0.5674 -0.1146
 8603TIP3    H247301   0.024   3.460   0.312 -0.5751 -0.3597  0.1676
 8604TIP3   OH247302   3.384   5.317  16.663  0.5928  0.0832  0.2122
 8604TIP3    H147303   3.472   5.310  16.625  1.0051  0.2819  1.0912
 8604TIP3    H247304   3.366   5.411  16.663  1.3703  0.2804  2.1374
 8605TIP3   OH247305   1.726   0.713  11.269  0.2747  0.2832  0.2665
 8605TIP3    H147306   1.645   0.748  11.232 -0.1096 -2.2357 -1.5010
 8605TIP3    H247307   1.787   0.710  11.195  1.3620  0.3267  1.1335
 8606TIP3   OH247308   3.847   4.988  11.860 -0.5250  0.5462  0.1772
 8606TIP3    H147309   3.828   4.931  11.935  0.5727 -1.5399 -1.0432
 8606TIP3    H247310   3.941   5.007  11.869 -0.4586  0.5400 -0.4722
 8607TIP3   OH247311   0.769   6.768  13.828  0.2887  0.2023  0.3714
 8607TIP3    H147312   0.861   6.770  13.801  0.3339 -1.6356  0.2538
 8607TIP3    H247313   0.721   6.746  13.748 -0.3943  1.9456  0.2422
 8608TIP3   OH247314   4.777   1.850   4.181 -0.6592  0.3054  0.3610
 8608TIP3    H147315   4.697   1.834   4.130  0.3308 -1.5885 -0.7013
 8608TIP3    H247316   4.817   1.926   4.139 -0.7303 -0.1816 -0.6207
 8609TIP3   OH247317   6.505   0.496   6.222 -0.2848  0.5689  0.3144
 8609TIP3    H147318   6.489   0.507   6.315 -0.4057  0.7686  0.2697
 8609TIP3    H247319   6.494   0.583   6.185 -1.3382  0.2903 -0.0551
 8610TIP3   OH247320   0.861   2.603   1.944  0.3232 -0.4522 -0.1027
 8610TIP3    H147321   0.838   2.613   1.852 -1.1208  0.1334  0.2948
 8610TIP3    H247322   0.829   2.516   1.967 -1.5815  0.3149  0.4177
 8611TIP3   OH247323   6.785   1.928  15.135  0.7774 -0.0720  0.4798
 8611TIP3    H147324   6.832   1.929  15.051 -0.2536  0.7208 -0.1149
 8611TIP3    H247325   6.723   2.001  15.128 -0.4514 -1.0054  1.2964
 8612TIP3   OH247326   2.065   0.244  13.342  0.0954 -0.3502 -0.3864
 8612TIP3    H147327   2.069   0.339  13.354 -0.4427 -0.2537 -0.9510
 8612TIP3    H247328   2.087   0.230  13.250 -0.5761 -0.7047 -0.5031
 8613TIP3   OH247329   1.211   4.841   2.513  0.3944 -0.0873 -0.1040
 8613TIP3    H147330   1.164   4.845   2.430 -0.6523 -3.0710  0.2240
 8613TIP3    H247331   1.176   4.763   2.557  0.3196  1.7610  3.5135
 8614TIP3   OH247332   0.159   1.861  15.639 -0.4783  0.1579  0.3140
 8614TIP3    H147333   0.117   1.848  15.724 -0.1159 -1.5760  0.2584
 8614TIP3    H247334   0.088   1.883  15.579 -0.6893  1.7720  1.1172
 8615TIP3   OH247335   3.847   0.421   1.398 -0.2845  0.7326  0.2274
 8615TIP3    H147336   3.860   0.330   1.374  1.0067  1.4639 -2.1516
 8615TIP3    H247337   3.797   0.418   1.480 -2.7680 -2.0432 -1.2224
 8616TIP3   OH247338   0.711   0.534   5.996 -0.2470 -0.1129  0.1280
 8616TIP3    H147339   0.778   0.557   6.061  0.4445  0.3511 -0.7193
 8616TIP3    H247340   0.638   0.500   6.048 -0.5666  2.1869  1.3604
 8617TIP3   OH247341   6.273   5.505  16.385 -0.1994  0.1087 -0.2105
 8617TIP3    H147342   6.196   5.467  16.343 -1.3479  0.3962  1.5192
 8617TIP3    H247343   6.262   5.483  16.477  2.8637 -1.5945 -0.1429
 8618TIP3   OH247344   4.354   1.762   6.704  0.5091  0.5441  0.5632
 8618TIP3    H147345   4.286   1.806   6.654 -0.2166  1.3984  2.2044
 8618TIP3    H247346   4.385   1.829   6.765  1.4260 -0.4163  1.1872
 8619TIP3   OH247347   1.682   1.518   4.144  0.0696 -0.0367  0.3557
 8619TIP3    H147348   1.765   1.563   4.127 -0.1985 -0.0727 -1.2536
 8619TIP3    H247349   1.707   1.430   4.173  0.6683 -0.8010 -2.2266
 8620TIP3   OH247350   5.269   0.696  13.243 -0.0335  0.4446  0.1279
 8620TIP3    H147351   5.188   0.646  13.235  0.5144 -0.5765  0.7641
 8620TIP3    H247352   5.266   0.734  13.331 -0.0681  0.8493 -0.0464
 8621TIP3   OH247353   2.895   4.857  11.082  0.5654  0.6546  1.1410
 8621TIP3    H147354   2.989   4.875  11.077  1.0390 -1.5818  0.6135
 8621TIP3    H247355   2.859   4.894  11.002  1.6948 -1.6807 -0.5709
 8622TIP3   OH247356   5.509   3.782   1.376 -0.5021  1.0045  0.3275
 8622TIP3    H147357   5.547   3.697   1.399  1.3637  1.5710 -0.4818
 8622TIP3    H247358   5.486   3.774   1.283  0.3716  1.5855  0.0435
 8623TIP3   OH247359   6.382   3.434  13.142 -0.2460 -0.8416  0.4351
 8623TIP3    H147360   6.309   3.373  13.152 -1.2950  0.3912  0.5920
 8623TIP3    H247361   6.454   3.395  13.192 -1.3541 -1.1939  1.8136
 8624TIP3   OH247362   6.266   4.070  16.320 -0.2774 -0.3029  0.8753
 8624TIP3    H147363   6.334   4.114  16.269  1.2122 -0.9126  2.2247
 8624TIP3    H247364   6.192   4.130  16.320 -0.0565  0.0325 -1.3214
 8625TIP3   OH247365   6.699   6.051   1.440  0.4318  0.2289 -0.8018
 8625TIP3    H147366   6.703   5.957   1.458 -0.5631  0.5937  1.7876
 8625TIP3    H247367   6.784   6.085   1.469  0.5723  0.1992 -1.1818
 8626TIP3   OH247368   6.445   4.579  14.728 -0.2001  0.7479 -0.4896
 8626TIP3    H147369   6.423   4.657  14.779  2.0430  0.9041  0.3535
 8626TIP3    H247370   6.484   4.518  14.792  1.9633  0.6373 -1.7966
 8627TIP3   OH247371   6.061   4.203   0.777 -0.3386  0.8077  0.0752
 8627TIP3    H147372   6.083   4.110   0.773  0.9473  1.1239 -1.0783
 8627TIP3    H247373   6.013   4.220   0.696  0.1787  1.3159 -0.1324
 8628TIP3   OH247374   1.008   4.563  16.482  0.3690  0.0172  0.2603
 8628TIP3    H147375   0.953   4.486  16.466 -0.7957  0.7421  0.7166
 8628TIP3    H247376   1.063   4.569  16.404 -2.5876  1.3054 -1.9077
 8629TIP3   OH247377   2.121   5.594   6.274  0.5504 -0.1673  0.2282
 8629TIP3    H147378   2.115   5.688   6.292 -0.4959 -0.2085  0.1368
 8629TIP3    H247379   2.134   5.589   6.180 -1.0973 -0.1441 -0.0251
 8630TIP3   OH247380   0.431   3.093   4.795  0.2914 -0.2384  0.2755
 8630TIP3    H147381   0.341   3.080   4.766  0.6221 -0.7449 -0.5928
 8630TIP3    H247382   0.436   3.049   4.880 -0.4074  0.2529  0.5809
 8631TIP3   OH247383   4.142   6.592  12.137 -0.3521  0.2071  0.2836
 8631TIP3    H147384   4.145   6.669  12.081  1.5996 -0.8903 -1.2557
 8631TIP3    H247385   4.223   6.596  12.188  1.4110 -2.2738 -2.0400
 8632TIP3   OH247386   6.200   5.286   1.114  0.0606  0.0093 -0.8331
 8632TIP3    H147387   6.180   5.379   1.116 -0.5751 -0.1406  0.3505
 8632TIP3    H247388   6.114   5.243   1.115  0.3601 -0.6000 -0.7758
 8633TIP3   OH247389   3.962   4.338  10.988  0.2452 -0.0764  0.1244
 8633TIP3    H147390   4.038   4.396  10.999 -0.3755  1.2038 -1.8220
 8633TIP3    H247391   3.988   4.277  10.919  0.2499 -1.0116  0.9365
 8634TIP3   OH247392   6.625   5.954  14.052 -0.2898 -0.0038 -0.3176
 8634TIP3    H147393   6.708   6.001  14.053  0.4422 -1.2339  0.9773
 8634TIP3    H247394   6.559   6.021  14.070  0.5116  0.8460 -0.4572
 8635TIP3   OH247395   5.802   1.415   2.768  1.1179 -0.6226 -0.1054
 8635TIP3    H147396   5.836   1.339   2.816 -1.2621 -1.9549 -0.3311
 8635TIP3    H247397   5.712   1.390   2.746  0.6315  1.8386 -1.2126
 8636TIP3   OH247398   3.501   3.014   1.995 -0.0949 -0.2280 -0.0959
 8636TIP3    H147399   3.469   3.052   2.077  3.4636  0.3886  1.1881
 8636TIP3    H247400   3.533   3.090   1.945  3.3702 -0.9843  0.7338
 8637TIP3   OH247401   1.652   3.302   2.514  0.2680  0.5419  0.1275
 8637TIP3    H147402   1.570   3.289   2.563 -0.3249  0.2382 -0.9204
 8637TIP3    H247403   1.630   3.368   2.448  0.6547 -0.0877 -0.6451
 8638TIP3   OH247404   6.518   2.529   0.936 -0.5609 -0.4779 -0.1458
 8638TIP3    H147405   6.602   2.494   0.906 -0.8928 -0.9450 -0.5514
 8638TIP3    H247406   6.459   2.453   0.935 -0.7532 -0.3700  1.0578
 8639TIP3   OH247407   6.002   3.058   3.133 -0.2092 -0.2089 -0.2291
 8639TIP3    H147408   5.971   3.091   3.048 -0.1489  0.9860  0.2044
 8639TIP3    H247409   6.002   2.962   3.122  2.3398 -0.0907 -2.5052
 8640TIP3   OH247410   4.070   3.822   3.367 -0.2577  0.4179  0.4247
 8640TIP3    H147411   4.124   3.744   3.352  0.5327  0.9479  0.4759
 8640TIP3    H247412   4.053   3.821   3.461  0.9650  1.0639  0.6791
 8641TIP3   OH247413   3.385   4.725   1.757 -0.2438  0.2705  0.4309
 8641TIP3    H147414   3.465   4.673   1.768  0.9955  1.7439 -1.0203
 8641TIP3    H247415   3.354   4.741   1.846  2.5534  1.7805  1.2527
 8642TIP3   OH247416   3.897   2.945  11.368 -0.3094  0.4653 -0.3183
 8642TIP3    H147417   3.867   2.936  11.277 -4.2637 -1.5976  0.9502
 8642TIP3    H247418   3.925   2.857  11.393 -1.5291  0.4413  1.0859
 8643TIP3   OH247419   2.513   5.516   5.307 -0.0106 -0.0481 -0.8947
 8643TIP3    H147420   2.513   5.565   5.390  3.5622  1.8081 -1.8112
 8643TIP3    H247421   2.421   5.515   5.280 -0.8819  1.8942  1.6093
 8644TIP3   OH247422   5.793   3.321  11.439  0.6311 -0.4614  0.3031
 8644TIP3    H147423   5.830   3.287  11.358  1.1718 -1.5943  0.9946
 8644TIP3    H247424   5.699   3.327  11.422  0.7698 -0.4547 -0.4850
 8645TIP3   OH247425   1.867   0.422  16.350 -0.5896 -0.1087  0.0035
 8645TIP3    H147426   1.852   0.329  16.333  0.0284 -0.0976 -0.6640
 8645TIP3    H247427   1.944   0.424  16.407 -0.5658 -0.0070 -0.0311
 8646TIP3   OH247428   1.356   1.881   0.589 -0.2742 -0.0548 -0.1650
 8646TIP3    H147429   1.431   1.934   0.560  0.1811 -1.6157 -2.0150
 8646TIP3    H247430   1.285   1.945   0.599  1.2932  1.5188  1.9236
 8647TIP3   OH247431   2.185   1.018   3.297 -0.1359 -0.0992 -0.4114
 8647TIP3    H147432   2.232   1.033   3.379 -0.8187 -0.2064 -0.0003
 8647TIP3    H247433   2.248   0.971   3.242  0.4738  0.3450 -0.1140
 8648TIP3   OH247434   0.174   5.900   4.126  0.0616 -0.1998 -0.2956
 8648TIP3    H147435   0.221   5.973   4.167 -0.1359 -0.8898  1.2256
 8648TIP3    H247436   0.243   5.850   4.082  0.3388  0.3534 -0.5046
 8649TIP3   OH247437   3.541   3.313   6.016  0.1221  0.5118  0.1943
 8649TIP3    H147438   3.551   3.298   6.109 -0.0034  0.9121  0.2739
 8649TIP3    H247439   3.510   3.404   6.009 -0.8281  0.1829 -0.1692
 8650TIP3   OH247440   4.882   6.610  13.596  0.6770  0.7597  0.5035
 8650TIP3    H147441   4.794   6.627  13.629  0.9882  0.4583  1.4950
 8650TIP3    H247442   4.869   6.589  13.503 -0.0266  3.3557 -0.0727
 8651TIP3   OH247443   2.110   3.317   2.190 -0.3482 -0.3219 -0.2689
 8651TIP3    H147444   2.204   3.298   2.197  0.3679  2.3132 -1.4384
 8651TIP3    H247445   2.094   3.327   2.097 -1.2506  1.4780  0.0347
 8652TIP3   OH247446   4.658   2.426   2.049  0.3324 -0.6184 -0.5676
 8652TIP3    H147447   4.620   2.422   1.961 -1.6138 -0.8977  0.2301
 8652TIP3    H247448   4.665   2.519   2.069 -2.8452 -0.4679  0.3674
 8653TIP3   OH247449   2.054   6.619   4.247  0.0969  0.3883 -0.4804
 8653TIP3    H147450   1.962   6.615   4.222  0.1325 -1.5683 -0.4770
 8653TIP3    H247451   2.098   6.657   4.172 -0.8731  3.0231  0.1747
 8654TIP3   OH247452   3.373   0.409   4.747 -0.4585 -0.6125 -0.1661
 8654TIP3    H147453   3.289   0.411   4.701 -1.0893  0.8097  0.9786
 8654TIP3    H247454   3.414   0.492   4.725  1.8743 -2.2892 -2.7657
 8655TIP3   OH247455   3.516   0.054   5.726  0.8784  0.5626  0.3743
 8655TIP3    H147456   3.506   0.135   5.676 -1.8706 -1.1801 -2.1988
 8655TIP3    H247457   3.549  -0.009   5.663 -0.4661 -1.1790  1.3392
 8656TIP3   OH247458   6.231   3.316   2.318 -0.0882  0.6610  0.1061
 8656TIP3    H147459   6.223   3.387   2.383 -1.7258  1.8161 -1.2658
 8656TIP3    H247460   6.145   3.314   2.275  0.2560 -1.5329 -0.5663
 8657TIP3   OH247461   6.550   4.724   1.947  0.1325 -0.0138  0.2106
 8657TIP3    H147462   6.630   4.674   1.961  1.3515  1.2193 -1.8218
 8657TIP3    H247463   6.560   4.802   2.000  0.6152  0.4474 -0.5388
 8658TIP3   OH247464   2.889   2.958  13.907 -0.3096  0.3370 -0.5821
 8658TIP3    H147465   2.942   2.971  13.828 -0.5851  2.9700 -0.4345
 8658TIP3    H247466   2.841   2.877  13.891  1.2614 -0.3501 -2.1488
 8659TIP3   OH247467   1.689   3.635   0.904 -0.0044 -0.2369 -0.3794
 8659TIP3    H147468   1.751   3.627   0.832  0.9631 -0.0562  0.4140
 8659TIP3    H247469   1.619   3.691   0.870  1.6386  1.8970 -0.4132
 8660TIP3   OH247470   1.087   0.489   5.863  0.3007  0.3842 -0.4307
 8660TIP3    H147471   1.114   0.490   5.955  1.2947 -0.1183 -0.7110
 8660TIP3    H247472   1.080   0.396   5.841 -0.2441  0.5038 -0.7791
 8661TIP3   OH247473   4.201   2.315   4.406 -0.0375 -0.1226 -0.0124
 8661TIP3    H147474   4.208   2.278   4.317  1.6362 -0.2071  0.1114
 8661TIP3    H247475   4.291   2.314   4.439 -0.4960  0.7690  1.3521
 8662TIP3   OH247476   1.497   4.091   0.680  0.0939  0.5346  0.0074
 8662TIP3    H147477   1.560   4.163   0.678 -0.6388  1.2842 -3.8415
 8662TIP3    H247478   1.427   4.119   0.621 -2.4851 -1.4818  1.8884
 8663TIP3   OH247479   6.644   5.283  15.797  0.8383  0.3238 -0.2365
 8663TIP3    H147480   6.615   5.192  15.802 -0.8398  0.8897  1.7432
 8663TIP3    H247481   6.574   5.327  15.749  1.0462  0.7943 -0.1080
 8664TIP3   OH247482   0.445   4.447  13.837  0.4715 -0.9948  0.6386
 8664TIP3    H147483   0.494   4.436  13.919  0.4088  1.4785  1.1049
 8664TIP3    H247484   0.356   4.468  13.865  0.1183 -1.4950 -0.0972
 8665TIP3   OH247485   3.907   1.926   6.243  0.2916  0.3709 -0.4092
 8665TIP3    H147486   3.976   1.862   6.261  1.4145  1.6559  0.0391
 8665TIP3    H247487   3.933   2.003   6.292 -2.2111  0.4856  0.9035
 8666TIP3   OH247488   3.477   0.826  15.734 -0.2700  0.4418  0.3741
 8666TIP3    H147489   3.419   0.879  15.790  0.6285  0.1749  1.5948
 8666TIP3    H247490   3.427   0.814  15.654 -2.8159 -1.4940  2.0896
 8667TIP3   OH247491   4.827   0.291  15.042 -0.8559 -0.5077  0.0683
 8667TIP3    H147492   4.756   0.333  14.993  1.1351  0.2261 -2.3870
 8667TIP3    H247493   4.841   0.208  14.997  0.9068  0.0920 -0.5452
 8668TIP3   OH247494   6.690   3.733   0.149  0.0076 -0.3093  0.9565
 8668TIP3    H147495   6.684   3.771   0.237 -0.4588 -1.4768  1.4518
 8668TIP3    H247496   6.606   3.754   0.108  0.5280  0.9372  0.4661
 8669TIP3   OH247497   3.211   4.551  16.186  0.3960  0.0390 -0.3061
 8669TIP3    H147498   3.146   4.493  16.146  0.5185 -1.8305  2.0027
 8669TIP3    H247499   3.181   4.639  16.164 -0.3718 -0.8173 -3.0854
 8670TIP3   OH247500   6.734   5.837   0.677 -0.4634 -0.1033  0.0918
 8670TIP3    H147501   6.733   5.866   0.586  2.1279  2.1895  0.6633
 8670TIP3    H247502   6.700   5.912   0.726  0.3694 -0.4077  1.1692
 8671TIP3   OH247503   3.186   1.865   3.822  0.0308  0.0366 -0.2316
 8671TIP3    H147504   3.257   1.808   3.850 -1.1198 -1.2119  0.2730
 8671TIP3    H247505   3.168   1.921   3.897  1.6031  1.6162 -0.9452
 8672TIP3   OH247506   6.605   5.515  16.300 -0.3186 -0.1394  0.0092
 8672TIP3    H147507   6.533   5.534  16.360 -1.0483 -1.2545 -0.4772
 8672TIP3    H247508   6.563   5.477  16.223  0.8265 -1.3404 -0.0653
 8673TIP3   OH247509   5.532   5.938   4.245 -0.7141 -0.1534 -0.0639
 8673TIP3    H147510   5.541   6.020   4.293 -0.0583  1.6956 -3.0918
 8673TIP3    H247511   5.622   5.907   4.232 -0.9817 -1.9240  1.8083
 8674TIP3   OH247512   1.711   4.606  17.192 -0.2623  0.6350 -0.1265
 8674TIP3    H147513   1.665   4.537  17.241 -0.3293  0.0493 -0.9934
 8674TIP3    H247514   1.652   4.630  17.121  0.0094  1.1785 -0.1768
 8675TIP3   OH247515   0.350   2.334  11.087  0.3071 -0.2022  0.2391
 8675TIP3    H147516   0.403   2.375  11.019 -0.1215  0.8053  0.4868
 8675TIP3    H247517   0.372   2.241  11.082 -0.0334 -0.2173 -1.5520
 8676TIP3   OH247518   4.559   1.914   2.000  0.0265  0.0886  0.4727
 8676TIP3    H147519   4.654   1.917   2.006 -0.0091 -1.0491  3.3402
 8676TIP3    H247520   4.532   1.865   2.078 -2.8733 -0.2516 -0.6376
 8677TIP3   OH247521   0.643   0.986  10.110 -0.2749  0.1244  0.3516
 8677TIP3    H147522   0.688   0.911  10.071 -1.1588  0.4257 -1.3491
 8677TIP3    H247523   0.643   0.968  10.204 -2.4506 -3.1606 -0.1340
 8678TIP3   OH247524   2.722   3.250   1.073 -0.1927 -0.4120  0.2678
 8678TIP3    H147525   2.723   3.310   0.998 -3.2086  1.7394  1.7286
 8678TIP3    H247526   2.649   3.191   1.057 -0.0030 -0.8245  0.8696
 8679TIP3   OH247527   1.683   0.217   3.898 -0.4831  0.0348 -0.1511
 8679TIP3    H147528   1.695   0.255   3.811 -0.3111  1.2186  0.3688
 8679TIP3    H247529   1.588   0.219   3.911 -0.3652  3.5263  1.1945
 8680TIP3   OH247530   6.259   3.130   6.028  0.3229  0.5321 -0.0454
 8680TIP3    H147531   6.353   3.142   6.039  0.8368 -2.6288 -0.0524
 8680TIP3    H247532   6.238   3.052   6.080 -2.1581  0.6949 -0.6414
 8681TIP3   OH247533   5.629   5.798   3.405 -0.4473  0.0910  0.9846
 8681TIP3    H147534   5.674   5.816   3.323 -1.2440  2.2619  0.9702
 8681TIP3    H247535   5.541   5.770   3.379 -1.3456  2.6299  1.0343
 8682TIP3   OH247536   2.598   5.881  17.117  0.3282  0.4080 -0.0445
 8682TIP3    H147537   2.646   5.938  17.176  1.6116 -1.1467  0.4907
 8682TIP3    H247538   2.632   5.902  17.030  2.5336 -1.0922  0.3860
 8683TIP3   OH247539   0.715   6.098   0.786  0.0990 -0.2708  0.3463
 8683TIP3    H147540   0.654   6.109   0.713 -1.3243 -1.2149  1.3324
 8683TIP3    H247541   0.711   6.181   0.833  0.8447  0.2574 -0.4996
 8684TIP3   OH247542   1.655   3.093  11.569  0.4941 -0.1385  0.4266
 8684TIP3    H147543   1.598   3.166  11.545 -0.7610 -1.2184 -0.0495
 8684TIP3    H247544   1.601   3.015  11.552  0.5989 -1.1091  3.8362
 8685TIP3   OH247545   5.376   2.711  12.023  0.7431 -0.1254 -0.1756
 8685TIP3    H147546   5.345   2.801  12.036  0.2934 -0.5554  2.1736
 8685TIP3    H247547   5.344   2.687  11.936 -2.1212  0.8401  0.5031
 8686TIP3   OH247548   1.389   3.058   1.279  0.3265  0.1030 -0.1390
 8686TIP3    H147549   1.354   3.128   1.223  1.5329 -0.1872 -1.3078
 8686TIP3    H247550   1.346   2.979   1.248 -0.4675  0.1842  0.6851
 8687TIP3   OH247551   5.515   0.518   5.148 -0.1641  0.6032  0.0133
 8687TIP3    H147552   5.494   0.610   5.164 -2.0788 -0.0160  1.3169
 8687TIP3    H247553   5.513   0.477   5.234  0.6292 -0.6941 -0.5485
 8688TIP3   OH247554   2.596   6.689  10.666  0.1950  0.1695  0.3798
 8688TIP3    H147555   2.663   6.757  10.660 -0.7420  1.1046  0.1840
 8688TIP3    H247556   2.627   6.620  10.608  1.5203  0.1005  1.1242
 8689TIP3   OH247557   4.306   5.764   1.163 -0.3860  0.2498 -0.5125
 8689TIP3    H147558   4.325   5.826   1.093 -3.0523 -0.0324 -1.6221
 8689TIP3    H247559   4.331   5.809   1.243 -1.2987  2.3694 -1.3521
 8690TIP3   OH247560   5.266   3.870   1.508 -0.0613  0.3696  0.4218
 8690TIP3    H147561   5.357   3.873   1.477 -0.5535 -0.9748 -1.2570
 8690TIP3    H247562   5.221   3.813   1.447 -1.0629 -2.9319  3.8633
 8691TIP3   OH247563   1.197   3.094   5.417  0.9303  0.3209  0.7993
 8691TIP3    H147564   1.161   3.009   5.441  0.1214  0.6031  0.5899
 8691TIP3    H247565   1.276   3.102   5.472 -1.0626  1.1146  3.7923
 8692TIP3   OH247566   1.698   4.933   5.010  0.6326  0.5714 -0.5505
 8692TIP3    H147567   1.637   4.996   5.049  1.2074  1.7524 -1.5072
 8692TIP3    H247568   1.662   4.916   4.923 -0.6693 -2.0893  0.3996
 8693TIP3   OH247569   0.235   5.755  14.477 -0.1506  0.0015  0.5273
 8693TIP3    H147570   0.269   5.705  14.551 -0.7484 -0.8050  0.2733
 8693TIP3    H247571   0.151   5.714  14.457 -0.4906  0.8932  0.0814
 8694TIP3   OH247572   1.179   2.271   0.641 -0.2747 -0.3499  0.1130
 8694TIP3    H147573   1.221   2.338   0.587  1.4044 -1.2226  0.2658
 8694TIP3    H247574   1.163   2.198   0.581 -0.6780 -0.3960  0.2722
 8695TIP3   OH247575   5.331   4.242  11.524  0.2851  0.1705  0.2917
 8695TIP3    H147576   5.330   4.240  11.428 -0.9504  0.2805  0.2902
 8695TIP3    H247577   5.406   4.188  11.548 -0.6442 -1.6907 -0.7123
 8696TIP3   OH247578   1.075   1.739  15.080 -0.1771 -0.1869  0.3102
 8696TIP3    H147579   1.064   1.753  14.986  0.0665  1.5715  0.5024
 8696TIP3    H247580   1.146   1.675  15.087 -0.6033 -0.7926 -0.6975
 8697TIP3   OH247581   6.077   3.856   2.767 -0.0874  0.1522 -0.4873
 8697TIP3    H147582   5.982   3.851   2.776 -0.2121  0.3186 -1.6231
 8697TIP3    H247583   6.105   3.765   2.757  0.1512 -0.1385  2.1499
 8698TIP3   OH247584   5.708   3.134  13.811 -0.5222 -0.0769  0.2076
 8698TIP3    H147585   5.769   3.090  13.752 -1.0098  1.0558 -1.2117
 8698TIP3    H247586   5.689   3.217  13.767 -0.6344  0.9797  2.1519
 8699TIP3   OH247587   4.336   6.522   1.015 -0.2991 -0.4864  0.3525
 8699TIP3    H147588   4.261   6.463   1.023 -0.5399 -0.2727 -0.3196
 8699TIP3    H247589   4.301   6.609   1.035 -0.3729 -0.2985 -0.5624
 8700TIP3   OH247590   5.780   4.719  16.964 -0.1447 -0.1849 -0.1118
 8700TIP3    H147591   5.743   4.769  17.038  1.7642  1.1075  0.0480
 8700TIP3    H247592   5.842   4.659  17.005  0.5009  0.1353 -0.5995
 8701TIP3   OH247593   5.155   0.718   4.292  0.0857  0.0399  0.1577
 8701TIP3    H147594   5.160   0.682   4.381 -1.2608 -0.7806 -0.0744
 8701TIP3    H247595   5.177   0.811   4.303  2.0338 -0.4763  1.0079
 8702TIP3   OH247596   6.632   0.610   3.031  0.5017 -0.5879  0.6360
 8702TIP3    H147597   6.630   0.516   3.046  2.2425 -0.5162  1.6174
 8702TIP3    H247598   6.569   0.645   3.095  2.0847 -0.9112  2.4905
 8703TIP3   OH247599   6.162   3.426   0.440 -0.0412 -0.3745  0.3521
 8703TIP3    H147600   6.070   3.400   0.440 -0.3776  0.6703 -1.4749
 8703TIP3    H247601   6.203   3.367   0.377  0.0728  0.5637 -0.4754
 8704TIP3   OH247602   3.897   5.524   5.606 -0.3935  0.3162  0.2672
 8704TIP3    H147603   3.841   5.567   5.541 -0.0042 -0.5152 -0.6406
 8704TIP3    H247604   3.972   5.583   5.615 -0.9955  1.0203  0.8676
 8705TIP3   OH247605   3.669   5.968   6.404 -0.5936 -0.7604 -0.1868
 8705TIP3    H147606   3.596   5.911   6.427 -2.4397 -1.1974 -5.7153
 8705TIP3    H247607   3.724   5.914   6.347  0.4931  1.4402 -1.3470
 8706TIP3   OH247608   2.252   0.596  13.674 -0.0637  0.0437 -0.4100
 8706TIP3    H147609   2.320   0.641  13.725 -0.4232  0.0125  0.0979
 8706TIP3    H247610   2.212   0.666  13.622  0.2130  0.0977 -0.5540
 8707TIP3   OH247611   5.092   3.388   2.689 -0.1145  0.4131  0.0622
 8707TIP3    H147612   5.074   3.479   2.668 -1.2298 -0.1886 -1.9353
 8707TIP3    H247613   5.104   3.346   2.603 -0.9255 -1.5433  0.8411
 8708TIP3   OH247614   0.635   1.642   2.011  0.0042  0.6758 -0.0362
 8708TIP3    H147615   0.711   1.688   1.976  0.2199  1.0703  0.9177
 8708TIP3    H247616   0.656   1.627   2.103 -0.0516 -1.3939 -0.3214
 8709TIP3   OH247617   3.820   6.112   0.741  0.2328  0.4386  0.2580
 8709TIP3    H147618   3.835   6.173   0.669  0.1842 -0.3637 -0.4412
 8709TIP3    H247619   3.832   6.166   0.820  0.6741  1.2379 -0.3311
 8710TIP3   OH247620   5.569   2.275   5.084  0.7929  0.3017  0.3244
 8710TIP3    H147621   5.485   2.290   5.126  1.0827  0.1007  0.9932
 8710TIP3    H247622   5.550   2.213   5.014  0.3255  0.5171  0.2597
 8711TIP3   OH247623   1.969   4.163  16.572  1.1429  0.0062 -0.7947
 8711TIP3    H147624   2.047   4.166  16.627  0.9132 -3.3526 -0.0654
 8711TIP3    H247625   1.998   4.122  16.490 -0.1055 -3.3924  0.3035
 8712TIP3   OH247626   2.899   4.326   5.416  0.3308 -0.3412  0.4332
 8712TIP3    H147627   2.917   4.407   5.462 -1.9559  1.0952 -0.9922
 8712TIP3    H247628   2.870   4.353   5.328 -0.7156 -2.6468 -0.0263
 8713TIP3   OH247629   3.894   2.071   6.615  0.0193 -0.6872  0.8780
 8713TIP3    H147630   3.957   2.088   6.545 -1.0376  0.5491  0.1910
 8713TIP3    H247631   3.881   1.976   6.613 -0.2619 -0.6463 -0.8444
 8714TIP3   OH247632   5.708   2.010  11.401 -0.0697 -0.4170  0.0468
 8714TIP3    H147633   5.625   2.055  11.386 -0.0938 -0.1470  0.9355
 8714TIP3    H247634   5.774   2.063  11.356 -0.1598  0.2644  0.7131
 8715TIP3   OH247635   6.757   4.240  12.995  0.1300  0.0787  0.5398
 8715TIP3    H147636   6.853   4.242  12.998  0.2105 -1.6606  0.0052
 8715TIP3    H247637   6.733   4.169  13.054 -0.8866  0.9173  1.1623
 8716TIP3   OH247638   1.135   2.434  16.073 -0.0239  0.6783 -0.0379
 8716TIP3    H147639   1.090   2.440  16.157  0.9571 -3.2523  0.9542
 8716TIP3    H247640   1.065   2.423  16.009 -0.7589 -2.1426  1.0984
 8717TIP3   OH247641   3.744   4.551  16.553  0.7256  0.4887 -0.4242
 8717TIP3    H147642   3.797   4.630  16.546  1.4902  0.2545  2.0684
 8717TIP3    H247643   3.743   4.529  16.646 -1.2020 -1.2796 -0.7639
 8718TIP3   OH247644   3.224   6.600   4.079  0.1231 -0.0028 -0.1867
 8718TIP3    H147645   3.254   6.584   4.168 -0.7238  1.9572  0.5100
 8718TIP3    H247646   3.303   6.621   4.030  0.8080 -2.6314 -0.3443
 8719TIP3   OH247647   0.680   6.064  15.385  0.0975  0.1465  0.2614
 8719TIP3    H147648   0.704   5.972  15.382 -1.5329 -0.2928 -2.4778
 8719TIP3    H247649   0.712   6.094  15.470  0.5356 -2.9585  1.3278
 8720TIP3   OH247650   5.612   3.150   2.753  0.6508  0.1590  0.2086
 8720TIP3    H147651   5.549   3.116   2.816  3.7671  1.1937  4.2987
 8720TIP3    H247652   5.580   3.237   2.731 -0.2281 -0.0235  0.7325
 8721TIP3   OH247653   6.251   0.268  15.777 -0.6129 -0.2258  0.1510
 8721TIP3    H147654   6.344   0.266  15.759 -0.5651  0.6090  0.2562
 8721TIP3    H247655   6.245   0.265  15.873 -0.4857  3.2908  0.4205
 8722TIP3   OH247656   6.053   4.545  12.129  0.4202  0.1236 -0.7755
 8722TIP3    H147657   6.045   4.529  12.035  0.0924  0.2701 -0.7747
 8722TIP3    H247658   6.002   4.474  12.169 -1.7188  1.5511 -0.7955
 8723TIP3   OH247659   1.764   0.484   3.469  0.1764 -0.0730 -0.5282
 8723TIP3    H147660   1.758   0.503   3.562  1.7590 -1.4492 -0.0863
 8723TIP3    H247661   1.703   0.545   3.427 -0.8312  0.3160  1.4199
 8724TIP3   OH247662   6.732   3.570   4.958  1.0546  0.2236  0.0492
 8724TIP3    H147663   6.685   3.500   4.913  1.5695 -0.2504  0.2320
 8724TIP3    H247664   6.664   3.632   4.983  0.0739 -1.7263  2.7272
 8725TIP3   OH247665   3.519   3.695  14.053  0.4775 -0.0528  0.1253
 8725TIP3    H147666   3.560   3.609  14.047  0.4935 -0.0315 -0.0842
 8725TIP3    H247667   3.459   3.698  13.978  0.9470  0.3641 -0.2401
 8726TIP3   OH247668   4.461   1.802   1.774 -0.2799 -0.1139  0.2151
 8726TIP3    H147669   4.517   1.726   1.761  0.1727  0.2021  0.2511
 8726TIP3    H247670   4.487   1.836   1.860 -1.3048 -0.5966  0.7299
 8727TIP3   OH247671   0.454   6.579   2.253 -0.2317  0.3527  0.5759
 8727TIP3    H147672   0.441   6.527   2.174  2.1562  1.5723 -0.7130
 8727TIP3    H247673   0.501   6.520   2.313  1.8524  0.6913 -0.6173
 8728TIP3   OH247674   0.787   6.027  12.234  0.2700 -0.0052  0.1906
 8728TIP3    H147675   0.799   5.955  12.172 -0.3562  0.8222 -0.9194
 8728TIP3    H247676   0.816   6.105  12.187 -2.6690  1.0449 -0.0857
 8729TIP3   OH247677   4.502   3.224  15.440 -0.6980 -0.1803 -0.1265
 8729TIP3    H147678   4.587   3.210  15.483 -0.4571 -0.5725 -0.7203
 8729TIP3    H247679   4.496   3.319  15.429 -0.7094 -0.0826  0.6562
 8730TIP3   OH247680   3.703   2.374   0.772 -0.0961  0.0845 -0.0712
 8730TIP3    H147681   3.725   2.397   0.682 -0.3471  0.4478 -0.0384
 8730TIP3    H247682   3.709   2.278   0.774  1.7783  0.1620  0.0072
 8731TIP3   OH247683   1.054   5.665   5.099 -0.0990 -0.0142 -0.5279
 8731TIP3    H147684   1.106   5.585   5.107 -0.3407 -0.1428 -0.2209
 8731TIP3    H247685   1.109   5.725   5.050  0.5105 -0.0042  0.1475
 8732TIP3   OH247686   3.096   4.594   3.081  0.7931 -0.4603  0.0325
 8732TIP3    H147687   3.059   4.564   3.164 -1.9341  1.1366 -0.4737
 8732TIP3    H247688   3.079   4.523   3.019 -0.8786 -0.0834  0.0013
 8733TIP3   OH247689   0.175   6.249  15.857  0.0473 -0.0063 -0.3890
 8733TIP3    H147690   0.220   6.273  15.938  0.7743  0.8373 -1.0163
 8733TIP3    H247691   0.158   6.155  15.865  0.5790 -0.0336  0.5198
 8734TIP3   OH247692   0.411   1.742  14.632 -0.3132  0.1896  0.2937
 8734TIP3    H147693   0.343   1.809  14.641  0.0682  0.5036  0.8661
 8734TIP3    H247694   0.409   1.695  14.715 -1.9222 -1.8142 -0.7763
 8735TIP3   OH247695   4.063   4.811   1.286 -0.0627  0.5735  0.2350
 8735TIP3    H147696   4.053   4.830   1.379  0.8411  0.9269  0.2716
 8735TIP3    H247697   4.050   4.895   1.243  1.2386  0.7827  0.1920
 8736TIP3   OH247698   0.664   2.006   1.671 -0.9435  0.3467 -0.1440
 8736TIP3    H147699   0.648   1.957   1.591 -1.8499  0.5473 -0.0872
 8736TIP3    H247700   0.760   2.005   1.681 -0.8124  0.4515 -1.2985
 8737TIP3   OH247701   6.748   2.573   1.377  0.0705 -0.3079 -0.2268
 8737TIP3    H147702   6.668   2.551   1.329  0.1095  2.5062 -1.7896
 8737TIP3    H247703   6.732   2.542   1.466 -1.6719 -2.0906 -1.0816
 8738TIP3   OH247704   1.339   6.680  13.361  0.6146  0.5516  0.0256
 8738TIP3    H147705   1.314   6.589  13.342  1.7889 -0.2151  1.8480
 8738TIP3    H247706   1.277   6.707  13.429  0.8477  0.7929  0.1394
 8739TIP3   OH247707   0.447   4.433  15.373 -0.0828  0.5316 -0.1012
 8739TIP3    H147708   0.522   4.384  15.340  0.6512  1.2004  0.5522
 8739TIP3    H247709   0.390   4.443  15.297  0.9191  0.8223 -0.8390
 8740TIP3   OH247710   3.327   6.372   5.532  0.3820  0.2764 -0.4676
 8740TIP3    H147711   3.273   6.324   5.469  0.0022  0.7168 -0.4783
 8740TIP3    H247712   3.266   6.399   5.601  0.9484 -0.9843  0.5738
 8741TIP3   OH247713   5.487   4.509  13.353 -0.2784  0.3793  0.3039
 8741TIP3    H147714   5.396   4.514  13.323 -0.0802 -1.4052 -0.7586
 8741TIP3    H247715   5.537   4.499  13.272  0.9477  1.7950  0.8408
 8742TIP3   OH247716   4.351   3.096   1.132  0.2683  0.4686 -0.1056
 8742TIP3    H147717   4.381   3.006   1.148 -1.9925 -0.7109 -1.9053
 8742TIP3    H247718   4.296   3.117   1.208 -0.7888 -0.4625 -0.5932
 8743TIP3   OH247719   3.902   0.332  11.982  0.2587 -0.1708 -0.2683
 8743TIP3    H147720   3.992   0.323  11.952  0.2895 -0.6809 -0.0373
 8743TIP3    H247721   3.862   0.394  11.922  0.8231  0.2199 -0.2409
 8744TIP3   OH247722   0.563   3.112  16.836  0.3051  0.5164 -0.3972
 8744TIP3    H147723   0.652   3.093  16.866  0.5158  2.3271  0.1847
 8744TIP3    H247724   0.573   3.132  16.743  0.6590  1.6623 -0.1197
 8745TIP3   OH247725   4.729   4.353   1.938  0.0744  0.6724  0.6041
 8745TIP3    H147726   4.679   4.432   1.959 -0.3236  0.6806 -0.3486
 8745TIP3    H247727   4.820   4.383   1.931  0.0083  0.9310  0.8485
 8746TIP3   OH247728   6.676   3.549  14.110  0.2583 -0.2054 -0.3654
 8746TIP3    H147729   6.606   3.601  14.148 -0.7784 -0.4476 -1.8420
 8746TIP3    H247730   6.654   3.459  14.133 -1.8494 -0.6515 -3.5330
 8747TIP3   OH247731   3.857   0.021  14.927 -0.3631  0.2185 -0.2062
 8747TIP3    H147732   3.769  -0.013  14.940  0.0026 -0.6357  0.1367
 8747TIP3    H247733   3.867   0.026  14.832 -0.8063  0.4039 -0.2470
 8748TIP3   OH247734   2.900   4.225  12.042 -0.6385 -0.2930  0.2293
 8748TIP3    H147735   2.841   4.282  11.993  0.5539 -1.2749 -2.5995
 8748TIP3    H247736   2.986   4.239  12.001  0.7306 -0.3750  2.8849
 8749TIP3   OH247737   1.855   1.730  16.140  0.4259  0.0299 -0.0553
 8749TIP3    H147738   1.773   1.742  16.092  0.4690  0.3003 -0.0638
 8749TIP3    H247739   1.876   1.817  16.173 -0.5328 -0.4314  1.9697
 8750TIP3   OH247740   3.161   4.564   3.858  0.0278 -0.1822  0.0756
 8750TIP3    H147741   3.179   4.586   3.950  1.5541  0.4275 -0.3220
 8750TIP3    H247742   3.206   4.633   3.809 -0.5260 -0.6648 -1.1380
 8751TIP3   OH247743   3.494   5.723  16.388  0.1945  0.0872 -0.2898
 8751TIP3    H147744   3.580   5.750  16.355  0.5602 -0.7030 -0.0215
 8751TIP3    H247745   3.456   5.803  16.424  1.3473  0.2212  0.7130
 8752TIP3   OH247746   0.662   2.930  10.567  0.1409 -0.1495  0.0825
 8752TIP3    H147747   0.604   2.860  10.596  1.4906 -1.5328 -0.4430
 8752TIP3    H247748   0.670   2.918  10.473  0.3017  0.8035 -0.0392
 8753TIP3   OH247749   1.063   0.279  16.328  0.4266 -0.1044  1.0228
 8753TIP3    H147750   1.094   0.366  16.352 -0.6565  0.9195 -0.9590
 8753TIP3    H247751   0.977   0.272  16.370  0.7366 -0.4469  1.6074
 8754TIP3   OH247752   5.312   1.075  14.204  0.0195  0.0373  0.2892
 8754TIP3    H147753   5.354   1.127  14.135 -0.3671 -0.5633 -0.4174
 8754TIP3    H247754   5.304   1.134  14.278  0.8985  0.5518 -0.0182
 8755TIP3   OH247755   0.225   1.604   4.739 -0.3004  0.3069  0.1254
 8755TIP3    H147756   0.193   1.692   4.758  0.3600  0.9875 -1.7048
 8755TIP3    H247757   0.172   1.576   4.664  0.1219 -0.4947  0.1199
 8756TIP3   OH247758   3.917   0.316  15.784 -0.4676  0.5969 -0.6668
 8756TIP3    H147759   3.990   0.255  15.773 -1.0203 -0.2536  0.2421
 8756TIP3    H247760   3.957   0.403  15.779  0.7687  0.1398  0.7130
 8757TIP3   OH247761   2.643   0.662   2.529 -0.1961 -0.2615 -0.2132
 8757TIP3    H147762   2.587   0.682   2.454 -0.0633  2.8174  0.3796
 8757TIP3    H247763   2.728   0.699   2.506  0.3821 -0.9783  0.6894
 8758TIP3   OH247764   6.454   5.348   0.931 -0.0272  0.5251 -0.0057
 8758TIP3    H147765   6.371   5.334   0.975  0.0574 -0.6921 -0.2043
 8758TIP3    H247766   6.448   5.437   0.896 -2.4313 -0.4703 -2.4752
 8759TIP3   OH247767   5.779   3.148  11.835 -0.8179 -0.0284  0.1629
 8759TIP3    H147768   5.752   3.190  11.917 -0.6195  0.7595 -0.1696
 8759TIP3    H247769   5.731   3.195  11.767  0.1998  0.3633 -0.3084
 8760TIP3   OH247770   6.679   1.482  15.013 -0.5300 -0.0013  0.1478
 8760TIP3    H147771   6.706   1.495  14.922  0.0780  1.1339  0.4642
 8760TIP3    H247772   6.739   1.415  15.046  0.2607  0.6775  0.1266
 8761TIP3   OH247773   6.085   0.264  11.574 -0.0832  0.1875 -0.2251
 8761TIP3    H147774   6.069   0.317  11.652 -0.4670 -1.4019  0.8192
 8761TIP3    H247775   6.003   0.218  11.558  1.2205 -2.9366  1.1813
 8762TIP3   OH247776   1.116   1.324  15.567 -0.0288  0.4783  0.0075
 8762TIP3    H147777   1.080   1.413  15.561  0.5157  0.6196 -1.8737
 8762TIP3    H247778   1.044   1.268  15.537 -0.2411  0.3003  0.8226
 8763TIP3   OH247779   6.647   5.996   3.260 -0.6689 -0.2063  0.5066
 8763TIP3    H147780   6.643   5.997   3.355 -2.4065 -2.5931  0.5503
 8763TIP3    H247781   6.706   5.924   3.238 -2.1144 -1.2448 -0.1481
 8764TIP3   OH247782   1.318   0.152   5.339  0.1192 -0.1927 -0.4422
 8764TIP3    H147783   1.345   0.088   5.405  0.1318  1.3179  1.0575
 8764TIP3    H247784   1.244   0.198   5.378 -0.2435  0.3575 -1.7272
 8765TIP3   OH247785   3.432   1.513  11.991 -0.0223 -0.3730 -0.2921
 8765TIP3    H147786   3.424   1.544  11.901  2.0837  0.9165 -0.1065
 8765TIP3    H247787   3.454   1.420  11.982 -0.4967 -0.4145 -1.0865
 8766TIP3   OH247788   3.113   0.488  14.624  0.3667  0.0334 -0.3697
 8766TIP3    H147789   3.122   0.450  14.536 -1.6982 -1.4745 -0.0009
 8766TIP3    H247790   3.114   0.412  14.683  0.4019  0.9212  0.8135
 8767TIP3   OH247791   6.292   3.098  16.659 -0.0076 -0.2077  0.1668
 8767TIP3    H147792   6.385   3.099  16.679  0.3613  3.4250 -1.1135
 8767TIP3    H247793   6.285   3.044  16.580  0.3771 -3.2936  2.0536
 8768TIP3   OH247794   6.771   6.554   5.396  0.1225 -0.0813  0.3927
 8768TIP3    H147795   6.690   6.596   5.366 -0.6406 -1.0935  0.9859
 8768TIP3    H247796   6.829   6.558   5.320 -0.4920  0.6195 -0.0585
 8769TIP3   OH247797   2.203   1.206   1.601 -0.1414  0.9249 -0.1418
 8769TIP3    H147798   2.210   1.276   1.536 -0.4186  0.5007 -0.6332
 8769TIP3    H247799   2.269   1.229   1.667 -0.2422  1.6600 -0.2810
 8770TIP3   OH247800   1.754   3.619  13.079 -0.2119 -0.4544  1.0686
 8770TIP3    H147801   1.784   3.591  12.992  0.5818  2.1175  0.4327
 8770TIP3    H247802   1.669   3.660  13.063  0.1509  0.4489  1.4149
 8771TIP3   OH247803   0.779   0.719  11.559  0.9318  0.2639  0.8776
 8771TIP3    H147804   0.700   0.770  11.580 -0.3281 -0.5183 -1.6343
 8771TIP3    H247805   0.793   0.665  11.637 -1.2355  0.1881  1.2855
 8772TIP3   OH247806   3.282   0.686   0.979 -0.1337  0.3199  0.1453
 8772TIP3    H147807   3.316   0.773   1.000  1.5859 -0.5543  1.2145
 8772TIP3    H247808   3.273   0.642   1.064 -2.3966 -0.1008 -0.2432
 8773TIP3   OH247809   4.965   1.453   4.027 -0.2812 -0.9007 -0.0211
 8773TIP3    H147810   4.923   1.455   4.113  0.3781  2.0504  0.3434
 8773TIP3    H247811   5.010   1.369   4.024  1.7091 -0.1514  3.6126
 8774TIP3   OH247812   4.456   3.859   3.578  0.1652 -0.1447  0.1418
 8774TIP3    H147813   4.413   3.915   3.644  1.6382  2.8339 -1.2136
 8774TIP3    H247814   4.531   3.822   3.624 -1.9263 -2.9214  1.6479
 8775TIP3   OH247815   1.506   0.694  16.049  0.1555 -0.0766  0.3543
 8775TIP3    H147816   1.494   0.721  15.958  0.1437  0.8514  0.6272
 8775TIP3    H247817   1.454   0.614  16.057  0.1650 -0.1745 -0.4556
 8776TIP3   OH247818   1.723   5.727  15.350  0.2021  0.6360  0.0299
 8776TIP3    H147819   1.753   5.727  15.259 -3.1139 -0.5041 -1.2205
 8776TIP3    H247820   1.707   5.819  15.371 -0.8123  0.7804 -1.2679
 8777TIP3   OH247821   6.456   3.914  16.502  0.0291 -0.2742  0.0753
 8777TIP3    H147822   6.369   3.943  16.476  0.3375  1.3015  0.6536
 8777TIP3    H247823   6.490   3.868  16.425 -0.4303  1.1518 -1.0231
 8778TIP3   OH247824   4.076   5.194  14.495  0.7579 -0.4676  0.3548
 8778TIP3    H147825   4.133   5.123  14.467  1.5964 -0.3074  1.5922
 8778TIP3    H247826   4.029   5.221  14.415  2.3974 -0.5953 -0.6847
 8779TIP3   OH247827   1.896   1.184  14.590 -0.5473  0.1942  0.4616
 8779TIP3    H147828   1.926   1.188  14.499  1.9176 -3.4460  0.8911
 8779TIP3    H247829   1.806   1.152  14.585 -1.2488  2.1922 -0.6699
 8780TIP3   OH247830   1.128   0.598   4.827  0.4788 -0.1032 -0.2920
 8780TIP3    H147831   1.126   0.515   4.780  1.4371 -0.3961  0.1673
 8780TIP3    H247832   1.168   0.578   4.911 -1.2879  0.3860  0.7351
 8781TIP3   OH247833   0.453   5.907   5.610 -0.3886 -0.1475  0.3677
 8781TIP3    H147834   0.384   5.973   5.600  0.0916  0.6446  1.9769
 8781TIP3    H247835   0.531   5.948   5.573 -0.3462 -0.2700  0.3214
 8782TIP3   OH247836   3.459   6.150  15.045  0.8948 -0.4861  0.3267
 8782TIP3    H147837   3.468   6.224  14.985  1.7369 -1.5281 -0.8737
 8782TIP3    H247838   3.543   6.145  15.090  1.2419 -1.3722 -0.3972
 8783TIP3   OH247839   6.072   6.761   2.049 -0.1431  0.2771 -0.4469
 8783TIP3    H147840   6.166   6.751   2.063  0.3434  3.6399 -0.5033
 8783TIP3    H247841   6.061   6.753   1.954  0.1843  0.4470 -0.5000
 8784TIP3   OH247842   5.923   4.644  14.766  0.4191 -0.0279 -0.2721
 8784TIP3    H147843   5.869   4.610  14.694 -0.2814  0.0912  0.1843
 8784TIP3    H247844   5.872   4.717  14.801  0.6983 -0.1565  0.4141
 8785TIP3   OH247845   1.023   1.038  12.367 -0.3579 -0.0629 -0.0375
 8785TIP3    H147846   0.941   1.035  12.318 -0.3513 -0.2519 -0.0393
 8785TIP3    H247847   0.997   1.021  12.458 -0.1834 -1.3574 -0.2082
 8786TIP3   OH247848   4.923   0.568   0.082 -0.0267  0.3535  0.1380
 8786TIP3    H147849   4.928   0.658   0.048 -0.0950 -0.4867 -2.2839
 8786TIP3    H247850   5.009   0.552   0.119  1.1973  0.3644 -2.4582
 8787TIP3   OH247851   0.478   2.868  13.284  0.4937  0.2757  0.2463
 8787TIP3    H147852   0.489   2.797  13.347 -1.9777 -1.0834 -0.6645
 8787TIP3    H247853   0.449   2.943  13.336  0.8052 -0.1078  0.9783
 8788TIP3   OH247854   6.068   4.101  16.983  0.6584  0.1077  0.2633
 8788TIP3    H147855   6.019   4.081  16.903  1.0514 -0.6968  0.2159
 8788TIP3    H247856   6.126   4.026  16.995  1.4110  0.7390  0.6855
 8789TIP3   OH247857   3.017   1.505  12.611 -0.4455  0.4631  0.5092
 8789TIP3    H147858   2.986   1.415  12.596  0.6581  0.1986 -0.3292
 8789TIP3    H247859   3.081   1.520  12.541  0.4905  1.3805  1.5252
 8790TIP3   OH247860   6.763   5.371  14.133  0.0443 -0.8311  0.0114
 8790TIP3    H147861   6.746   5.408  14.046 -0.2005 -0.8839  0.0373
 8790TIP3    H247862   6.687   5.396  14.185  0.6131  0.0002  0.4708
 8791TIP3   OH247863   3.464   6.136   3.545  0.6697 -0.3024  0.3349
 8791TIP3    H147864   3.385   6.174   3.582  0.1893 -0.9148 -0.0349
 8791TIP3    H247865   3.534   6.197   3.569 -0.0097  0.5856  0.0995
 8792TIP3   OH247866   4.380   0.416  11.797 -0.8768  0.4677  0.7544
 8792TIP3    H147867   4.431   0.349  11.751 -1.3034 -0.1475  1.1555
 8792TIP3    H247868   4.412   0.499  11.762  0.3539  0.1048  0.9442
 8793TIP3   OH247869   4.983   2.255   4.800 -0.0479 -0.7052  0.1618
 8793TIP3    H147870   4.971   2.197   4.876  0.7038 -0.4839  0.4544
 8793TIP3    H247871   5.039   2.205   4.741 -1.1428 -1.1314 -0.5375
 8794TIP3   OH247872   3.356   1.388   2.406 -0.0723 -0.1313  0.2954
 8794TIP3    H147873   3.260   1.392   2.408 -0.0330  1.3202  0.1567
 8794TIP3    H247874   3.384   1.467   2.454  1.0436  0.1105 -0.7152
 8795TIP3   OH247875   5.100   3.812  13.564  0.0910  0.0482 -0.6001
 8795TIP3    H147876   5.050   3.877  13.515  0.2822  0.9034  0.3124
 8795TIP3    H247877   5.187   3.851  13.576  0.6050 -0.9011 -1.1017
 8796TIP3   OH247878   2.826   4.283   2.432 -0.0307 -0.0930 -0.7878
 8796TIP3    H147879   2.866   4.370   2.436  1.0220 -0.4866 -1.9634
 8796TIP3    H247880   2.760   4.283   2.501  3.0885  0.0310  2.4763
 8797TIP3   OH247881   3.937   2.937   2.917  0.3727 -0.2069 -0.6739
 8797TIP3    H147882   4.007   3.000   2.933 -1.1301  1.0323  1.5267
 8797TIP3    H247883   3.979   2.851   2.926  1.6016  0.5006  0.7658
 8798TIP3   OH247884   0.369   2.048  15.567  0.3381 -0.0930 -0.3330
 8798TIP3    H147885   0.300   2.061  15.502  0.5904 -1.2570 -0.8505
 8798TIP3    H247886   0.334   1.980  15.625  0.4737  0.3185  0.2387
 8799TIP3   OH247887   2.554   2.388   3.166 -0.2396  0.0651  0.3630
 8799TIP3    H147888   2.467   2.428   3.170  0.0018  0.7277 -0.5776
 8799TIP3    H247889   2.613   2.461   3.151  0.6073 -0.2617  1.9468
 8800TIP3   OH247890   3.868   5.639   2.561  0.7178 -0.0609 -0.0302
 8800TIP3    H147891   3.819   5.715   2.592 -2.8964 -1.4076 -1.8883
 8800TIP3    H247892   3.816   5.564   2.591  2.7418 -1.7373 -0.5070
 8801TIP3   OH247893   1.726   0.071  15.250 -0.0635 -0.0891 -0.3059
 8801TIP3    H147894   1.804   0.024  15.280  0.7232  0.6894 -1.0566
 8801TIP3    H247895   1.677   0.089  15.330  0.4130 -0.7869  0.1551
 8802TIP3   OH247896   1.534   4.463   4.926  0.6018  0.5501  0.0140
 8802TIP3    H147897   1.501   4.488   5.012  0.2735 -0.7678  0.2994
 8802TIP3    H247898   1.523   4.368   4.923  0.9638  0.5281 -1.3367
 8803TIP3   OH247899   6.480   2.564   0.270  0.4635  0.1915 -0.9452
 8803TIP3    H147900   6.460   2.658   0.278  2.6937  0.5755  1.5788
 8803TIP3    H247901   6.421   2.522   0.333  1.3055  0.2633 -0.0868
 8804TIP3   OH247902   5.398   6.331   4.182 -0.3433  0.3952 -0.0375
 8804TIP3    H147903   5.309   6.366   4.171 -1.3887 -0.8137  3.2029
 8804TIP3    H247904   5.441   6.391   4.242 -0.0101 -0.5248  0.6796
 8805TIP3   OH247905   2.029   2.472  15.838  0.5529 -0.0061  0.3243
 8805TIP3    H147906   2.103   2.530  15.822  0.3576  0.1399 -0.0538
 8805TIP3    H247907   2.068   2.385  15.843  0.6251 -0.0573 -0.9419
 8806TIP3   OH247908   3.798   5.724  10.316 -0.1819 -0.0657 -0.3551
 8806TIP3    H147909   3.883   5.683  10.300 -0.3041 -0.9522  1.0641
 8806TIP3    H247910   3.736   5.651  10.318 -0.7446  0.4144  0.0092
 8807TIP3   OH247911   3.923   5.267  13.747  0.3064 -0.3342 -0.1423
 8807TIP3    H147912   3.880   5.189  13.782 -0.1684  1.0094  2.4907
 8807TIP3    H247913   3.892   5.338  13.802  2.2602  1.4303 -1.1925
 8808TIP3   OH247914   2.628   6.004  14.832  0.1729 -0.2769 -0.1964
 8808TIP3    H147915   2.622   5.949  14.910  0.2558 -2.7138 -1.8150
 8808TIP3    H247916   2.540   6.002  14.794  0.4729 -0.3180 -0.9104
 8809TIP3   OH247917   4.642   6.378  15.592  0.0016 -0.1046 -0.1899
 8809TIP3    H147918   4.728   6.357  15.557  0.4601  0.8493  0.3079
 8809TIP3    H247919   4.646   6.472  15.610 -2.1387  0.6646 -2.9789
 8810TIP3   OH247920   1.858   0.422  10.891 -0.3498  0.2032  0.0191
 8810TIP3    H147921   1.840   0.328  10.880 -1.0931  0.2453  0.8294
 8810TIP3    H247922   1.920   0.442  10.821 -0.4257 -0.8250 -0.3634
 8811TIP3   OH247923   3.003   2.360   3.044 -0.4852 -0.6695 -0.0273
 8811TIP3    H147924   3.095   2.373   3.069 -0.8544 -0.2454  1.1955
 8811TIP3    H247925   2.996   2.267   3.025  0.0639 -0.8164  0.4701
 8812TIP3   OH247926   5.894   5.993   2.098 -0.1020 -0.0608 -0.7523
 8812TIP3    H147927   5.901   5.934   2.173  0.6401  0.1481 -0.6433
 8812TIP3    H247928   5.885   6.080   2.137  0.3715  0.0579 -0.9033
 8813TIP3   OH247929   6.461   0.354  14.634 -0.0064 -0.2710 -0.3711
 8813TIP3    H147930   6.439   0.275  14.684  0.0367 -0.3620 -0.4959
 8813TIP3    H247931   6.532   0.395  14.682 -0.5111  0.0776  0.0916
 8814TIP3   OH247932   2.604   2.215  12.614 -0.2979  0.3192  0.2213
 8814TIP3    H147933   2.561   2.144  12.661 -2.9220  1.7892  0.2357
 8814TIP3    H247934   2.562   2.216  12.528  1.9682 -0.1141 -0.9796
 8815TIP3   OH247935   3.313   4.156  10.646 -0.2290 -0.1521 -0.1376
 8815TIP3    H147936   3.381   4.105  10.600  2.1143  2.2197  0.4548
 8815TIP3    H247937   3.272   4.208  10.578  1.2948  1.2723 -0.0187
 8816TIP3   OH247938   1.858   2.672   0.687  0.1446  0.6235 -0.4834
 8816TIP3    H147939   1.929   2.718   0.643  0.2422 -0.3204 -1.3440
 8816TIP3    H247940   1.900   2.595   0.726  0.0622  1.4308  1.2937
 8817TIP3   OH247941   6.563   3.945  11.218 -0.5193 -0.3531  0.3636
 8817TIP3    H147942   6.648   3.989  11.227 -0.5247 -0.2378 -0.1187
 8817TIP3    H247943   6.568   3.902  11.133 -0.0390 -2.3335  1.3428
 8818TIP3   OH247944   2.015   5.444   1.680 -0.6217  0.1929  0.2518
 8818TIP3    H147945   2.021   5.440   1.775 -1.4561 -3.2684  0.2936
 8818TIP3    H247946   2.090   5.393   1.649 -2.0138 -1.3634 -0.7658
 8819TIP3   OH247947   6.738   5.848  12.622 -0.4479  0.4054 -0.2768
 8819TIP3    H147948   6.769   5.883  12.539 -0.0526 -1.5285 -0.9918
 8819TIP3    H247949   6.653   5.810  12.603 -0.0404 -0.6937  0.0100
 8820TIP3   OH247950   3.882   3.429  15.747 -0.5706  0.3052  0.0343
 8820TIP3    H147951   3.891   3.525  15.752 -1.3913  0.3412  1.4875
 8820TIP3    H247952   3.933   3.397  15.822 -1.8808 -0.2634  0.6969
 8821TIP3   OH247953   6.565   6.661   5.265 -0.1720  0.0301 -0.5760
 8821TIP3    H147954   6.574   6.755   5.252  2.2902 -0.3814 -2.7735
 8821TIP3    H247955   6.473   6.642   5.245 -1.1135  2.0832  1.3817
 8822TIP3   OH247956   6.412   3.939   2.391 -0.9509 -0.2233  0.0273
 8822TIP3    H147957   6.322   3.968   2.372 -1.0759 -0.7670 -0.2196
 8822TIP3    H247958   6.423   3.860   2.339 -0.5794 -0.5770  0.6395
 8823TIP3   OH247959   4.690   2.174   3.517 -0.4426  0.3558  0.4173
 8823TIP3    H147960   4.737   2.247   3.556 -1.2981  0.2240  1.7756
 8823TIP3    H247961   4.637   2.213   3.447  0.7162  0.6852 -0.2890
 8824TIP3   OH247962   5.276   6.627  15.531  0.9392 -0.3224 -0.9555
 8824TIP3    H147963   5.219   6.672  15.593  1.5993  0.9007 -1.1984
 8824TIP3    H247964   5.253   6.664  15.446  0.9566 -1.0271 -1.2759
 8825TIP3   OH247965   2.776   5.825  13.427  0.0198  0.3083 -0.0209
 8825TIP3    H147966   2.733   5.793  13.506  1.7317  0.3681  0.9814
 8825TIP3    H247967   2.717   5.893  13.394 -1.1436 -0.3135  0.7142
 8826TIP3   OH247968   0.914   4.823  16.465 -0.1482  0.2596 -0.2743
 8826TIP3    H147969   0.926   4.728  16.475  0.2246  0.2070 -1.1893
 8826TIP3    H247970   1.002   4.859  16.465 -0.3177  0.7168  0.9836
 8827TIP3   OH247971   1.252   4.239  14.762 -0.3661 -0.1904  0.1556
 8827TIP3    H147972   1.186   4.175  14.736 -1.9366  0.7421  1.6544
 8827TIP3    H247973   1.208   4.324  14.755  0.6335  0.4602  1.2482
 8828TIP3   OH247974   5.371   1.591  11.029 -0.0648 -0.6200  0.3264
 8828TIP3    H147975   5.324   1.543  11.097 -0.2452 -0.9150 -0.0058
 8828TIP3    H247976   5.370   1.533  10.953 -0.9402  0.1897 -0.3103
 8829TIP3   OH247977   0.439   2.084  11.891  0.0281  0.7677 -0.5598
 8829TIP3    H147978   0.355   2.100  11.934  1.5119 -1.5078  3.8074
 8829TIP3    H247979   0.493   2.160  11.912 -0.1398  1.0208 -1.0408
 8830TIP3   OH247980   2.348   0.292   5.762 -0.2111  0.0127 -0.3222
 8830TIP3    H147981   2.415   0.233   5.728  1.8388  1.5028  0.8969
 8830TIP3    H247982   2.373   0.308   5.853 -2.3994  0.4513  0.2723
 8831TIP3   OH247983   6.011   2.270  16.642 -0.4286 -0.2813  0.3548
 8831TIP3    H147984   5.996   2.222  16.560 -1.0114  1.4970 -0.6538
 8831TIP3    H247985   5.995   2.206  16.711 -2.4893 -1.1924 -0.8827
 8832TIP3   OH247986   0.580   3.599   1.350  0.0046  0.1864  0.0708
 8832TIP3    H147987   0.641   3.533   1.316 -0.6664 -1.3628  1.6922
 8832TIP3    H247988   0.515   3.609   1.281 -0.7676 -2.1109  0.3752
 8833TIP3   OH247989   3.549   6.059   2.521  0.2081  0.3879  0.0763
 8833TIP3    H147990   3.605   6.136   2.530 -1.2394  1.4649  0.2885
 8833TIP3    H247991   3.495   6.060   2.601 -2.6117  1.5261 -1.6819
 8834TIP3   OH247992   1.722   4.636  10.842  0.1126 -0.2242 -0.7402
 8834TIP3    H147993   1.800   4.600  10.801  0.9374  1.3717 -0.6442
 8834TIP3    H247994   1.682   4.692  10.776 -0.7540 -0.7227 -0.6608
 8835TIP3   OH247995   0.605   5.889   1.411 -0.0166  0.2795  0.2780
 8835TIP3    H147996   0.553   5.901   1.491  0.8614  3.2666  0.5467
 8835TIP3    H247997   0.686   5.846   1.440  0.3931  1.5516  1.0938
 8836TIP3   OH247998   5.424   4.663  17.146  0.0842 -0.0242 -0.1589
 8836TIP3    H147999   5.421   4.577  17.104 -1.9368 -0.4770  0.7713
 8836TIP3    H248000   5.345   4.708  17.114  0.7386  1.2157 -0.0810
 8837TIP3   OH248001   6.100   5.450  14.023 -0.3544  0.0030 -0.1314
 8837TIP3    H148002   6.034   5.512  14.055 -1.1415 -1.8623  2.1978
 8837TIP3    H248003   6.179   5.471  14.073 -0.4642 -0.4844  0.2586
 8838TIP3   OH248004   6.341   2.836  14.262  0.0805 -0.3233  0.0598
 8838TIP3    H148005   6.412   2.891  14.229 -1.2028 -0.4910 -3.3538
 8838TIP3    H248006   6.368   2.746  14.242 -0.4626 -0.4907  0.0614
 8839TIP3   OH248007   3.906   1.838   5.352 -0.2128 -0.0485 -0.8268
 8839TIP3    H148008   3.948   1.813   5.270 -1.0621 -0.2223 -1.2298
 8839TIP3    H248009   3.814   1.853   5.327 -0.2361  1.0930 -0.1427
 8840TIP3   OH248010   1.554   1.852  10.315  0.2378  0.0711 -0.5015
 8840TIP3    H148011   1.519   1.890  10.396 -0.0858  0.3392 -0.7659
 8840TIP3    H248012   1.560   1.758  10.333  2.5508  0.3702  0.7400
 8841TIP3   OH248013   1.731   0.711   4.878  0.6928  0.0606 -0.3286
 8841TIP3    H148014   1.717   0.617   4.882 -0.3503  0.1424 -1.5124
 8841TIP3    H248015   1.646   0.749   4.901  1.0602  0.7191 -0.0147
 8842TIP3   OH248016   5.779   0.002   3.937  0.3416 -0.2280  0.4918
 8842TIP3    H148017   5.829  -0.004   3.856  0.3543 -1.0090  0.5516
 8842TIP3    H248018   5.774   0.096   3.956  0.3865 -0.0479 -0.3786
 8843TIP3   OH248019   5.450   3.889   0.716 -0.4886 -0.4764 -0.2561
 8843TIP3    H148020   5.464   3.795   0.703 -0.0859 -0.2801 -1.3389
 8843TIP3    H248021   5.357   3.902   0.700 -0.2985 -0.4972 -1.4572
 8844TIP3   OH248022   1.565   6.322   1.655 -0.5917  0.1963  0.4886
 8844TIP3    H148023   1.585   6.393   1.594  1.1296 -1.6223 -1.2226
 8844TIP3    H248024   1.629   6.332   1.725  0.4184 -0.2494 -0.3319
 8845TIP3   OH248025   5.452   4.837  16.773  0.8837  0.0355 -0.1525
 8845TIP3    H148026   5.539   4.853  16.737  0.3494 -0.3280 -1.6640
 8845TIP3    H248027   5.442   4.904  16.840  0.9828  2.3569 -2.3225
 8846TIP3   OH248028   1.112   1.340   0.580  0.7365  0.1025  0.7470
 8846TIP3    H148029   1.094   1.256   0.623 -0.9708  1.3766  2.7449
 8846TIP3    H248030   1.134   1.399   0.652 -1.3885  2.1482 -0.1673
 8847TIP3   OH248031   3.243   1.138  13.988  0.5558 -0.0986 -0.1223
 8847TIP3    H148032   3.327   1.128  13.944  1.1538 -0.1756  0.9900
 8847TIP3    H248033   3.259   1.107  14.077 -0.3949  0.7873  0.3819
 8848TIP3   OH248034   4.221   6.601   4.448 -0.4834  0.3142 -0.0843
 8848TIP3    H148035   4.199   6.532   4.386  1.4163 -1.9431  1.5763
 8848TIP3    H248036   4.265   6.668   4.395 -0.0718 -0.9322 -1.3708
 8849TIP3   OH248037   0.267   0.023   2.307 -0.3449 -0.3713  0.0447
 8849TIP3    H148038   0.190  -0.003   2.257 -1.1699 -2.5671  2.2456
 8849TIP3    H248039   0.338  -0.032   2.272 -0.1337  0.4596 -0.8652
 8850TIP3   OH248040   4.260   0.446  14.282 -0.0803  0.0631 -0.5247
 8850TIP3    H148041   4.271   0.530  14.327  0.7581 -0.7212  0.7980
 8850TIP3    H248042   4.207   0.393  14.341  1.3579 -1.1181 -0.2252
 8851TIP3   OH248043   6.174   3.350   3.160  0.5825  0.4220  0.2203
 8851TIP3    H148044   6.193   3.380   3.249  0.7632 -0.0772  0.3545
 8851TIP3    H248045   6.188   3.255   3.163  1.2928  0.4882 -0.5183
 8852TIP3   OH248046   0.427   6.109   2.579 -0.1992  0.7328 -0.7630
 8852TIP3    H148047   0.482   6.182   2.609 -0.6722  0.1910  1.6485
 8852TIP3    H248048   0.339   6.145   2.576 -0.4396  0.2818  0.4702
 8853TIP3   OH248049   3.792   6.134   5.498  0.2603 -0.1474  0.2881
 8853TIP3    H148050   3.865   6.197   5.497  1.3460 -1.3798 -0.5920
 8853TIP3    H248051   3.802   6.084   5.417 -0.0897 -2.0029  1.3409
 8854TIP3   OH248052   3.695   0.168   0.784 -0.0882  0.0874  0.2432
 8854TIP3    H148053   3.675   0.180   0.691  0.8960 -1.7963 -0.2633
 8854TIP3    H248054   3.653   0.086   0.807 -1.0411  0.9447  1.7361
 8855TIP3   OH248055   2.443   5.427  12.672 -0.0468 -0.2364  0.5227
 8855TIP3    H148056   2.386   5.351  12.683  2.1155 -1.7673  1.7400
 8855TIP3    H248057   2.509   5.398  12.609 -0.3717  1.4163 -0.6533
 8856TIP3   OH248058   3.368   2.543   5.487  0.0042 -0.4006 -0.0910
 8856TIP3    H148059   3.326   2.465   5.449 -0.8462  0.3662 -0.7811
 8856TIP3    H248060   3.423   2.577   5.416 -0.9248  0.5529 -0.3885
 8857TIP3   OH248061   4.579   1.888  14.141  0.2846 -0.7054  0.5517
 8857TIP3    H148062   4.617   1.801  14.134  1.5216 -0.3700  2.4048
 8857TIP3    H248063   4.501   1.885  14.085  0.9103 -2.6283 -0.2927
 8858TIP3   OH248064   6.148   4.779  14.855  0.5496 -0.0622  0.8538
 8858TIP3    H148065   6.088   4.739  14.792  0.3023  0.7480  0.5580
 8858TIP3    H248066   6.103   4.858  14.885  2.4581  2.0374 -1.3236
 8859TIP3   OH248067   1.135   4.407  15.942 -0.3897 -0.1567  0.0594
 8859TIP3    H148068   1.104   4.495  15.963  0.4052  0.0509  0.3817
 8859TIP3    H248069   1.221   4.421  15.902  0.1965 -0.8457  1.0465
 8860TIP3   OH248070   1.046   1.149   4.997 -0.1545  0.1118 -0.1907
 8860TIP3    H148071   1.084   1.116   5.078 -1.7012  0.0709  0.5498
 8860TIP3    H248072   1.114   1.134   4.931 -0.1534 -3.1072  0.4023
 8861TIP3   OH248073   5.909   2.990  17.073 -0.2741 -0.1997 -0.0808
 8861TIP3    H148074   5.929   2.975  16.981 -0.6315 -0.4253 -0.1243
 8861TIP3    H248075   5.813   2.993  17.076 -0.2611 -0.1342  0.2735
 8862TIP3   OH248076   0.031   0.903   1.560 -0.0221 -0.5689 -0.2147
 8862TIP3    H148077   0.044   0.932   1.650  1.1233 -0.4067 -0.4096
 8862TIP3    H248078   0.008   0.983   1.512  1.6408 -0.2059 -0.4709
 8863TIP3   OH248079   0.674   6.276   3.346 -0.4120  0.5222 -0.4639
 8863TIP3    H148080   0.712   6.218   3.412 -0.6069 -1.2762 -1.8511
 8863TIP3    H248081   0.591   6.304   3.383  0.1281  0.7060  0.6412
 8864TIP3   OH248082   2.644   0.516   4.733 -0.2072 -0.7789 -0.1700
 8864TIP3    H148083   2.554   0.548   4.744  0.1081 -0.3850  1.5402
 8864TIP3    H248084   2.690   0.587   4.690 -0.7333 -1.0371 -1.1823
 8865TIP3   OH248085   5.744   3.309   2.040  0.6407  0.9403 -0.3762
 8865TIP3    H148086   5.655   3.338   2.057  0.1862 -0.7454  0.2500
 8865TIP3    H248087   5.772   3.363   1.965 -0.6430  1.9459 -0.1734
 8866TIP3   OH248088   0.838   2.103  11.963 -0.5124  0.2959  0.7085
 8866TIP3    H148089   0.929   2.074  11.952  0.1076  2.1330  0.6644
 8866TIP3    H248090   0.798   2.093  11.877 -0.6332 -1.3294  0.9235
 8867TIP3   OH248091   5.351   2.989  14.476 -0.6536  0.0736  0.2051
 8867TIP3    H148092   5.261   2.971  14.506  0.2397 -1.1361  2.4502
 8867TIP3    H248093   5.354   3.084  14.465 -2.0999  0.1835  0.5398
 8868TIP3   OH248094   1.151   1.204  13.007 -0.0001  0.1448 -0.1500
 8868TIP3    H148095   1.120   1.243  13.089  2.3755 -1.2652  1.5680
 8868TIP3    H248096   1.238   1.244  12.994 -0.4860  0.6024 -2.2186
 8869TIP3   OH248097   6.575   4.546  16.173 -0.0750 -0.0252  0.2220
 8869TIP3    H148098   6.608   4.608  16.237  0.4298 -0.7653  0.6820
 8869TIP3    H248099   6.595   4.460  16.209 -1.5732 -0.4889  0.0273
 8870TIP3   OH248100   2.793   2.381   2.338  0.6969  0.1211  0.7124
 8870TIP3    H148101   2.811   2.475   2.341  2.8769 -0.2466  0.5669
 8870TIP3    H248102   2.811   2.356   2.247 -0.9779 -0.2769  0.4498
 8871TIP3   OH248103   5.627   1.003  15.614  0.3373  0.6581 -0.0183
 8871TIP3    H148104   5.546   0.981  15.660  0.0922  0.3408 -0.5905
 8871TIP3    H248105   5.689   1.024  15.684 -0.2475  0.9507  0.4236
 8872TIP3   OH248106   0.420   0.747   2.011  0.0349 -0.7557 -0.3776
 8872TIP3    H148107   0.374   0.664   2.000 -0.0009 -0.7176 -0.5289
 8872TIP3    H248108   0.448   0.748   2.102 -2.2342  0.2210  0.3785
 8873TIP3   OH248109   0.159   0.265  10.813  0.0208  0.0651  0.1950
 8873TIP3    H148110   0.169   0.172  10.791  1.2812  0.6620 -2.0013
 8873TIP3    H248111   0.140   0.307  10.730  1.1840  2.0197  0.8609
 8874TIP3   OH248112   5.241   4.908  16.049 -0.6143 -0.0184  0.5511
 8874TIP3    H148113   5.257   4.880  16.139  2.1065  0.9682  0.4948
 8874TIP3    H248114   5.271   4.834  15.996  0.3714  0.4050  0.4817
 8875TIP3   OH248115   0.229   2.240  16.014 -0.1189  0.5342  0.0781
 8875TIP3    H148116   0.214   2.226  16.107 -4.3820  0.3021 -0.4686
 8875TIP3    H248117   0.166   2.307  15.989 -0.0209 -0.3291 -2.8836
 8876TIP3   OH248118   4.574   0.846  11.559 -0.4362 -0.2568 -0.2384
 8876TIP3    H148119   4.625   0.878  11.634 -1.5267  1.3132 -0.1204
 8876TIP3    H248120   4.619   0.883  11.483 -1.7862  1.8579 -0.0947
 8877TIP3   OH248121   1.732   1.972  14.362 -0.1899  0.3512 -0.2879
 8877TIP3    H148122   1.768   1.958  14.275 -1.2157 -1.6163 -0.4345
 8877TIP3    H248123   1.745   2.066  14.378  2.0294  0.3512 -1.6120
 8878TIP3   OH248124   6.247   3.234  15.570 -0.1547 -0.1331 -0.1180
 8878TIP3    H148125   6.302   3.156  15.574  0.2372  0.1549  0.1677
 8878TIP3    H248126   6.162   3.202  15.538 -0.9044 -1.1771  2.5758
 8879TIP3   OH248127   5.648   3.371   0.867 -0.1112 -0.3323 -0.4100
 8879TIP3    H148128   5.633   3.276   0.874  0.1203 -0.3921 -0.7074
 8879TIP3    H248129   5.608   3.407   0.946  0.1637 -0.7216 -0.0867
 8880TIP3   OH248130   5.581   3.556   0.187  0.0431  0.7947  0.0353
 8880TIP3    H148131   5.613   3.503   0.260 -0.1926  0.6968  0.0678
 8880TIP3    H248132   5.588   3.646   0.217 -0.1633  0.7485  0.2213
 8881TIP3   OH248133   6.432   5.227  13.282  0.5143  0.4589 -0.1729
 8881TIP3    H148134   6.353   5.260  13.239 -0.3477  0.9833  1.7153
 8881TIP3    H248135   6.478   5.306  13.311 -0.2165  0.1370  2.0300
 8882TIP3   OH248136   3.576   5.135  13.431 -0.0188  0.6302  0.6462
 8882TIP3    H148137   3.632   5.138  13.353 -0.2450  2.3905  0.5278
 8882TIP3    H248138   3.615   5.066  13.484  1.8310  1.2700  0.2162
 8883TIP3   OH248139   3.971   1.546  16.515  0.0718 -0.0796 -0.5902
 8883TIP3    H148140   4.054   1.559  16.561 -0.8311 -1.1754  1.5336
 8883TIP3    H248141   3.958   1.451  16.516 -1.7681  0.1268  0.2775
 8884TIP3   OH248142   5.347   5.238   0.367 -0.0765  0.2848 -0.3711
 8884TIP3    H148143   5.435   5.222   0.331 -0.3084  1.2969 -1.4354
 8884TIP3    H248144   5.333   5.332   0.356 -0.6936  0.4229  1.2312
 8885TIP3   OH248145   2.958   3.454   3.840 -0.1326  0.0817 -0.2894
 8885TIP3    H148146   3.033   3.450   3.781  2.0430 -0.8242  2.3382
 8885TIP3    H248147   2.947   3.364   3.872 -1.9326  0.3265 -0.0609
 8886TIP3   OH248148   1.749   4.914  11.060  0.2284 -0.1479 -0.3277
 8886TIP3    H148149   1.793   4.962  11.129 -0.3781  1.6372 -1.1113
 8886TIP3    H248150   1.754   4.822  11.086 -0.4706  0.5009  2.3603
 8887TIP3   OH248151   3.677   6.191   3.327 -0.2707 -0.0963 -0.3626
 8887TIP3    H148152   3.668   6.191   3.422 -1.6421 -0.8786 -0.4565
 8887TIP3    H248153   3.689   6.283   3.304 -0.3634  0.1507  0.5388
 8888TIP3   OH248154   0.780   1.255   5.225  0.1225  0.1836 -0.1971
 8888TIP3    H148155   0.825   1.338   5.206  1.5886 -0.4919  0.2080
 8888TIP3    H248156   0.706   1.280   5.280 -0.7529  1.4687 -1.8469
 8889TIP3   OH248157   1.416   5.130  16.583  0.2818 -0.5865 -0.0927
 8889TIP3    H148158   1.416   5.116  16.488 -0.7513  2.9874 -0.7985
 8889TIP3    H248159   1.330   5.101  16.612 -0.4209  0.7087 -0.7901
 8890TIP3   OH248160   4.036   5.642  13.253  0.2044  0.0320  0.2373
 8890TIP3    H148161   4.034   5.714  13.190  0.6282 -0.9179 -0.8990
 8890TIP3    H248162   3.945   5.613  13.258  0.2171 -0.1050 -0.2167
 8891TIP3   OH248163   2.331   5.569   0.949 -0.0059 -0.3486  0.0171
 8891TIP3    H148164   2.267   5.628   0.989  0.4722 -0.7874  1.4858
 8891TIP3    H248165   2.411   5.621   0.941  1.0951 -1.2726  3.3272
 8892TIP3   OH248166   0.994   4.722  12.115  0.6158 -0.7997  0.0266
 8892TIP3    H148167   0.940   4.657  12.069  0.9668 -0.9740 -0.1471
 8892TIP3    H248168   1.035   4.772  12.045  0.1071 -0.1855  0.1640
 8893TIP3   OH248169   0.367   2.532  17.204 -0.3933  0.2035 -0.1271
 8893TIP3    H148170   0.296   2.562  17.146 -1.6631 -0.2637  1.1210
 8893TIP3    H248171   0.383   2.442  17.177 -1.6652 -0.3412  0.8265
 8894TIP3   OH248172   6.147   0.164   5.065  0.8906  0.0616 -0.5110
 8894TIP3    H148173   6.072   0.136   5.013  0.6089 -0.6567  0.2449
 8894TIP3    H248174   6.147   0.259   5.058 -1.5219  0.3058  1.3047
 8895TIP3   OH248175   2.032   1.350  13.844 -0.1788  0.0176 -0.2224
 8895TIP3    H148176   2.119   1.335  13.808  0.3495 -0.4093  1.1930
 8895TIP3    H248177   2.016   1.276  13.902 -0.8581  0.8444  0.6873
 8896TIP3   OH248178   6.191   4.892  13.316 -0.1258  0.4397  0.0568
 8896TIP3    H148179   6.181   4.944  13.237 -0.4302  0.3891  0.0616
 8896TIP3    H248180   6.239   4.814  13.288  1.6595  1.3834  0.3266
 8897TIP3   OH248181   4.895   6.706  13.952  0.5549  0.6948  0.3844
 8897TIP3    H148182   4.896   6.621  13.908 -1.2282  1.3980 -1.1146
 8897TIP3    H248183   4.868   6.687  14.041  1.4844 -0.4379  0.4460
 8898TIP3   OH248184   2.581   2.036  11.080 -0.6563  0.1583 -0.4502
 8898TIP3    H148185   2.519   2.011  11.012 -0.6334  0.9734 -0.7819
 8898TIP3    H248186   2.538   2.012  11.162 -0.6633 -0.8722 -0.7453
 8899TIP3   OH248187   5.661   0.963  14.279 -0.2990 -0.5381  0.4879
 8899TIP3    H148188   5.578   0.926  14.312  0.5024 -2.8945  0.0844
 8899TIP3    H248189   5.725   0.941  14.347 -0.0008  1.6502  1.0008
 8900TIP3   OH248190   6.767   2.218  17.204  0.1335 -0.5576 -0.0650
 8900TIP3    H148191   6.796   2.264  17.282  0.1580 -1.1789  0.2950
 8900TIP3    H248192   6.681   2.256  17.184  1.6428  2.2548 -1.9151
 8901TIP3   OH248193   3.386   3.061  12.813  0.3663 -0.4012 -0.8515
 8901TIP3    H148194   3.456   3.000  12.792  0.4381 -0.1973 -1.2092
 8901TIP3    H248195   3.407   3.093  12.901 -0.2335 -1.6695 -0.2271
 8902TIP3   OH248196   3.792   2.084  11.755  0.5548  0.6177  0.9601
 8902TIP3    H148197   3.751   2.156  11.801  1.5226  0.5983  1.8836
 8902TIP3    H248198   3.793   2.111  11.663 -1.9852  0.3801  0.7968
 8903TIP3   OH248199   5.224   0.546  14.514 -0.7249  0.7021  0.3800
 8903TIP3    H148200   5.310   0.505  14.527 -0.8118  0.5658  0.5266
 8903TIP3    H248201   5.202   0.583  14.600 -0.4062  1.5193  0.1150
 8904TIP3   OH248202   3.357   6.552   2.097 -0.7085  0.3129 -0.0279
 8904TIP3    H148203   3.269   6.518   2.081  0.3086 -2.4754 -0.2426
 8904TIP3    H248204   3.412   6.474   2.103  1.4192  1.8603  2.3957
 8905TIP3   OH248205   1.710   6.457   1.064 -0.2228 -0.0444  0.3159
 8905TIP3    H148206   1.673   6.505   1.139  0.7409 -1.6179  1.8706
 8905TIP3    H248207   1.634   6.431   1.012 -1.0466 -0.1234  1.5180
 8906TIP3   OH248208   5.856   1.610  11.981 -0.2741 -0.4280  0.0022
 8906TIP3    H148209   5.877   1.667  12.055  0.9033  1.2468 -1.5446
 8906TIP3    H248210   5.909   1.643  11.909 -1.1805 -2.1665 -1.5530
 8907TIP3   OH248211   5.297   4.684   6.784 -0.7043  0.2527 -0.4410
 8907TIP3    H148212   5.379   4.674   6.736 -0.8999  0.3397 -0.7958
 8907TIP3    H248213   5.246   4.606   6.760 -1.1642  0.7527 -1.0865
 8908TIP3   OH248214   3.493   2.744   2.098 -0.2929 -0.1986 -0.4384
 8908TIP3    H148215   3.417   2.741   2.040 -0.2119  0.0040 -0.5567
 8908TIP3    H248216   3.512   2.837   2.108 -0.1785 -0.2403 -0.2532
 8909TIP3   OH248217   1.938   2.140  16.337 -0.3355  0.1193  0.3979
 8909TIP3    H148218   1.848   2.125  16.364 -0.8026 -0.3046 -1.2980
 8909TIP3    H248219   1.990   2.124  16.416 -1.6267 -0.8946  1.0700
 8910TIP3   OH248220   3.625   3.722   4.012 -0.0162  0.3609 -0.0661
 8910TIP3    H148221   3.676   3.753   4.087  0.0252 -0.0942  0.0922
 8910TIP3    H248222   3.678   3.652   3.974 -0.2759  0.2443 -0.2165
 8911TIP3   OH248223   0.252   6.274   4.759  0.5292 -0.4471  0.0995
 8911TIP3    H148224   0.330   6.316   4.795 -0.7237  2.0715  0.0662
 8911TIP3    H248225   0.280   6.240   4.674  1.0802  2.5860 -1.0569
 8912TIP3   OH248226   3.786   1.214   5.645  0.8345 -0.2149  0.1258
 8912TIP3    H148227   3.868   1.176   5.611  0.4878  0.3098 -1.3733
 8912TIP3    H248228   3.804   1.231   5.737  2.5685  0.2685 -0.2682
 8913TIP3   OH248229   4.472   3.454  14.376  0.2160 -0.3288 -0.4174
 8913TIP3    H148230   4.429   3.415  14.300 -1.0464  1.6858 -0.7916
 8913TIP3    H248231   4.524   3.525  14.340  1.7281 -0.9859  0.3597
 8914TIP3   OH248232   4.119   1.336  16.347  1.0520 -0.6403  0.1595
 8914TIP3    H148233   4.097   1.264  16.288 -0.3287  0.4552 -0.7174
 8914TIP3    H248234   4.078   1.313  16.430  0.6719 -0.8998 -0.0982
 8915TIP3   OH248235   2.216   5.361  15.027 -0.0826 -0.3215 -0.3423
 8915TIP3    H148236   2.263   5.341  15.108 -3.0018 -1.1456  1.3177
 8915TIP3    H248237   2.268   5.319  14.958  1.9210 -0.5464  1.2162
 8916TIP3   OH248238   6.125   4.073   1.473 -0.0606  0.1980 -0.3005
 8916TIP3    H148239   6.151   4.097   1.384 -3.0977  1.1722 -1.0266
 8916TIP3    H248240   6.046   4.021   1.462  0.9649 -2.0079  1.7762
 8917TIP3   OH248241   6.168   3.689  10.356 -0.2008  0.6919 -0.7471
 8917TIP3    H148242   6.124   3.775  10.353  0.9760  1.3374 -0.2911
 8917TIP3    H248243   6.141   3.645  10.276 -2.1337  0.8120 -0.2226
 8918TIP3   OH248244   5.950   2.773   2.256  0.3292 -0.0769 -0.5138
 8918TIP3    H148245   5.996   2.689   2.257  0.3729 -0.0743  1.7983
 8918TIP3    H248246   5.864   2.753   2.219  0.4463 -1.0708 -0.2797
 8919TIP3   OH248247   2.611   2.391  15.560  0.3497 -0.1689 -0.0318
 8919TIP3    H148248   2.665   2.409  15.637 -0.8412 -0.2709  0.8588
 8919TIP3    H248249   2.566   2.474  15.542 -0.6692 -0.5946  0.4505
 8920TIP3   OH248250   6.584   6.783  14.984 -0.0395 -0.4718  0.2517
 8920TIP3    H148251   6.666   6.787  15.033  0.1576 -0.6263 -0.0540
 8920TIP3    H248252   6.517   6.767  15.050  0.3799 -2.0221  0.3526
 8921TIP3   OH248253   1.061   3.905   2.346 -0.1223 -0.3843 -0.1336
 8921TIP3    H148254   1.082   3.869   2.432  0.7283  1.5477  0.5198
 8921TIP3    H248255   1.074   3.832   2.286  1.1444 -1.2891  1.1672
 8922TIP3   OH248256   5.756   6.218  17.112  0.1894  0.5393  0.4092
 8922TIP3    H148257   5.731   6.290  17.054 -1.2401  0.3030  0.7014
 8922TIP3    H248258   5.722   6.243  17.197 -2.7737 -1.6577  0.0189
 8923TIP3   OH248259   2.909   1.667   0.576 -0.0809 -0.5144  0.2217
 8923TIP3    H148260   2.987   1.664   0.631  0.2404 -2.0084 -0.2821
 8923TIP3    H248261   2.923   1.741   0.518  0.5346 -0.2150  0.7350
 8924TIP3   OH248262   3.519   1.363  14.620  0.5472 -0.0387  0.0293
 8924TIP3    H148263   3.526   1.268  14.606  0.4939 -0.3343  1.8597
 8924TIP3    H248264   3.595   1.399  14.574  0.5998 -0.9554 -0.6391
 8925TIP3   OH248265   2.963   2.541   3.789  0.3896  0.9375  0.6946
 8925TIP3    H148266   2.927   2.503   3.709  0.8616  0.2494  0.7996
 8925TIP3    H248267   2.894   2.598   3.822  1.1519  3.4300 -1.6450
 8926TIP3   OH248268   4.396   4.967   1.862 -0.5610 -0.0695  0.2828
 8926TIP3    H148269   4.346   4.919   1.928 -0.1673 -0.9259 -0.0317
 8926TIP3    H248270   4.453   4.902   1.822  1.3532  0.9901  1.1112
 8927TIP3   OH248271   1.834   4.552  15.045 -0.0043  0.1893 -0.3894
 8927TIP3    H148272   1.781   4.522  14.972  0.0276 -2.3430  0.5485
 8927TIP3    H248273   1.921   4.517  15.029  0.3134  0.6420  0.2620
 8928TIP3   OH248274   3.657   4.997  16.310 -0.2401 -0.3410 -0.0005
 8928TIP3    H148275   3.735   4.978  16.361 -0.1925  1.8261  0.8393
 8928TIP3    H248276   3.584   4.984  16.371 -0.6020 -2.5309 -0.8314
 8929TIP3   OH248277   5.478   5.281   1.005 -0.1999  0.4280 -0.2373
 8929TIP3    H148278   5.429   5.324   1.075  0.0647  0.9525 -0.3716
 8929TIP3    H248279   5.490   5.349   0.939 -1.3085 -0.3248 -1.2531
 8930TIP3   OH248280   2.569   1.432  16.992 -0.0251 -0.3653  1.0147
 8930TIP3    H148281   2.583   1.448  17.085  0.3858 -1.0451  1.0720
 8930TIP3    H248282   2.583   1.517  16.950  1.0131 -0.3237  1.4333
 8931TIP3   OH248283   1.381   3.753  16.777  0.1598 -0.1352 -0.3256
 8931TIP3    H148284   1.473   3.775  16.789  0.1882 -0.1364 -0.5433
 8931TIP3    H248285   1.342   3.832  16.738  0.5229 -0.8875 -2.3272
 8932TIP3   OH248286   2.617   4.824   4.207  0.2733  0.1757 -0.7399
 8932TIP3    H148287   2.537   4.818   4.259 -0.2553  1.3672 -1.3644
 8932TIP3    H248288   2.681   4.866   4.265  0.9195 -1.9905  0.2286
 8933TIP3   OH248289   3.023   5.938  16.643 -0.2277  0.4631 -0.7596
 8933TIP3    H148290   3.089   5.990  16.597  0.6925  0.3882  0.4506
 8933TIP3    H248291   3.039   5.955  16.736  0.4547 -2.3921 -0.2837
 8934TIP3   OH248292   4.578   1.201  17.181  0.1665  0.9941  0.2067
 8934TIP3    H148293   4.650   1.263  17.178 -0.6854  1.9669 -0.9523
 8934TIP3    H248294   4.500   1.253  17.161 -0.8904 -0.0046  1.5146
 8935TIP3   OH248295   0.561   6.055   1.184  0.2671  0.1813  0.0564
 8935TIP3    H148296   0.573   5.999   1.261  2.4744 -0.8721 -0.9763
 8935TIP3    H248297   0.648   6.091   1.166 -0.2724  0.7170 -1.7195
 8936TIP3   OH248298   5.106   3.645   2.565  0.2217 -0.4222  0.5690
 8936TIP3    H148299   5.032   3.603   2.521  0.2024  0.5778 -0.4044
 8936TIP3    H248300   5.068   3.718   2.613  0.4894 -0.3427  0.6651
 8937TIP3   OH248301   1.724   6.524   3.016  0.3125  0.3747 -0.4213
 8937TIP3    H148302   1.785   6.597   3.023  1.5871 -0.7803  1.7287
 8937TIP3    H248303   1.770   6.458   2.964  0.5126 -0.1007  0.3360
 8938TIP3   OH248304   2.240   2.741   1.109  0.3675 -0.2468 -0.0526
 8938TIP3    H148305   2.178   2.718   1.040 -0.2680 -0.9682  0.7425
 8938TIP3    H248306   2.209   2.825   1.142 -0.3213 -0.6937  0.4713
 8939TIP3   OH248307   3.420   5.148  14.955  0.2539 -0.2012  0.2212
 8939TIP3    H148308   3.433   5.243  14.954 -1.3315  0.0895  2.0890
 8939TIP3    H248309   3.330   5.135  14.926  0.4027 -1.1490  0.1384
 8940TIP3   OH248310   6.777   3.926   5.559 -0.4883 -0.1009  0.0158
 8940TIP3    H148311   6.775   3.978   5.639  1.1317 -0.6896  0.4829
 8940TIP3    H248312   6.758   3.837   5.587 -0.2287 -0.2595 -0.2976
 8941TIP3   OH248313   5.863   0.566   2.396 -0.5475  0.5972 -0.1193
 8941TIP3    H148314   5.947   0.607   2.374 -0.1014 -0.6676 -0.8507
 8941TIP3    H248315   5.799   0.612   2.340  0.2557 -1.0765 -2.5727
 8942TIP3   OH248316   2.525   1.100  12.234 -0.0576  0.0421 -0.8365
 8942TIP3    H148317   2.508   1.079  12.326 -0.5339 -0.9092 -1.1367
 8942TIP3    H248318   2.602   1.157  12.237 -1.0130  1.3770  0.2691
 8943TIP3   OH248319   2.638   3.719  12.581  0.2461 -0.1182 -0.0987
 8943TIP3    H148320   2.653   3.648  12.519 -2.4336 -1.4758  0.6443
 8943TIP3    H248321   2.556   3.759  12.551  0.8238  1.5802  0.4935
 8944TIP3   OH248322   1.207   4.597  16.659  0.2775 -0.0462  0.0932
 8944TIP3    H148323   1.172   4.597  16.748  1.3381  0.6608  0.5354
 8944TIP3    H248324   1.133   4.573  16.604 -0.1158 -1.6879  1.2609
 8945TIP3   OH248325   5.842   4.090  11.654  0.4546  0.3897  0.4076
 8945TIP3    H148326   5.846   4.094  11.749  0.2023 -0.5622  0.4630
 8945TIP3    H248327   5.783   4.162  11.630 -0.1417  0.1161  1.0229
 8946TIP3   OH248328   4.053   5.826  15.533  0.1814 -0.0043 -0.3461
 8946TIP3    H148329   4.087   5.737  15.524  0.4109 -0.1753  1.7327
 8946TIP3    H248330   4.064   5.846  15.626 -1.5265  1.5174 -0.4291
 8947TIP3   OH248331   1.498   6.178  15.616  0.0902  0.1974  1.1753
 8947TIP3    H148332   1.403   6.178  15.606  0.1619  0.7271  0.4783
 8947TIP3    H248333   1.525   6.267  15.595  0.6121  0.4369  2.7155
 8948TIP3   OH248334   3.614   2.707   6.023 -0.1768  0.2037 -0.8895
 8948TIP3    H148335   3.527   2.738   6.000 -0.0340  2.0774  0.8539
 8948TIP3    H248336   3.630   2.740   6.111  2.3777  0.0646 -1.2005
 8949TIP3   OH248337   5.092   6.557  14.844  0.1365  0.1842 -0.4653
 8949TIP3    H148338   5.095   6.581  14.936 -1.1057  0.8961 -0.5882
 8949TIP3    H248339   5.147   6.480  14.837 -1.0320 -0.8546  1.1882
 8950TIP3   OH248340   2.278   4.936   2.820 -0.0515 -0.5208  0.4737
 8950TIP3    H148341   2.282   4.974   2.907  1.0231  0.2220  0.1143
 8950TIP3    H248342   2.355   4.879   2.815  0.1327 -0.2261 -0.1398
 8951TIP3   OH248343   1.491   6.162   3.758  0.1142  0.3941 -0.3218
 8951TIP3    H148344   1.580   6.168   3.792 -0.1899  1.5051  0.3161
 8951TIP3    H248345   1.469   6.069   3.765  0.3714  0.4338  1.7655
 8952TIP3   OH248346   2.510   2.271  15.135 -0.1050  0.1844 -0.4410
 8952TIP3    H148347   2.455   2.223  15.197  0.8651 -1.5264 -0.8627
 8952TIP3    H248348   2.571   2.206  15.101  3.5177  2.3465  1.3873
 8953TIP3   OH248349   3.675   6.205   0.191  0.0216  1.0099 -0.4975
 8953TIP3    H148350   3.635   6.193   0.277 -0.8143 -1.8142 -1.1891
 8953TIP3    H248351   3.600   6.222   0.133  0.5634  2.7326 -0.7591
 8954TIP3   OH248352   3.418   6.128  16.948  0.3843 -0.2912  0.2008
 8954TIP3    H148353   3.502   6.116  16.993  0.4433 -0.9755 -0.0885
 8954TIP3    H248354   3.362   6.059  16.983  0.1498 -0.2575 -0.1099
 8955TIP3   OH248355   4.254   2.747   0.312  0.0526 -0.1949 -0.5774
 8955TIP3    H148356   4.330   2.796   0.281 -0.4762  1.2283  0.2672
 8955TIP3    H248357   4.183   2.811   0.314 -0.2881 -0.5232  2.0686
 8956TIP3   OH248358   1.267   4.107  13.530 -0.0444  0.1254  0.2341
 8956TIP3    H148359   1.208   4.158  13.586 -1.0639 -2.1712  1.3798
 8956TIP3    H248360   1.352   4.111  13.575 -0.6512 -0.9864  1.5356
 8957TIP3   OH248361   3.133   4.708  16.697 -0.0142  0.2455  0.0847
 8957TIP3    H148362   3.116   4.652  16.772 -0.9571 -0.4892 -0.6594
 8957TIP3    H248363   3.173   4.650  16.632  0.5407  0.8136 -0.1028
 8958TIP3   OH248364   3.967   6.797  16.548  0.0588 -0.0338 -0.2306
 8958TIP3    H148365   4.057   6.773  16.569 -0.3210 -1.4357 -0.0959
 8958TIP3    H248366   3.944   6.863  16.614  1.2355  0.9511 -0.7803
 8959TIP3   OH248367   5.763   3.765   2.204 -0.4352 -0.4817  0.1205
 8959TIP3    H148368   5.712   3.843   2.225  1.7491  1.1366 -0.2386
 8959TIP3    H248369   5.817   3.750   2.282 -0.2303 -1.1634 -0.1408
 8960TIP3   OH248370   4.682   4.464   0.565  0.8476 -0.4363  0.1343
 8960TIP3    H148371   4.713   4.555   0.566 -0.4285  0.0365 -0.7729
 8960TIP3    H248372   4.590   4.470   0.588 -0.6815 -0.8243 -4.7703
 8961TIP3   OH248373   4.321   6.652  13.012  0.0454 -0.2942  0.5337
 8961TIP3    H148374   4.363   6.631  13.095  0.5180 -1.1594  0.0829
 8961TIP3    H248375   4.227   6.645  13.030  0.0668  1.1561  1.4085
 8962TIP3   OH248376   0.696   6.747   5.407  0.2396  0.0421  0.1366
 8962TIP3    H148377   0.783   6.731   5.370  0.0366 -1.7405  0.3564
 8962TIP3    H248378   0.639   6.686   5.361 -0.7974  0.7763  0.4296
 8963TIP3   OH248379   1.261   3.948  16.470  0.3003 -0.6192  0.3660
 8963TIP3    H148380   1.265   4.032  16.425  1.2543 -1.1004 -0.4909
 8963TIP3    H248381   1.231   3.887  16.402 -0.1938 -1.0176  0.9274
 8964TIP3   OH248382   3.449   1.332  12.688 -0.1516  0.2230  0.4239
 8964TIP3    H148383   3.494   1.370  12.764  0.0045 -1.7323  1.3826
 8964TIP3    H248384   3.515   1.332  12.619  0.1964  0.6396  0.7471
 8965TIP3   OH248385   5.342   3.936  13.547 -0.2057  0.0648 -0.2418
 8965TIP3    H148386   5.424   3.920  13.501  1.3161  0.3566  2.1861
 8965TIP3    H248387   5.351   4.025  13.583 -1.8517  0.3453 -0.4101
 8966TIP3   OH248388   3.382   5.689   4.687  0.6352  0.2015  0.1473
 8966TIP3    H148389   3.356   5.598   4.703 -1.8632  1.1153  1.8960
 8966TIP3    H248390   3.304   5.729   4.649  1.1754  1.9538  0.8049
 8967TIP3   OH248391   0.154   2.338  12.719 -0.3702 -0.0588 -0.8312
 8967TIP3    H148392   0.188   2.377  12.639 -1.9921  1.3471 -0.8863
 8967TIP3    H248393   0.092   2.402  12.753  0.8397 -0.2054  2.0201
 8968TIP3   OH248394   6.699   6.050   3.871  0.5742 -0.0916  0.8864
 8968TIP3    H148395   6.713   6.083   3.959 -1.7644 -0.7268  1.5609
 8968TIP3    H248396   6.728   5.958   3.875  2.9506  0.5374  0.1905
 8969TIP3   OH248397   2.821   5.704   3.107  0.0887  0.1698  0.2687
 8969TIP3    H148398   2.877   5.671   3.037 -0.6928 -1.0282  0.1826
 8969TIP3    H248399   2.881   5.717   3.181  0.5070 -1.1713  0.2023
 8970TIP3   OH248400   1.389   2.503  17.090 -0.7922  0.3261 -0.4537
 8970TIP3    H148401   1.484   2.491  17.084 -0.7937 -0.0312  0.1470
 8970TIP3    H248402   1.378   2.597  17.105 -0.4189  0.1140  1.3666
 8971TIP3   OH248403   5.950   5.235  13.077 -0.1277 -0.3188 -0.1361
 8971TIP3    H148404   5.899   5.244  12.996  0.4938 -0.6746 -0.5758
 8971TIP3    H248405   5.937   5.318  13.123  0.3540  0.3117 -1.0990
 8972TIP3   OH248406   1.300   0.610   6.100 -0.2016  0.0840  0.0217
 8972TIP3    H148407   1.253   0.526   6.100  0.5897 -0.3765 -1.0107
 8972TIP3    H248408   1.363   0.602   6.028 -0.8189  1.9672 -0.7689
 8973TIP3   OH248409   0.825   6.673   0.765  0.5647  0.5998 -0.4242
 8973TIP3    H148410   0.892   6.617   0.804  0.9844  1.6715  0.4408
 8973TIP3    H248411   0.871   6.719   0.694 -0.0263 -0.8398 -1.7968
 8974TIP3   OH248412   1.382   5.482   2.918 -0.2798  0.2791  0.3440
 8974TIP3    H148413   1.318   5.551   2.904  1.6857  2.1119 -0.0569
 8974TIP3    H248414   1.421   5.503   3.003  0.0074 -0.6359  0.4458
 8975TIP3   OH248415   3.482   1.965   3.536 -0.0635  0.2597  0.6369
 8975TIP3    H148416   3.551   1.947   3.600 -1.0193 -0.0188  1.6251
 8975TIP3    H248417   3.460   2.057   3.550 -0.1677  0.2404  0.6002
 8976TIP3   OH248418   1.964   5.102  14.750 -0.4980  0.1625 -0.6351
 8976TIP3    H148419   1.931   5.155  14.677  0.7680  0.8348 -0.7629
 8976TIP3    H248420   1.958   5.159  14.826 -0.0900  0.1342 -0.5769
 8977TIP3   OH248421   6.277   6.234  15.960 -0.0439  0.3431 -0.1820
 8977TIP3    H148422   6.357   6.284  15.944 -0.5695  0.9043 -1.1173
 8977TIP3    H248423   6.247   6.207  15.873 -0.5146 -0.4322  0.2076
 8978TIP3   OH248424   4.044   0.724   2.478  0.0615  0.4127 -0.3133
 8978TIP3    H148425   3.994   0.642   2.480  0.7178  0.0175  1.2021
 8978TIP3    H248426   4.136   0.696   2.477  0.3303  1.0852  1.5154
 8979TIP3   OH248427   6.714   6.752   4.429 -0.7030 -0.0043  0.2907
 8979TIP3    H148428   6.756   6.838   4.440 -2.1816  0.9520 -0.9408
 8979TIP3    H248429   6.777   6.701   4.378  1.0241 -0.3852  2.6602
 8980TIP3   OH248430   1.623   6.168  15.880  0.1594 -0.0133  0.2692
 8980TIP3    H148431   1.578   6.243  15.917  0.3132 -0.5095  1.5291
 8980TIP3    H248432   1.553   6.112  15.846 -0.0337  0.1754  0.3548
 8981TIP3   OH248433   6.178   3.970  16.032 -0.1218  0.0244  0.5125
 8981TIP3    H148434   6.225   3.973  16.116 -0.4556  1.1060  0.6795
 8981TIP3    H248435   6.131   3.887  16.034  0.4779 -0.3118  1.0669
 8982TIP3   OH248436   1.483   2.485  11.723 -0.5640 -0.6038  0.1220
 8982TIP3    H148437   1.548   2.554  11.731 -0.4852 -0.5911 -0.5953
 8982TIP3    H248438   1.399   2.528  11.741 -0.4244 -0.5149  0.5553
 8983TIP3   OH248439   3.232   3.344  13.097 -0.0194  0.5796 -0.5160
 8983TIP3    H148440   3.318   3.302  13.089  0.4305  1.5142 -0.7836
 8983TIP3    H248441   3.170   3.277  13.069  0.7712  0.4729 -2.1966
 8984TIP3   OH248442   1.914   3.554   5.590  0.0445 -0.6671 -0.0131
 8984TIP3    H148443   1.901   3.498   5.513 -0.4223 -0.7084  0.0909
 8984TIP3    H248444   1.986   3.513   5.638  1.1871  0.0421 -1.0522
 8985TIP3   OH248445   4.670   3.261  10.826  0.8478  0.3795  0.8150
 8985TIP3    H148446   4.764   3.242  10.829  0.6872 -0.5699  0.1522
 8985TIP3    H248447   4.649   3.263  10.732  0.0483 -0.2128  0.9746
 8986TIP3   OH248448   2.835   3.431   0.639  0.3962  0.2819 -0.2346
 8986TIP3    H148449   2.787   3.419   0.721  2.4180 -1.1643  0.8328
 8986TIP3    H248450   2.768   3.454   0.575 -1.3337  0.8291  1.6721
 8987TIP3   OH248451   2.295   1.349  12.776 -0.1799 -0.6473  0.1594
 8987TIP3    H148452   2.385   1.350  12.745  0.2198 -2.1553  1.1151
 8987TIP3    H248453   2.249   1.412  12.721  1.4098 -0.0056 -0.4811
 8988TIP3   OH248454   3.943   5.605  17.031  0.5436 -0.1919  0.1863
 8988TIP3    H148455   3.963   5.686  17.078 -2.1298  0.2236  0.7743
 8988TIP3    H248456   3.935   5.538  17.099 -0.5162 -0.2017  0.0763
 8989TIP3   OH248457   4.101   1.421  13.997  0.1679 -0.3868 -0.1500
 8989TIP3    H148458   4.139   1.460  13.919 -1.0965 -0.6894 -0.9418
 8989TIP3    H248459   4.147   1.338  14.008  0.4135 -0.2984 -0.5136
 8990TIP3   OH248460   2.348   2.948  10.685  0.3654  0.0594  0.4659
 8990TIP3    H148461   2.365   3.017  10.749  1.1274  1.6996 -1.4038
 8990TIP3    H248462   2.268   2.905  10.716  0.0170  1.6162  1.8399
 8991TIP3   OH248463   1.876   5.588   4.110  0.4347  0.0738  0.1099
 8991TIP3    H148464   1.896   5.495   4.111  2.9482  0.5475 -0.1820
 8991TIP3    H248465   1.823   5.602   4.189 -0.4384 -1.6573 -0.1302
 8992TIP3   OH248466   0.313   0.468   3.349  0.0302 -0.4664  0.5278
 8992TIP3    H148467   0.224   0.498   3.364  0.4721  0.3869  1.5584
 8992TIP3    H248468   0.329   0.405   3.420 -0.2753 -1.8417 -0.5771
 8993TIP3   OH248469   2.361   3.623   2.633 -0.2291 -0.4348 -0.2999
 8993TIP3    H148470   2.381   3.583   2.548  0.0474 -1.0750  0.0557
 8993TIP3    H248471   2.398   3.711   2.627 -0.4401 -0.3878 -0.9371
 8994TIP3   OH248472   3.388   0.620   5.714 -0.0996 -0.2351  0.1783
 8994TIP3    H148473   3.355   0.642   5.627  3.8080  1.2749 -1.1287
 8994TIP3    H248474   3.355   0.691   5.770  0.3182  0.8580 -0.9015
 8995TIP3   OH248475   6.040   1.898  11.417  0.2334 -0.5467  0.0117
 8995TIP3    H148476   6.120   1.938  11.453 -0.3725  0.1585  0.6042
 8995TIP3    H248477   5.982   1.890  11.493 -0.9644  0.6909 -0.7450
 8996TIP3   OH248478   3.640   6.653   2.060 -0.5404 -0.1068 -0.2156
 8996TIP3    H148479   3.704   6.603   2.111 -1.0147 -1.7955 -1.1918
 8996TIP3    H248480   3.557   6.608   2.076 -0.7791 -0.4022 -2.0940
 8997TIP3   OH248481   2.484   3.265   4.547 -0.0512  0.4072  0.1089
 8997TIP3    H148482   2.533   3.186   4.523 -0.9901 -0.6305  1.4561
 8997TIP3    H248483   2.402   3.259   4.498  0.3339  1.1563 -0.6562
 8998TIP3   OH248484   3.863   3.800   5.673 -0.4245  0.5104 -0.5291
 8998TIP3    H148485   3.936   3.853   5.707  1.5585 -1.2836 -1.7613
 8998TIP3    H248486   3.792   3.816   5.734  1.3326  1.5065  1.3961
 8999TIP3   OH248487   2.550   4.957   5.553 -0.4651 -0.1592 -0.7054
 8999TIP3    H148488   2.582   4.998   5.634 -0.1628 -0.6659 -0.5693
 8999TIP3    H248489   2.616   4.979   5.487 -0.4656 -0.1587 -0.7057
 9000TIP3   OH248490   6.800   1.010   5.328  0.5221  0.0800  0.0432
 9000TIP3    H148491   6.818   0.918   5.346 -0.0094 -0.0248  0.0527
 9000TIP3    H248492   6.856   1.031   5.254 -1.2187 -0.9704 -1.6838
 9001TIP3   OH248493   4.027   3.463  14.802 -0.2052  0.4576 -0.5100
 9001TIP3    H148494   4.034   3.406  14.725 -2.1234  0.8025 -0.9948
 9001TIP3    H248495   4.041   3.551  14.769 -0.2023  0.5351 -0.3045
 9002TIP3   OH248496   0.196   4.256  12.991 -0.4654 -0.2550  0.3714
 9002TIP3    H148497   0.197   4.350  12.971 -0.4116 -0.5122 -0.9901
 9002TIP3    H248498   0.218   4.215  12.907  1.1282 -1.4237  1.3188
 9003TIP3   OH248499   0.380   3.557  14.767  0.1421  0.4010 -0.5280
 9003TIP3    H148500   0.306   3.556  14.707 -0.1676 -3.4651 -0.3147
 9003TIP3    H248501   0.342   3.577  14.852 -0.3459  0.2226 -0.7018
 9004TIP3   OH248502   4.356   1.276   4.666  0.2155 -0.5745 -0.1591
 9004TIP3    H148503   4.262   1.288   4.669  0.0555 -0.4919 -2.9969
 9004TIP3    H248504   4.389   1.350   4.614  1.8945 -0.4168  1.0475
 9005TIP3   OH248505   0.317   2.371   4.740 -0.2282  0.0604 -0.6975
 9005TIP3    H148506   0.412   2.374   4.747 -0.3307  1.4857  0.5561
 9005TIP3    H248507   0.286   2.425   4.812 -1.9771  0.0982 -1.4301
 9006TIP3   OH248508   3.854   5.458  13.980  0.6408 -0.0566  0.1228
 9006TIP3    H148509   3.826   5.515  14.051 -0.3806  0.3641 -0.5911
 9006TIP3    H248510   3.882   5.518  13.911 -0.3426 -0.3938 -0.5977
 9007TIP3   OH248511   1.447   5.464   0.364 -0.2716  0.3656  0.2458
 9007TIP3    H148512   1.469   5.421   0.282 -1.9315 -0.3032  0.1110
 9007TIP3    H248513   1.528   5.463   0.414  0.1565 -1.4703 -0.4053
 9008TIP3   OH248514   0.867   5.906  15.052 -0.1348 -0.0045  0.2605
 9008TIP3    H148515   0.882   5.846  14.979  0.5195 -0.1124  0.4724
 9008TIP3    H248516   0.936   5.885  15.115  1.9034  2.7821 -0.8061
 9009TIP3   OH248517   0.478   3.768   0.788 -0.5438  0.3385  0.1250
 9009TIP3    H148518   0.555   3.724   0.823  0.4014  1.2389 -0.7592
 9009TIP3    H248519   0.489   3.860   0.812 -1.4694  0.4439  0.1967
 9010TIP3   OH248520   2.980   1.902  15.627 -0.0826  0.1514  0.3809
 9010TIP3    H148521   2.966   1.969  15.560 -0.7928  0.9477  1.2831
 9010TIP3    H248522   2.900   1.904  15.679 -0.4369 -1.9702 -0.0235
 9011TIP3   OH248523   1.594   6.636  13.206  0.1714 -0.5273 -0.1392
 9011TIP3    H148524   1.551   6.585  13.276 -1.7737 -0.5931 -1.3060
 9011TIP3    H248525   1.525   6.695  13.174  2.3089  3.0310  1.1928
 9012TIP3   OH248526   1.591   4.937  14.899 -0.0795  0.8420 -0.1028
 9012TIP3    H148527   1.606   4.951  14.806  1.7943 -0.9779 -0.1606
 9012TIP3    H248528   1.540   4.856  14.903 -0.1998  0.9400  0.4505
 9013TIP3   OH248529   3.073   2.804  17.006 -0.2835 -0.1720 -0.0156
 9013TIP3    H148530   2.981   2.779  17.016  0.2482 -2.1701  0.3007
 9013TIP3    H248531   3.085   2.814  16.911 -1.9069  4.8998  0.0483
 9014TIP3   OH248532   3.168   1.747  14.183 -0.4511 -0.2267 -0.0146
 9014TIP3    H148533   3.147   1.730  14.275  1.2010  0.0222  0.4491
 9014TIP3    H248534   3.199   1.663  14.150 -1.1545 -0.3438 -0.3909
 9015TIP3   OH248535   0.911   4.172  12.037  0.4143 -0.4259 -0.0042
 9015TIP3    H148536   0.852   4.102  12.010  0.1939 -0.4283  0.4721
 9015TIP3    H248537   0.997   4.130  12.042  0.4371 -0.4554 -0.5630
 9016TIP3   OH248538   0.648   0.215   3.738  0.2332  0.1318  0.2873
 9016TIP3    H148539   0.640   0.308   3.715 -1.1153  0.0130  0.2102
 9016TIP3    H248540   0.599   0.169   3.669  0.4369 -0.5995  0.6248
 9017TIP3   OH248541   6.721   5.421   0.376 -0.4267  0.2985  0.1697
 9017TIP3    H148542   6.744   5.335   0.410 -0.3978  1.0914  2.3285
 9017TIP3    H248543   6.786   5.438   0.307  1.1021 -0.4136  1.3813
 9018TIP3   OH248544   2.827   3.720  11.925 -0.0812 -0.1664  0.4844
 9018TIP3    H148545   2.921   3.710  11.911 -0.2475  0.8101 -1.8045
 9018TIP3    H248546   2.815   3.814  11.941 -0.7630 -0.0322 -0.6513
 9019TIP3   OH248547   0.866   2.669  12.546  0.2793 -0.2341  0.0651
 9019TIP3    H148548   0.952   2.630  12.559 -0.2400 -1.1103  1.1448
 9019TIP3    H248549   0.859   2.736  12.614 -0.6988 -1.6858  1.4801
 9020TIP3   OH248550   2.140   5.988   0.787 -0.5568 -0.6070  0.1640
 9020TIP3    H148551   2.110   5.937   0.862  0.2455 -0.7722  0.3886
 9020TIP3    H248552   2.064   6.040   0.761 -1.0720 -1.1236  0.6009
 9021TIP3   OH248553   6.681   0.242   1.608 -0.1682  0.0344  0.6137
 9021TIP3    H148554   6.709   0.333   1.622 -2.0925  0.7588  0.0263
 9021TIP3    H248555   6.625   0.223   1.683 -2.9731  0.7411 -1.1853
 9022TIP3   OH248556   6.549   1.751  15.911  0.2445  0.6218 -0.0970
 9022TIP3    H148557   6.507   1.669  15.935  0.4886  0.1825 -1.1174
 9022TIP3    H248558   6.626   1.725  15.860  0.9338  1.4569  0.4863
 9023TIP3   OH248559   0.101   6.351  14.219 -0.3981  0.1044  0.3145
 9023TIP3    H148560   0.049   6.403  14.158  0.9020 -0.1186 -1.0477
 9023TIP3    H248561   0.157   6.415  14.263  0.5504  0.0089 -0.6992
 9024TIP3   OH248562   2.668   3.428  14.632  0.5172  0.0639  0.3187
 9024TIP3    H148563   2.678   3.335  14.655 -1.4227  0.2936  2.4448
 9024TIP3    H248564   2.576   3.447  14.650  0.8460  2.4042 -0.1824
 9025TIP3   OH248565   0.458   6.521   4.667 -0.2967 -0.5053 -0.1350
 9025TIP3    H148566   0.527   6.528   4.600 -1.0120 -0.2545 -0.8578
 9025TIP3    H248567   0.378   6.505   4.617 -0.6859 -1.3282  0.7336
 9026TIP3   OH248568   5.940   1.773   3.537 -0.1596 -0.3244  0.0801
 9026TIP3    H148569   6.015   1.831   3.522 -1.0194  0.7401 -0.2483
 9026TIP3    H248570   5.915   1.743   3.449 -1.4497  1.0862 -0.0809
 9027TIP3   OH248571   3.592   4.338  10.903 -0.2805  0.1225 -0.6040
 9027TIP3    H148572   3.612   4.327  10.996 -1.0291  1.4182 -0.2699
 9027TIP3    H248573   3.497   4.340  10.899 -0.2488  0.2623 -1.3681
 9028TIP3   OH248574   2.092   0.659  14.003  0.0733  0.3438  0.0659
 9028TIP3    H148575   2.164   0.613  13.960  2.0126  1.6402  1.7515
 9028TIP3    H248576   2.051   0.592  14.058 -0.1435 -0.4409 -1.0114
 9029TIP3   OH248577   6.314   6.433   1.460 -0.4729  0.1286  0.1302
 9029TIP3    H148578   6.322   6.367   1.528 -0.1071 -0.8860 -0.8710
 9029TIP3    H248579   6.380   6.499   1.482  0.6778 -0.9333 -0.0574
 9030TIP3   OH248580   4.484   3.824   0.180  0.1107 -0.2401  0.0009
 9030TIP3    H148581   4.515   3.765   0.111  0.8519  2.1956 -1.8852
 9030TIP3    H248582   4.526   3.908   0.160 -1.4605  1.1358  2.1120
 9031TIP3   OH248583   1.860   0.487  17.210 -0.4601 -0.8983 -0.0981
 9031TIP3    H148584   1.870   0.412  17.151 -2.2828 -1.1734 -0.1263
 9031TIP3    H248585   1.819   0.451  17.288  1.7278 -0.4946  1.3170
 9032TIP3   OH248586   1.562   4.342  11.841 -0.3668 -0.5757  0.5257
 9032TIP3    H148587   1.631   4.322  11.778 -0.8355  0.4175 -0.3289
 9032TIP3    H248588   1.594   4.306  11.924  0.3319 -1.7405 -0.2323
 9033TIP3   OH248589   5.769   5.764   5.648 -0.1582  0.2679  0.2624
 9033TIP3    H148590   5.698   5.787   5.709  0.1579 -0.0414  0.7501
 9033TIP3    H248591   5.727   5.707   5.583 -0.1646 -0.6727  1.0725
 9034TIP3   OH248592   3.912   4.045   3.351  0.0382 -0.5037  0.2662
 9034TIP3    H148593   3.994   3.995   3.347  0.9969  1.0408 -0.5331
 9034TIP3    H248594   3.877   4.027   3.438  0.8828 -1.7364  0.3746
 9035TIP3   OH248595   0.859   1.040   4.684 -0.3355  0.6764  0.3780
 9035TIP3    H148596   0.860   1.112   4.620  1.1921  0.3743  0.0293
 9035TIP3    H248597   0.858   0.961   4.630 -1.9077  0.3921  0.7621
 9036TIP3   OH248598   5.568   6.249   6.768  0.4389 -0.2286 -1.1373
 9036TIP3    H148599   5.508   6.205   6.708 -0.7884 -0.5339  0.2783
 9036TIP3    H248600   5.581   6.336   6.728 -3.3990  1.0471 -0.0318
 9037TIP3   OH248601   3.408   0.403  13.279 -0.7393 -0.3371 -0.1584
 9037TIP3    H148602   3.474   0.371  13.341 -1.1473 -0.3796  0.2618
 9037TIP3    H248603   3.368   0.477  13.324 -0.9927 -0.3260 -0.4035
 9038TIP3   OH248604   5.464   3.335  15.496  0.0371 -0.1145  0.2767
 9038TIP3    H148605   5.412   3.366  15.422 -0.5056 -0.9952  0.2750
 9038TIP3    H248606   5.443   3.394  15.568 -1.3850 -0.7642  0.4242
 9039TIP3   OH248607   1.151   6.482  13.963 -0.7564 -0.3049  0.1176
 9039TIP3    H148608   1.237   6.470  14.002 -2.0509  0.4254  3.5233
 9039TIP3    H248609   1.169   6.508  13.873  2.4966 -1.9569  0.1397
 9040TIP3   OH248610   6.123   5.671  12.270 -0.6439 -0.0107  0.2237
 9040TIP3    H148611   6.192   5.605  12.280 -0.4971  0.2920  1.4027
 9040TIP3    H248612   6.168   5.754  12.283 -0.8787  0.3186 -0.9858
 9041TIP3   OH248613   6.353   2.934   1.235 -0.2441 -0.2715  0.1815
 9041TIP3    H148614   6.371   2.880   1.158  1.2898  1.7971 -1.0234
 9041TIP3    H248615   6.281   2.991   1.208  0.2502  0.4156  0.2658
 9042TIP3   OH248616   3.970   3.800  13.413  0.1979  0.7497  0.1154
 9042TIP3    H148617   3.992   3.812  13.320 -1.3249  0.0954 -0.3582
 9042TIP3    H248618   3.949   3.887  13.445 -0.7108  0.7865 -0.5563
 9043TIP3   OH248619   1.074   4.907  16.211  0.2480  0.1882 -0.4390
 9043TIP3    H148620   0.999   4.877  16.262 -0.2098 -0.9897 -1.7156
 9043TIP3    H248621   1.143   4.844  16.230 -0.3582 -1.1267 -2.2511
 9044TIP3   OH248622   5.300   3.342   5.048  0.1815  0.3466  0.1355
 9044TIP3    H148623   5.272   3.375   4.963 -0.4228 -1.2259 -0.3103
 9044TIP3    H248624   5.391   3.316   5.034  1.0616  2.7533  0.8031
 9045TIP3   OH248625   4.565   5.982   2.211  0.1281 -0.0731  1.1147
 9045TIP3    H148626   4.542   6.037   2.286 -0.9557  0.1315  0.6479
 9045TIP3    H248627   4.635   6.030   2.167  0.4955 -0.0001  1.7651
 9046TIP3   OH248628   2.176   4.564  12.096 -0.3149 -0.2138  0.3446
 9046TIP3    H148629   2.202   4.567  12.188  0.3685  0.3163  0.1499
 9046TIP3    H248630   2.256   4.540  12.050 -0.0763  1.6133 -0.2938
 9047TIP3   OH248631   2.043   5.332   0.783 -0.1453  0.2042  0.3176
 9047TIP3    H148632   2.075   5.326   0.873  0.2496 -0.1012  0.1611
 9047TIP3    H248633   2.117   5.303   0.730  0.1466  1.8591 -0.2056
 9048TIP3   OH248634   1.076   4.576  16.914 -0.4146  0.2543  0.2395
 9048TIP3    H148635   1.021   4.500  16.933  0.2644 -0.0482  0.9964
 9048TIP3    H248636   1.161   4.556  16.952  0.9478 -0.2168 -2.7175
 9049TIP3   OH248637   4.164   5.622   0.943  0.0267  0.4011  0.5020
 9049TIP3    H148638   4.205   5.666   1.017 -1.5778  0.0924  1.6492
 9049TIP3    H248639   4.136   5.537   0.979 -2.1718  0.8553  0.0443
 9050TIP3   OH248640   1.779   3.193  17.233  0.2698 -0.1514 -0.6722
 9050TIP3    H148641   1.839   3.263  17.259  0.4156 -0.2959 -0.6120
 9050TIP3    H248642   1.754   3.215  17.143  0.7681 -0.3221 -0.8609
 9051TIP3   OH248643   1.688   6.105   4.528 -0.1994 -0.0776  0.0055
 9051TIP3    H148644   1.707   6.164   4.601  0.6923  0.1042 -0.3575
 9051TIP3    H248645   1.672   6.020   4.569  1.9505 -0.3779  0.3428
 9052TIP3   OH248646   3.641   1.359  14.998 -0.0210  0.0924 -0.2163
 9052TIP3    H148647   3.623   1.444  15.039 -0.1413 -0.0224 -0.0265
 9052TIP3    H248648   3.722   1.373  14.950  0.2100  0.1886  0.1919
 9053TIP3   OH248649   6.424   5.360   6.089  0.3728 -0.2427 -0.1838
 9053TIP3    H148650   6.376   5.440   6.066  0.5738 -0.7627 -2.6767
 9053TIP3    H248651   6.476   5.385   6.165 -2.4809  0.8281  1.5852
 9054TIP3   OH248652   2.334   1.176  11.924 -0.5464  0.1488 -0.2237
 9054TIP3    H148653   2.354   1.259  11.968 -0.1402  0.3672 -0.8136
 9054TIP3    H248654   2.299   1.120  11.994  2.7662 -0.5433  1.0641
 9055TIP3   OH248655   2.778   2.727   4.102  0.9225 -0.0622 -0.0761
 9055TIP3    H148656   2.849   2.790   4.098 -0.8072  2.0219  0.3722
 9055TIP3    H248657   2.753   2.712   4.010  2.9617 -2.1747 -0.3881
 9056TIP3   OH248658   4.563   3.353  12.948 -0.1737  0.0742  0.3585
 9056TIP3    H148659   4.527   3.388  13.030  1.1818 -0.3190  1.1538
 9056TIP3    H248660   4.645   3.401  12.936  1.9942 -2.9962  1.7158
 9057TIP3   OH248661   3.110   1.046   5.490  0.3072 -0.0382 -0.3397
 9057TIP3    H148662   3.159   1.078   5.415  1.1985  0.3465  0.3747
 9057TIP3    H248663   3.176   1.000   5.543 -0.1435  0.3082  0.5436
 9058TIP3   OH248664   5.308   4.248   0.596  0.3563 -0.6044 -0.6487
 9058TIP3    H148665   5.252   4.204   0.660 -1.5962  0.9752 -1.1548
 9058TIP3    H248666   5.347   4.321   0.643 -0.3132 -0.0206 -0.9655
 9059TIP3   OH248667   0.284   2.009   5.587 -0.6214 -0.1644  0.8994
 9059TIP3    H148668   0.204   2.006   5.639 -0.3817  0.5996  1.3256
 9059TIP3    H248669   0.260   2.058   5.509  0.0453  2.3751  2.1909
 9060TIP3   OH248670   2.779   3.809  10.920  0.2072  0.1553  0.2598
 9060TIP3    H148671   2.861   3.759  10.914 -0.0418 -0.1311 -0.9693
 9060TIP3    H248672   2.732   3.787  10.840 -1.2411  0.0525  1.1069
 9061TIP3   OH248673   2.173   4.704  13.607 -0.2180  0.1383  0.1504
 9061TIP3    H148674   2.222   4.732  13.530 -2.5622 -0.2388 -1.5672
 9061TIP3    H248675   2.240   4.670  13.666  1.5417 -1.0749 -2.3629
 9062TIP3   OH248676   3.245   1.765  12.877 -0.7126  0.1432  0.0841
 9062TIP3    H148677   3.310   1.804  12.818  0.6142  1.6483  2.3675
 9062TIP3    H248678   3.274   1.675  12.889 -0.3725  0.1394 -0.6815
 9063TIP3   OH248679   0.019   4.195   0.823  0.0836  0.3898 -0.1178
 9063TIP3    H148680  -0.064   4.188   0.870 -0.2957 -2.4956 -1.0106
 9063TIP3    H248681   0.081   4.144   0.875  0.0714 -1.4249 -1.7432
 9064TIP3   OH248682   1.968   2.351  11.676  0.2658  0.5586  0.2392
 9064TIP3    H148683   2.058   2.323  11.657  0.7541  0.1609  2.7984
 9064TIP3    H248684   1.920   2.269  11.685  0.1865  0.6966  1.1492
 9065TIP3   OH248685   4.932   1.101  11.864 -0.5350  0.4391  0.6868
 9065TIP3    H148686   4.921   1.146  11.948  0.1332 -0.2896  1.1828
 9065TIP3    H248687   5.001   1.036  11.881  1.1181  1.6622 -0.9572
 9066TIP3   OH248688   5.110   1.260   3.307  0.5431 -0.0196  0.4636
 9066TIP3    H148689   5.020   1.251   3.277  0.4916  3.3906 -0.9091
 9066TIP3    H248690   5.108   1.332   3.370  2.1859 -0.5272  1.1613
 9067TIP3   OH248691   2.922   2.783  11.839 -0.3451  0.1105  0.2197
 9067TIP3    H148692   2.988   2.814  11.777 -1.0116 -0.6374 -0.9135
 9067TIP3    H248693   2.960   2.798  11.925  0.7480  0.8905 -0.3785
 9068TIP3   OH248694   5.797   6.513   0.990  0.3378  0.0205 -0.4765
 9068TIP3    H148695   5.840   6.473   0.914  0.5985  1.4661 -1.1410
 9068TIP3    H248696   5.804   6.607   0.973 -0.9465  0.3337  0.6175
 9069TIP3   OH248697   5.872   4.841  14.313 -0.0820  0.0975 -0.1373
 9069TIP3    H148698   5.958   4.869  14.345  0.3017 -1.6219  0.4693
 9069TIP3    H248699   5.878   4.849  14.218  0.4140  0.8891 -0.0476
 9070TIP3   OH248700   1.667   0.986  16.425 -1.0356  0.1511  0.1791
 9070TIP3    H148701   1.649   0.965  16.517  0.5344  1.5826  0.8717
 9070TIP3    H248702   1.701   1.075  16.427 -0.7262  0.1251 -1.7919
 9071TIP3   OH248703   6.457   1.661   4.085  0.3511  0.3893 -0.0269
 9071TIP3    H148704   6.362   1.670   4.082  0.3508  0.2523 -1.8688
 9071TIP3    H248705   6.473   1.572   4.053  1.0574 -0.1573  1.7445
 9072TIP3   OH248706   6.162   0.176  15.539  0.0759 -0.7601  0.4207
 9072TIP3    H148707   6.193   0.187  15.629  0.9782  2.0286 -0.1207
 9072TIP3    H248708   6.128   0.262  15.515  1.5286 -0.8851 -2.4953
 9073TIP3   OH248709   2.045   2.028  13.319 -0.5188  0.3991 -0.3684
 9073TIP3    H148710   1.962   2.035  13.367 -0.5805 -1.1091 -0.2190
 9073TIP3    H248711   2.044   1.941  13.281  0.8284  0.5082 -0.7172
 9074TIP3   OH248712   3.180   4.989   5.000  0.5401  0.1205 -0.0211
 9074TIP3    H148713   3.178   4.957   5.090 -0.2300 -2.6169 -0.8995
 9074TIP3    H248714   3.088   5.006   4.978  0.6299 -0.0540 -0.5487
 9075TIP3   OH248715   2.005   6.684  10.910  0.2925  0.6201 -0.1250
 9075TIP3    H148716   1.964   6.770  10.922  0.8468  0.7743  0.7153
 9075TIP3    H248717   2.098   6.703  10.902  0.3944  0.1169 -0.1326
 9076TIP3   OH248718   4.514   1.803   0.623  0.2768  0.1939  0.9829
 9076TIP3    H148719   4.598   1.847   0.611  1.9858 -3.3220 -2.0071
 9076TIP3    H248720   4.535   1.725   0.675 -0.8928 -1.1814 -0.5080
 9077TIP3   OH248721   2.114   0.744  11.287 -0.1755 -0.3770  0.1421
 9077TIP3    H148722   2.052   0.765  11.217  0.1537  0.4762  0.0953
 9077TIP3    H248723   2.175   0.682  11.247  1.2094  1.5825 -0.9979
 9078TIP3   OH248724   3.173   1.338  13.780  0.2618 -0.0809 -0.0272
 9078TIP3    H148725   3.110   1.387  13.833 -0.0719 -1.1217  0.5737
 9078TIP3    H248726   3.169   1.249  13.814  0.0695 -0.7871 -1.7878
 9079TIP3   OH248727   5.706   2.225   0.169  0.1384  0.1847 -0.2284
 9079TIP3    H148728   5.760   2.155   0.207  1.1977  0.0063 -1.9539
 9079TIP3    H248729   5.618   2.209   0.203  0.8259 -0.5265  1.3244
 9080TIP3   OH248730   2.723   6.683  16.387 -0.1553 -0.3977  0.2233
 9080TIP3    H148731   2.792   6.712  16.446 -0.8750  0.5916  0.6004
 9080TIP3    H248732   2.652   6.654  16.445 -0.4195 -0.5303 -0.1618
 9081TIP3   OH248733   6.561   4.800  13.812  0.7064  0.5525 -0.6037
 9081TIP3    H148734   6.569   4.705  13.823 -0.4649  0.4879 -0.0960
 9081TIP3    H248735   6.599   4.817  13.726  0.7964 -0.3948 -0.7731
 9082TIP3   OH248736   0.402   5.421   0.804  0.4374 -0.0882  0.4645
 9082TIP3    H148737   0.469   5.374   0.854 -0.6668 -1.0281  1.0870
 9082TIP3    H248738   0.406   5.383   0.716  0.1529 -0.7507  0.7305
 9083TIP3   OH248739   6.048   5.450   2.832  0.1597  0.5650  0.0812
 9083TIP3    H148740   6.058   5.355   2.832 -1.6724  0.2975 -1.8521
 9083TIP3    H248741   5.969   5.466   2.885 -0.1544  0.8963 -0.4751
 9084TIP3   OH248742   0.343   5.183   5.127  0.4393 -0.5880  0.5173
 9084TIP3    H148743   0.410   5.151   5.188  0.8259  0.5533  0.7153
 9084TIP3    H248744   0.373   5.271   5.103 -0.0536 -0.7582 -0.8067
 9085TIP3   OH248745   0.794   0.080  12.526  0.3779 -0.9736 -0.1030
 9085TIP3    H148746   0.867   0.133  12.558  0.5487 -0.8905 -0.6231
 9085TIP3    H248747   0.802  -0.003  12.573 -0.8346 -0.0148  1.9506
 9086TIP3   OH248748   5.978   6.399   1.662  0.6396  0.1182 -0.1004
 9086TIP3    H148749   5.883   6.392   1.659  0.5185  0.9145  1.1825
 9086TIP3    H248750   6.005   6.406   1.570 -0.6134  0.8127 -0.4255
 9087TIP3   OH248751   0.254   0.075  11.839 -0.1420 -0.9227 -0.6691
 9087TIP3    H148752   0.247   0.111  11.927 -0.5951 -2.5949  0.0146
 9087TIP3    H248753   0.346   0.090  11.814  0.1886 -1.1161  0.3953
 9088TIP3   OH248754   4.834   3.344  13.310  0.2507 -0.2100  0.6703
 9088TIP3    H148755   4.784   3.385  13.380  1.3388 -1.4089  2.2079
 9088TIP3    H248756   4.926   3.364  13.331  0.6501 -1.4196  0.1519
 9089TIP3   OH248757   2.062   5.681  16.979  0.4892 -0.1903 -0.4261
 9089TIP3    H148758   2.128   5.730  17.028  0.4296  1.0445 -1.5107
 9089TIP3    H248759   1.982   5.692  17.029  0.4900  0.8072 -0.6293
 9090TIP3   OH248760   5.966   1.884   5.737 -0.0073  0.6250 -0.2856
 9090TIP3    H148761   6.024   1.896   5.812  2.6096 -0.0219 -2.0411
 9090TIP3    H248762   5.946   1.972   5.707  1.7964  0.8996 -0.8048
 9091TIP3   OH248763   3.010   5.813   0.863  0.0410 -0.4145 -0.1111
 9091TIP3    H148764   3.019   5.906   0.842  2.5483 -0.7235 -0.6223
 9091TIP3    H248765   3.017   5.809   0.959 -0.0839 -0.0884 -0.0886
 9092TIP3   OH248766   2.287   2.393   2.008 -0.2574  0.2270 -0.0131
 9092TIP3    H148767   2.321   2.306   2.029  0.1635  0.6822  1.2902
 9092TIP3    H248768   2.354   2.453   2.041  0.2397  1.0452 -2.3160
 9093TIP3   OH248769   0.171   1.329   0.746  0.2878  1.1246  0.1070
 9093TIP3    H148770   0.090   1.284   0.722  0.9619  0.4626 -0.9822
 9093TIP3    H248771   0.205   1.364   0.664  1.0973  1.4230  0.5535
 9094TIP3   OH248772   5.791   5.153  11.631 -0.3963 -0.3024  0.1554
 9094TIP3    H148773   5.814   5.155  11.724 -2.4723 -0.6814  0.7475
 9094TIP3    H248774   5.774   5.245  11.609  2.0449  0.0639 -0.4557
 9095TIP3   OH248775   2.231   6.003  16.206 -0.4968 -0.3573 -0.3324
 9095TIP3    H148776   2.260   5.925  16.159  0.1749 -0.1478 -0.2807
 9095TIP3    H248777   2.272   5.996  16.292 -2.1357 -0.9933  0.4293
 9096TIP3   OH248778   6.479   1.448   5.054  0.3169  0.1691 -0.5994
 9096TIP3    H148779   6.527   1.441   5.137  0.2984  1.7473 -0.4250
 9096TIP3    H248780   6.545   1.433   4.987  1.2776  2.9632 -0.3867
 9097TIP3   OH248781   5.385   6.488  13.193 -0.3337 -0.0957 -0.1233
 9097TIP3    H148782   5.455   6.546  13.221  0.1556 -1.2772  1.2430
 9097TIP3    H248783   5.423   6.400  13.197 -1.4867 -0.6510 -0.6717
 9098TIP3   OH248784   5.514   1.077  12.736 -0.2770 -0.0354 -0.0795
 9098TIP3    H148785   5.498   1.085  12.830 -1.0423 -3.7483  0.2535
 9098TIP3    H248786   5.601   1.115  12.723  0.3327 -0.4324  2.3335
 9099TIP3   OH248787   0.307   5.567   1.572 -0.2173 -0.2125 -0.2823
 9099TIP3    H148788   0.338   5.641   1.623  1.3555 -1.0194 -0.0167
 9099TIP3    H248789   0.212   5.569   1.583 -0.1585  1.3912  0.2002
 9100TIP3   OH248790   0.328   4.481  14.485  0.4120  0.0496  0.2792
 9100TIP3    H148791   0.370   4.567  14.476 -0.5663  0.5958  0.8073
 9100TIP3    H248792   0.235   4.499  14.480  0.1947 -0.9832  0.4615
 9101TIP3   OH248793   5.267   2.583   1.943 -0.0632  0.1569  0.1084
 9101TIP3    H148794   5.230   2.667   1.970  0.7061  1.0158 -1.3719
 9101TIP3    H248795   5.203   2.548   1.880 -0.2982 -0.2869  0.5926
 9102TIP3   OH248796   2.349   5.953  15.748  0.3834 -0.1840  0.0973
 9102TIP3    H148797   2.421   5.950  15.686  0.1157  1.9002 -0.3808
 9102TIP3    H248798   2.271   5.964  15.693 -0.2315 -1.5230  0.6556
 9103TIP3   OH248799   5.239   0.813   3.563  0.1148 -0.6671 -0.0935
 9103TIP3    H148800   5.218   0.891   3.512  0.4831 -1.5332 -1.6212
 9103TIP3    H248801   5.327   0.830   3.597 -1.0021  0.9038  2.2958
 9104TIP3   OH248802   1.013   4.714  17.233 -0.1118  0.2535 -0.3338
 9104TIP3    H148803   1.011   4.627  17.273  2.1326  0.0502 -0.5647
 9104TIP3    H248804   0.948   4.710  17.163 -0.1477 -1.1859 -0.2378
 9105TIP3   OH248805   4.704   4.959  16.048  0.4612  0.4515  0.4339
 9105TIP3    H148806   4.655   4.887  16.007  1.2353 -0.3410  0.8730
 9105TIP3    H248807   4.673   5.038  16.002 -1.7870  0.0935  1.1813
 9106TIP3   OH248808   4.530   6.120  11.255  0.4356 -0.0044  0.0951
 9106TIP3    H148809   4.586   6.062  11.306 -0.0537 -0.7067 -0.1568
 9106TIP3    H248810   4.538   6.088  11.165  0.1096  0.2755 -0.0382
 9107TIP3   OH248811   2.855   6.160  15.772  0.5273  0.1294  0.0183
 9107TIP3    H148812   2.926   6.129  15.716 -0.8696 -1.0663 -1.1798
 9107TIP3    H248813   2.872   6.119  15.857  0.7611 -0.9540 -0.5304
 9108TIP3   OH248814   0.175   2.916   1.900  0.0356 -0.8507  0.2115
 9108TIP3    H148815   0.190   2.841   1.957 -0.4456 -3.9726 -3.3979
 9108TIP3    H248816   0.080   2.926   1.897  0.1012  0.2455  0.9393
 9109TIP3   OH248817   1.953   4.484  17.202  0.4140  0.2222 -1.0398
 9109TIP3    H148818   1.903   4.403  17.212  0.7257  0.3200  4.3281
 9109TIP3    H248819   1.888   4.551  17.183 -0.6474 -0.5879 -0.3497
 9110TIP3   OH248820   0.498   6.334   1.148  0.1827 -0.4813 -0.7372
 9110TIP3    H148821   0.414   6.353   1.107  0.9580  1.9685 -1.3820
 9110TIP3    H248822   0.494   6.240   1.169 -3.2663 -0.1989  0.6470
 9111TIP3   OH248823   4.368   3.426   1.744 -0.3837  0.3244  0.5446
 9111TIP3    H148824   4.299   3.491   1.751 -0.7963 -0.2684  3.1782
 9111TIP3    H248825   4.449   3.474   1.763 -0.3100  0.6215 -0.4915
 9112TIP3   OH248826   4.496   3.782   4.199  0.1194  0.0375  0.1297
 9112TIP3    H148827   4.543   3.835   4.134  0.8764  0.6096  1.1157
 9112TIP3    H248828   4.509   3.829   4.282 -2.0940  0.1346  0.4750
 9113TIP3   OH248829   1.002   4.266   4.536 -0.2937 -0.0107 -0.0222
 9113TIP3    H148830   1.006   4.301   4.446  0.9512  0.4182  0.1858
 9113TIP3    H248831   0.969   4.177   4.525  0.6198 -0.2512 -0.9964
 9114TIP3   OH248832   2.525   4.687   0.345 -0.5107  0.2553  0.0219
 9114TIP3    H148833   2.519   4.651   0.257  0.4737 -0.0959  0.0827
 9114TIP3    H248834   2.439   4.671   0.384 -0.8906  0.2369 -0.8019
 9115TIP3   OH248835   4.970   4.537  12.966  0.6703 -0.1928 -0.0852
 9115TIP3    H148836   5.050   4.496  12.934  0.6731  1.0729 -1.8783
 9115TIP3    H248837   4.901   4.503  12.909  0.3835  0.7952 -0.3577
 9116TIP3   OH248838   0.077   6.406   4.625  0.2974  0.0192 -1.0066
 9116TIP3    H148839   0.127   6.467   4.570  2.7236 -1.6718 -0.8604
 9116TIP3    H248840   0.140   6.376   4.690 -0.7248 -2.7144 -1.1536
 9117TIP3   OH248841   6.282   1.268  11.920  1.3439  0.2208  0.0687
 9117TIP3    H148842   6.232   1.208  11.976  1.3403 -0.3411 -0.5238
 9117TIP3    H248843   6.223   1.342  11.905  1.0628  0.0208  0.1884
 9118TIP3   OH248844   3.586   4.927   0.758 -0.2631  0.1844 -0.4042
 9118TIP3    H148845   3.639   5.005   0.773 -1.6353  1.0207  0.2949
 9118TIP3    H248846   3.496   4.958   0.758 -1.0000 -1.6131  1.6876
 9119TIP3   OH248847   4.612   0.825  15.411  0.3864 -0.0868 -0.4150
 9119TIP3    H148848   4.614   0.760  15.341 -0.4226 -0.7591  0.1526
 9119TIP3    H248849   4.619   0.909  15.367 -0.9274 -0.4558 -1.3867
 9120TIP3   OH248850   2.875   0.266  11.305  0.6222 -0.2210 -0.1099
 9120TIP3    H148851   2.861   0.229  11.218 -0.9145 -1.2101  0.5128
 9120TIP3    H248852   2.809   0.224  11.360 -0.4358  2.5331  0.9339
 9121TIP3   OH248853   2.812   6.261   4.263 -0.2858  0.7879 -0.2179
 9121TIP3    H148854   2.870   6.186   4.248 -1.3332 -0.2821  0.8617
 9121TIP3    H248855   2.870   6.338   4.253  0.8119 -0.1366 -1.3043
 9122TIP3   OH248856   3.757   2.829   3.110 -0.4826  0.2844 -0.5590
 9122TIP3    H148857   3.796   2.875   3.035  0.7499 -0.6741 -0.5479
 9122TIP3    H248858   3.800   2.743   3.110 -3.0516 -1.0886 -0.8641
 9123TIP3   OH248859   1.676   0.361   4.336 -0.0933  0.0849 -0.0046
 9123TIP3    H148860   1.626   0.373   4.256 -0.7031  2.4034  0.6294
 9123TIP3    H248861   1.765   0.386   4.313  0.0065 -0.4618 -0.2348
 9124TIP3   OH248862   3.493   3.269  13.499  0.5441  0.3844 -0.1232
 9124TIP3    H148863   3.575   3.309  13.527  1.0651 -0.7228 -0.0072
 9124TIP3    H248864   3.473   3.311  13.415  0.0272  2.2819  0.9010
 9125TIP3   OH248865   5.905   3.311  14.966 -0.2914  0.2650  0.9636
 9125TIP3    H148866   5.842   3.336  14.898 -0.5802 -1.7714  0.3912
 9125TIP3    H248867   5.987   3.350  14.938 -0.4239 -0.4694 -0.5686
 9126TIP3   OH248868   5.668   0.709   5.620 -0.6210 -0.4826  0.2874
 9126TIP3    H148869   5.658   0.674   5.708 -0.7862  0.4281  0.6428
 9126TIP3    H248870   5.751   0.756   5.622 -1.3956  0.9426  0.4657
 9127TIP3   OH248871   0.891   4.495   0.115  0.2363 -0.2484 -0.1131
 9127TIP3    H148872   0.812   4.509   0.062  1.0671 -0.6786 -1.5219
 9127TIP3    H248873   0.860   4.498   0.205 -2.1129 -3.7893 -0.5627
 9128TIP3   OH248874   3.292   5.816  10.802  0.3310 -0.1598  0.3641
 9128TIP3    H148875   3.335   5.901  10.795  0.2406 -0.2001 -0.7712
 9128TIP3    H248876   3.200   5.837  10.812  0.2971 -0.1273 -0.0180
 9129TIP3   OH248877   1.831   1.935   4.101 -0.1956  0.9342 -0.2517
 9129TIP3    H148878   1.839   1.891   4.186 -0.2983  0.5719 -0.4287
 9129TIP3    H248879   1.763   1.887   4.055 -1.0221  1.8973 -0.0705
 9130TIP3   OH248880   3.368   3.770   6.107 -0.3390  0.4926  0.0607
 9130TIP3    H148881   3.347   3.750   6.198  0.1295 -0.5315 -0.0468
 9130TIP3    H248882   3.397   3.861   6.108 -0.5877  0.5671  0.8899
 9131TIP3   OH248883   0.557   1.516   3.126 -0.2098  0.1276  0.0044
 9131TIP3    H148884   0.533   1.606   3.148 -1.1801  0.0452 -0.6511
 9131TIP3    H248885   0.575   1.518   3.032  0.4510 -0.2323  0.1138
 9132TIP3   OH248886   2.476   2.917   2.316  0.1747 -0.5785 -0.4488
 9132TIP3    H148887   2.554   2.919   2.262  0.1728  0.6857 -0.4121
 9132TIP3    H248888   2.405   2.946   2.258 -0.1448 -0.9964 -0.2767
 9133TIP3   OH248889   3.952   4.101   5.507 -0.4708 -0.0869  0.0357
 9133TIP3    H148890   3.915   4.169   5.451  1.4439 -0.7151 -2.1579
 9133TIP3    H248891   3.927   4.126   5.595 -0.8830  2.7815 -0.7952
 9134TIP3   OH248892   3.065   4.048  10.632  0.2164 -0.2703 -0.2762
 9134TIP3    H148893   3.139   4.095  10.670 -0.7003  0.4140  0.7231
 9134TIP3    H248894   3.063   3.964  10.679 -0.8290  0.5174  1.1438
 9135TIP3   OH248895   2.050   2.938  17.039  0.3266  0.4168 -0.3718
 9135TIP3    H148896   2.128   2.882  17.035  0.3310  0.3731  0.2311
 9135TIP3    H248897   1.987   2.893  16.983  0.7367  0.4670 -0.8899
 9136TIP3   OH248898   1.393   0.625  11.145 -0.1448  0.2363  0.1116
 9136TIP3    H148899   1.430   0.710  11.123 -0.1957 -0.0837 -1.3000
 9136TIP3    H248900   1.466   0.564  11.138 -0.0250  0.1994  1.4839
 9137TIP3   OH248901   6.797   4.949   0.328 -0.9108 -0.0847 -0.6459
 9137TIP3    H148902   6.857   4.902   0.386  0.3042  0.0173 -1.7730
 9137TIP3    H248903   6.782   5.033   0.371 -0.4398 -0.2066 -0.2381
 9138TIP3   OH248904   1.674   1.612   1.741 -0.1192 -0.0146  0.2937
 9138TIP3    H148905   1.597   1.669   1.747  0.0028  0.0925  0.8930
 9138TIP3    H248906   1.637   1.524   1.731 -0.3082  0.2506 -1.6883
 9139TIP3   OH248907   1.029   0.989   3.626  0.5473  0.3681  0.1863
 9139TIP3    H148908   1.123   0.987   3.646  0.5825 -0.3767 -0.0055
 9139TIP3    H248909   0.990   0.934   3.693  0.3170  0.2471 -0.0445
 9140TIP3   OH248910   6.321   0.113   2.654  0.3119 -0.1234 -0.5406
 9140TIP3    H148911   6.337   0.019   2.652  1.5919  0.0579  0.2981
 9140TIP3    H248912   6.226   0.121   2.648  0.0820 -1.5202  0.6622
 9141TIP3   OH248913   2.514   6.630   0.658  0.0433 -0.4110 -0.5073
 9141TIP3    H148914   2.452   6.620   0.729 -1.9243  0.3008 -2.0425
 9141TIP3    H248915   2.509   6.723   0.634  2.0801 -0.2190 -0.3668
 9142TIP3   OH248916   3.374   6.203  12.720 -0.4105 -0.0014 -0.3956
 9142TIP3    H148917   3.325   6.268  12.771 -1.2637 -1.3573  0.5888
 9142TIP3    H248918   3.448   6.180  12.776  0.1072  0.3782 -0.9089
 9143TIP3   OH248919   6.567   1.022   2.384  0.6517 -0.7496  0.0290
 9143TIP3    H148920   6.540   1.075   2.459  1.1893  0.6410 -0.7437
 9143TIP3    H248921   6.556   0.931   2.415 -0.3880 -0.2227  1.3274
 9144TIP3   OH248922   6.752   6.119   4.902 -0.6366  0.1961 -0.6205
 9144TIP3    H148923   6.722   6.035   4.937  1.9009 -1.6071 -2.4205
 9144TIP3    H248924   6.684   6.145   4.840 -0.9564 -1.0587 -0.8134
 9145TIP3   OH248925   1.819   4.632  16.872 -0.0461 -0.0519  0.0639
 9145TIP3    H148926   1.907   4.596  16.878  0.2124  0.7961  4.0123
 9145TIP3    H248927   1.825   4.719  16.913 -2.5258  0.4797 -0.4933
 9146TIP3   OH248928   3.722   3.380  15.197 -0.5760 -0.3741  0.3592
 9146TIP3    H148929   3.647   3.322  15.212 -1.0700 -0.0557 -0.7804
 9146TIP3    H248930   3.743   3.415  15.283 -0.6648 -1.7637  0.9674
 9147TIP3   OH248931   4.243   6.725   2.990  0.1596 -0.2144  0.2624
 9147TIP3    H148932   4.293   6.807   2.982 -0.9313  0.4468  0.0119
 9147TIP3    H248933   4.153   6.750   2.968 -0.3714 -1.2856  1.1485
 9148TIP3   OH248934   2.340   3.316  11.104 -0.1584 -0.5143 -0.2735
 9148TIP3    H148935   2.274   3.378  11.073 -0.4382 -1.0728 -0.8094
 9148TIP3    H248936   2.421   3.344  11.062  0.1043  0.5428  0.8571
 9149TIP3   OH248937   4.494   3.564  13.915  0.7369 -0.3287  0.6674
 9149TIP3    H148938   4.533   3.589  13.832  0.5575  1.0922  0.9777
 9149TIP3    H248939   4.435   3.637  13.937  0.6055 -0.7774  1.9171
 9150TIP3   OH248940   5.375   0.951   0.480 -0.1763  0.2337 -0.5682
 9150TIP3    H148941   5.375   0.979   0.388  1.7301  0.2021 -0.6079
 9150TIP3    H248942   5.440   1.007   0.523  0.2169 -0.9060  0.3778
 9151TIP3   OH248943   1.784   2.731   3.488 -0.3563 -0.4179 -0.5959
 9151TIP3    H148944   1.753   2.802   3.545  1.0183  0.6443 -1.1318
 9151TIP3    H248945   1.743   2.749   3.403  0.0622 -0.2062 -0.7548
 9152TIP3   OH248946   5.439   2.366  16.838 -0.3355  0.1218  0.3679
 9152TIP3    H148947   5.407   2.353  16.748  1.4991 -0.9396 -0.1921
 9152TIP3    H248948   5.502   2.295  16.851  2.4709  2.5207  1.0120
 9153TIP3   OH248949   1.906   0.735  17.139  0.1864  0.6693 -0.7662
 9153TIP3    H148950   2.001   0.740  17.147  0.4798 -2.0266 -1.6217
 9153TIP3    H248951   1.885   0.644  17.161 -2.2063  1.2386 -0.5167
 9154TIP3   OH248952   2.188   0.947  13.878 -0.0356  0.2614 -0.2291
 9154TIP3    H148953   2.129   0.947  13.803 -1.8448  1.4099  1.1185
 9154TIP3    H248954   2.174   0.862  13.919 -1.2236  0.7468  0.4064
 9155TIP3   OH248955   0.100   3.760   4.259 -0.2132  0.7100 -0.0329
 9155TIP3    H148956   0.032   3.716   4.309 -1.2914  1.3626 -0.8945
 9155TIP3    H248957   0.150   3.809   4.325  0.7208 -1.3582  0.8810
 9156TIP3   OH248958   6.229   0.610   6.279  0.1625 -0.3303  0.2758
 9156TIP3    H148959   6.238   0.706   6.283 -0.4627 -0.2615  0.0881
 9156TIP3    H248960   6.281   0.585   6.204 -0.0831 -0.0815  0.0196
 9157TIP3   OH248961   3.822   4.858   0.006  0.1980 -0.3595  1.1541
 9157TIP3    H148962   3.789   4.889  -0.078  1.1876 -1.2360  0.4212
 9157TIP3    H248963   3.900   4.912   0.022 -0.6437  0.6246  2.1148
 9158TIP3   OH248964   0.714   6.746   1.803 -0.1643  0.2501  0.0483
 9158TIP3    H148965   0.651   6.699   1.748  1.8655 -1.3496 -1.0794
 9158TIP3    H248966   0.699   6.711   1.891 -0.2405 -0.8317 -0.3740
 9159TIP3   OH248967   6.278   0.158  11.434  0.3011 -0.1719  0.0246
 9159TIP3    H148968   6.237   0.150  11.347  0.7606  1.2501 -0.3528
 9159TIP3    H248969   6.210   0.196  11.489 -0.2031 -1.6615  0.4905
 9160TIP3   OH248970   4.617   2.527   5.119  0.2034 -0.1549  0.4774
 9160TIP3    H148971   4.687   2.566   5.171 -1.3244  0.5196  2.1581
 9160TIP3    H248972   4.549   2.505   5.183 -1.5977  0.3070 -1.1597
 9161TIP3   OH248973   6.092   5.120   4.915  0.0648  0.3460 -0.1133
 9161TIP3    H148974   6.059   5.063   4.846  0.0949 -0.1351  0.2643
 9161TIP3    H248975   6.086   5.067   4.995  0.6805  0.6512  0.1401
 9162TIP3   OH248976   3.974   0.810  17.112 -0.3315  0.4127  0.2731
 9162TIP3    H148977   4.007   0.895  17.083  2.2649 -0.5154  0.2758
 9162TIP3    H248978   4.015   0.747  17.053 -1.5814 -0.9118  0.7593
 9163TIP3   OH248979   4.325   3.501  17.156  0.2416  0.2933  0.3856
 9163TIP3    H148980   4.312   3.408  17.173  0.0075  0.4670  1.1764
 9163TIP3    H248981   4.416   3.507  17.124 -0.4156 -0.4677 -1.8269
 9164TIP3   OH248982   6.815   1.294   2.960 -0.9639 -0.2234 -0.3953
 9164TIP3    H148983   6.883   1.227   2.956 -1.6283 -0.8555 -1.6736
 9164TIP3    H248984   6.781   1.288   3.049 -1.6518 -2.2809 -0.7269
 9165TIP3   OH248985   1.909   0.941   1.156  0.0745 -0.6656  0.6953
 9165TIP3    H148986   1.833   0.982   1.198  0.6007 -0.0062  1.0123
 9165TIP3    H248987   1.871   0.884   1.089 -0.6637  1.4883 -0.8521
 9166TIP3   OH248988   4.393   6.209   5.346  0.9519 -0.0379 -0.4623
 9166TIP3    H148989   4.373   6.274   5.414 -0.2179  1.6062 -2.2693
 9166TIP3    H248990   4.479   6.236   5.313 -0.2871  1.8334 -2.4275
 9167TIP3   OH248991   6.229   0.815   0.822 -0.3013 -0.7287 -0.1612
 9167TIP3    H148992   6.309   0.837   0.774 -0.3009 -0.4815 -0.0505
 9167TIP3    H248993   6.218   0.721   0.809 -1.5972 -0.3067 -2.5980
 9168TIP3   OH248994   1.507   5.755  17.215 -1.2679  0.7559 -0.3112
 9168TIP3    H148995   1.435   5.720  17.267 -1.3468  0.3655 -0.6720
 9168TIP3    H248996   1.465   5.815  17.153 -1.4268 -0.1899 -1.1628
 9169TIP3   OH248997   4.629   1.398  16.288  0.2555 -0.0165  0.2904
 9169TIP3    H148998   4.673   1.326  16.333 -0.0282  0.9743  2.2492
 9169TIP3    H248999   4.696   1.465  16.278 -0.1199  0.4620  0.8917
 9170TIP3   OH249000   2.387   5.456   0.448  0.0688  0.0937 -0.0941
 9170TIP3    H149001   2.419   5.366   0.456 -0.3253 -0.0215  0.1590
 9170TIP3    H249002   2.392   5.474   0.354 -1.5331 -0.8058 -0.3754
 9171TIP3   OH249003   4.017   4.020  16.237  0.5093  0.3618  0.1746
 9171TIP3    H149004   3.962   4.027  16.315 -1.4098 -1.3910 -0.9297
 9171TIP3    H249005   3.974   4.077  16.173  0.3089 -0.5413 -0.5067
 9172TIP3   OH249006   6.165   3.314   5.498  0.3086 -0.5891  0.4674
 9172TIP3    H149007   6.091   3.359   5.538  0.6806  0.2512  0.2280
 9172TIP3    H249008   6.220   3.384   5.464  0.6076 -1.2476 -0.4337
 9173TIP3   OH249009   0.626   2.862   2.325  0.4758  0.1614 -0.2383
 9173TIP3    H149010   0.702   2.806   2.343  0.0759 -0.9345 -1.7755
 9173TIP3    H249011   0.555   2.825   2.377  0.4402 -0.2307 -0.5585
 9174TIP3   OH249012   3.216   2.986   5.115 -0.2925 -0.1810 -0.0297
 9174TIP3    H149013   3.238   3.031   5.196 -2.2828  0.1142  0.3912
 9174TIP3    H249014   3.159   3.047   5.068  1.1010 -0.1982 -1.8319
 9175TIP3   OH249015   3.734   3.096   3.214  0.1403  1.0603 -0.4527
 9175TIP3    H149016   3.791   3.154   3.165  2.4741 -0.4599  0.2538
 9175TIP3    H249017   3.764   3.008   3.192 -1.3835  0.2038  0.6341
 9176TIP3   OH249018   1.291   0.275   0.521  0.1002 -0.2181 -0.2947
 9176TIP3    H149019   1.333   0.190   0.527 -1.5179 -0.9486  3.4211
 9176TIP3    H249020   1.203   0.257   0.486 -0.5745 -0.2921  1.3600
 9177TIP3   OH249021   1.259   1.544  15.226 -0.1507 -0.0805 -0.2801
 9177TIP3    H149022   1.298   1.511  15.307 -0.1528  1.1166  0.2166
 9177TIP3    H249023   1.215   1.467  15.188 -1.4680 -0.3341  1.6192
 9178TIP3   OH249024   6.139   3.864  16.704  0.3732  0.5616 -0.2488
 9178TIP3    H149025   6.058   3.915  16.706  0.4433  0.6591  0.3863
 9178TIP3    H249026   6.129   3.806  16.629 -0.7840 -0.2191  0.4880
 9179TIP3   OH249027   1.194   1.140  10.913 -0.0128 -0.0850 -0.8437
 9179TIP3    H149028   1.267   1.193  10.946  0.7223 -2.5825  1.8944
 9179TIP3    H249029   1.226   1.105  10.830  0.6692  1.2413 -1.1714
 9180TIP3   OH249030   6.576   1.487  15.941  0.1955 -0.1323 -0.0235
 9180TIP3    H149031   6.644   1.442  15.991  0.1745 -0.2847 -0.1318
 9180TIP3    H249032   6.500   1.428  15.945 -0.6093  0.9519  1.8474
 9181TIP3   OH249033   6.710   2.369  10.997 -0.1674 -0.6141  0.1964
 9181TIP3    H149034   6.728   2.279  10.969 -0.4802 -0.1028 -1.7962
 9181TIP3    H249035   6.784   2.392  11.053  0.1469 -1.9495  0.3640
 9182TIP3   OH249036   6.060   0.038   1.100  0.4778  0.3199 -0.2877
 9182TIP3    H149037   6.055   0.098   1.025  0.3879  1.1562  0.3671
 9182TIP3    H249038   6.115   0.083   1.163 -0.1068 -0.0026  0.4760
 9183TIP3   OH249039   2.768   5.535  16.259  0.6006  0.4411  0.0885
 9183TIP3    H149040   2.810   5.517  16.175  3.0087  1.2170  1.0213
 9183TIP3    H249041   2.793   5.461  16.315  2.5704  1.8436  1.2238
 9184TIP3   OH249042   1.160   1.042  14.728  0.0680  0.1515  0.0266
 9184TIP3    H149043   1.087   1.068  14.672 -0.4581  0.2808  0.7669
 9184TIP3    H249044   1.182   1.120  14.778 -0.3777 -0.3316  0.9992
 9185TIP3   OH249045   5.991   2.046   5.014 -0.3266  0.4673 -0.7794
 9185TIP3    H149046   6.027   1.957   5.011 -2.2549 -0.3714 -0.9862
 9185TIP3    H249047   6.032   2.086   5.091 -0.7008 -1.2304  0.3615
 9186TIP3   OH249048   6.093   6.747  17.072 -0.2401 -0.2898  0.0821
 9186TIP3    H149049   6.015   6.698  17.047 -0.7967  0.0657  1.0805
 9186TIP3    H249050   6.116   6.713  17.158 -0.6264  1.1758  0.7874
 9187TIP3   OH249051   6.601   5.643  11.330  0.3863 -0.6563  0.2761
 9187TIP3    H149052   6.560   5.601  11.254 -0.4268 -0.5984  0.6723
 9187TIP3    H249053   6.694   5.623  11.321  0.1408 -1.6808 -0.0874
 9188TIP3   OH249054   0.314   5.591  11.381 -0.0155 -0.5679  0.2212
 9188TIP3    H149055   0.249   5.636  11.434  1.0729  0.7858  0.4948
 9188TIP3    H249056   0.264   5.545  11.314 -1.2203  2.9416 -1.5279
 9189TIP3   OH249057   3.860   0.111   3.589 -0.1636 -0.0987  0.0584
 9189TIP3    H149058   3.780   0.059   3.587 -0.8058  0.8292  0.6009
 9189TIP3    H249059   3.909   0.084   3.511 -1.0776 -0.5671 -0.3617
 9190TIP3   OH249060   4.759   1.909  13.779 -0.1217 -0.2659 -0.1725
 9190TIP3    H149061   4.787   1.900  13.870  2.3907  1.6025 -0.6709
 9190TIP3    H249062   4.809   1.843  13.731 -1.3789 -1.1922 -0.2557
 9191TIP3   OH249063   5.007   4.818   5.342 -0.8247  0.5412 -0.0277
 9191TIP3    H149064   5.089   4.820   5.390  0.5279  0.1255 -2.1659
 9191TIP3    H249065   5.008   4.898   5.289 -2.4307  1.1838  0.8326
 9192TIP3   OH249066   5.053   0.628   3.448  0.3265 -0.1519  0.2607
 9192TIP3    H149067   5.004   0.585   3.518 -0.0526  1.8742  1.3155
 9192TIP3    H249068   5.103   0.696   3.492 -1.0136  2.1662 -1.5246
 9193TIP3   OH249069   4.848   6.353  14.335  0.3340  0.5194 -0.0637
 9193TIP3    H149070   4.753   6.339  14.344 -0.2696  3.3329 -1.0105
 9193TIP3    H249071   4.872   6.302  14.258  0.1116 -1.9832  1.4139
 9194TIP3   OH249072   4.891   4.922   2.356  0.4089  0.3582 -0.5408
 9194TIP3    H149073   4.877   4.859   2.427  0.7580  0.2691 -0.5457
 9194TIP3    H249074   4.844   5.000   2.382  0.1750  0.1765 -0.4165
 9195TIP3   OH249075   0.546   1.749  16.675  0.0370  0.9470 -0.3136
 9195TIP3    H149076   0.563   1.828  16.624  0.4110  0.7324 -0.5300
 9195TIP3    H249077   0.624   1.737  16.728  0.4054  0.1810 -1.0062
 9196TIP3   OH249078   5.092   0.881   2.754  0.0271 -0.6552  0.3545
 9196TIP3    H149079   5.031   0.938   2.706 -0.4595  0.0133  1.7207
 9196TIP3    H249080   5.041   0.845   2.825  0.4996 -2.3915 -0.1464
 9197TIP3   OH249081   1.023   6.798   3.111  0.2117  0.1552 -0.5014
 9197TIP3    H149082   1.060   6.804   3.023 -1.2179 -1.3611 -1.2622
 9197TIP3    H249083   0.985   6.884   3.127  0.2129  0.3523 -1.5120
 9198TIP3   OH249084   6.394   2.046  13.683 -0.1523  0.6117  0.8113
 9198TIP3    H149085   6.485   2.068  13.702  0.5979 -1.4926 -0.0239
 9198TIP3    H249086   6.369   1.985  13.752  0.0237 -0.9476 -0.4360
 9199TIP3   OH249087   4.251   3.475  12.344 -0.0841  0.0513  0.1845
 9199TIP3    H149088   4.306   3.421  12.401 -0.5421 -0.4837  0.1245
 9199TIP3    H249089   4.162   3.464  12.379 -0.2898  0.1424 -0.3024
 9200TIP3   OH249090   4.557   2.281  14.271  0.4654 -0.1869 -0.0302
 9200TIP3    H149091   4.529   2.198  14.308 -1.5805  0.5279  0.1609
 9200TIP3    H249092   4.483   2.310  14.217  1.5689  0.9779 -0.9919
 9201TIP3   OH249093   1.627   2.065  11.539  0.0987 -0.2967  0.3613
 9201TIP3    H149094   1.605   2.084  11.448  0.3634 -0.5007  0.2548
 9201TIP3    H249095   1.698   2.002  11.534  0.1880 -0.2252  0.7101
 9202TIP3   OH249096   4.648   3.196  14.726  0.0692 -0.1872 -0.2007
 9202TIP3    H149097   4.580   3.151  14.775 -0.6714  1.2269  0.1416
 9202TIP3    H249098   4.696   3.246  14.792  0.1045  0.4536 -0.7031
 9203TIP3   OH249099   4.088   4.082   3.603 -0.1287 -0.2812  0.1013
 9203TIP3    H149100   4.009   4.100   3.654 -0.4385 -0.7016 -0.2196
 9203TIP3    H249101   4.099   4.161   3.549 -0.3098 -0.2020  0.1774
 9204TIP3   OH249102   4.567   3.153   0.251 -0.5390 -0.0302 -0.8120
 9204TIP3    H149103   4.585   3.109   0.168 -0.7578 -2.2341  0.2404
 9204TIP3    H249104   4.580   3.246   0.232  1.5213 -0.6320 -2.7623
 9205TIP3   OH249105   5.965   2.832  13.032 -0.1909  0.8210 -0.1567
 9205TIP3    H149106   6.015   2.885  13.094  0.2862 -0.0509  0.2309
 9205TIP3    H249107   5.937   2.756  13.083 -1.9153  1.2576 -0.3726
 9206TIP3   OH249108   3.848   6.527  15.852  0.2150 -0.3556  0.3298
 9206TIP3    H149109   3.876   6.477  15.929 -0.9701  2.0840  2.5075
 9206TIP3    H249110   3.929   6.557  15.812  0.8649 -1.8679  0.4450
 9207TIP3   OH249111   1.721   5.107  10.886 -0.4944  0.0530 -0.4305
 9207TIP3    H149112   1.628   5.106  10.865 -0.4643 -0.3401 -0.5463
 9207TIP3    H249113   1.734   5.033  10.945 -0.2831  0.2007 -0.2894
 9208TIP3   OH249114   0.766   6.229  13.920  0.4041  0.4374 -0.2192
 9208TIP3    H149115   0.698   6.192  13.863  0.8395  0.8862 -1.0399
 9208TIP3    H249116   0.814   6.290  13.864  1.6961 -0.1064  0.2643
 9209TIP3   OH249117   1.759   3.560  14.823  0.0269  0.5082  0.7455
 9209TIP3    H149118   1.728   3.524  14.740 -0.2874  0.7282  0.7655
 9209TIP3    H249119   1.776   3.652  14.803  0.9291  0.3370  0.6635
 9210TIP3   OH249120   2.344   2.159   1.714  0.0390 -0.0484 -0.1420
 9210TIP3    H149121   2.391   2.076   1.718 -1.0630 -0.6533  1.1912
 9210TIP3    H249122   2.266   2.141   1.662 -0.0022  0.2569 -0.1917
 9211TIP3   OH249123   5.773   5.557   2.915  0.0352 -0.0380  0.2863
 9211TIP3    H149124   5.761   5.464   2.896  0.6859 -0.2403  0.8183
 9211TIP3    H249125   5.704   5.601   2.867 -0.8907 -0.8839  0.8135
 9212TIP3   OH249126   4.872   4.500  16.454 -0.3064  0.7873  0.7696
 9212TIP3    H149127   4.866   4.568  16.387 -3.3007 -0.2356 -0.1826
 9212TIP3    H249128   4.814   4.532  16.525 -0.0656  0.1978  1.2426
 9213TIP3   OH249129   2.921   4.112  16.935  0.0179 -0.4353  0.5437
 9213TIP3    H149130   2.975   4.082  17.008  0.0168  0.5890  0.9749
 9213TIP3    H249131   2.919   4.207  16.943  2.2564 -0.0100 -2.3499
 9214TIP3   OH249132   0.712   5.590  12.954  0.1299  0.0608  0.2073
 9214TIP3    H149133   0.678   5.516  13.004  1.3066 -0.1610  0.7081
 9214TIP3    H249134   0.712   5.560  12.863  1.3085 -0.8717  0.4796
 9215TIP3   OH249135   1.098   1.882  15.995 -0.4575 -0.7519  0.0843
 9215TIP3    H149136   1.022   1.897  16.050 -0.8567  1.5307 -0.9669
 9215TIP3    H249137   1.157   1.955  16.015  0.3458 -1.0972 -0.9107
 9216TIP3   OH249138   4.628   3.979   2.246  0.3324  0.8934  0.1852
 9216TIP3    H149139   4.606   3.992   2.154 -1.4902 -0.4675  0.3745
 9216TIP3    H249140   4.716   3.943   2.244  0.5992  1.5407 -0.9647
 9217TIP3   OH249141   0.554   3.851   4.787 -0.0686 -0.0931 -0.2848
 9217TIP3    H149142   0.535   3.761   4.762  1.0032 -0.6400  0.7609
 9217TIP3    H249143   0.553   3.850   4.883  1.7445  0.5704 -0.2224
 9218TIP3   OH249144   1.984   6.073  15.144 -0.0861  0.9031  0.2185
 9218TIP3    H149145   1.911   6.135  15.152 -0.3078  0.5738  0.8293
 9218TIP3    H249146   1.943   5.987  15.143  0.2012  0.7683 -0.9610
 9219TIP3   OH249147   4.399   5.192   3.797  0.7412 -0.4318 -0.3547
 9219TIP3    H149148   4.345   5.271   3.811  0.3439 -0.9183  1.0488
 9219TIP3    H249149   4.439   5.176   3.882 -0.3936 -2.6143 -0.1773
 9220TIP3   OH249150   3.421   3.841  11.589 -0.2505  0.3122  0.5814
 9220TIP3    H149151   3.441   3.782  11.661  1.5350  0.2910  0.1106
 9220TIP3    H249152   3.478   3.917  11.603 -0.9372  0.9547 -0.0082
 9221TIP3   OH249153   1.588   2.714   5.353 -0.3322 -0.7340 -0.7337
 9221TIP3    H149154   1.558   2.787   5.299  0.7907  0.1907 -0.1491
 9221TIP3    H249155   1.522   2.707   5.422 -0.2016  0.0632 -0.5138
 9222TIP3   OH249156   6.303   5.236   1.364  0.5980 -0.2967  0.0273
 9222TIP3    H149157   6.265   5.247   1.277 -1.5008  0.5191  0.9736
 9222TIP3    H249158   6.383   5.288   1.362  0.0357  0.5686 -1.0902
 9223TIP3   OH249159   0.789   4.214   3.738  0.2488  0.2098  0.2102
 9223TIP3    H149160   0.813   4.122   3.730 -0.3989 -0.0527  1.1070
 9223TIP3    H249161   0.867   4.262   3.710  0.3539 -0.5951 -0.9510
 9224TIP3   OH249162   0.250   2.568   5.219  0.1555 -0.1321  0.3562
 9224TIP3    H149163   0.289   2.651   5.248 -1.1381  0.1970  1.2251
 9224TIP3    H249164   0.178   2.594   5.162  0.4206 -0.7055 -0.2592
 9225TIP3   OH249165   4.967   4.142  13.783  0.7525  0.2048 -0.9229
 9225TIP3    H149166   4.960   4.237  13.787 -1.7028  0.0595  1.7929
 9225TIP3    H249167   5.049   4.122  13.829  0.2282  0.9736  0.3902
 9226TIP3   OH249168   1.571   0.936  15.520 -0.0449 -0.4333  0.5585
 9226TIP3    H149169   1.566   0.841  15.512 -0.8127 -0.4381  0.9402
 9226TIP3    H249170   1.655   0.952  15.563  0.2429 -0.9148  0.1818
 9227TIP3   OH249171   3.399   0.931   4.612 -0.1085 -0.2899  0.1261
 9227TIP3    H149172   3.459   0.859   4.592 -2.8306 -2.0535 -2.5425
 9227TIP3    H249173   3.349   0.943   4.532 -2.1160  2.3088  1.6193
 9228TIP3   OH249174   1.281   4.949  13.235 -0.2203  0.6366 -0.1114
 9228TIP3    H149175   1.307   5.039  13.214  0.6289  0.2762 -0.6643
 9228TIP3    H249176   1.298   4.941  13.329  0.0796  0.9377 -0.1352
 9229TIP3   OH249177   5.984   4.082   2.509 -0.5667  0.0623  0.3947
 9229TIP3    H149178   6.075   4.085   2.539 -0.2977  0.7968 -0.4329
 9229TIP3    H249179   5.988   4.115   2.419 -1.8116  1.2368  0.7344
 9230TIP3   OH249180   0.838   3.432  16.088  0.4819  0.9777  0.0469
 9230TIP3    H149181   0.825   3.485  16.009  0.3875  0.2706 -0.4227
 9230TIP3    H249182   0.764   3.453  16.144  0.5336  1.4663 -0.0642
 9231TIP3   OH249183   5.609   2.909   4.348 -0.0252  0.0254 -0.2150
 9231TIP3    H149184   5.577   2.835   4.296  0.8976 -0.8062  0.3517
 9231TIP3    H249185   5.532   2.939   4.396 -0.3968 -0.6569 -0.3620
 9232TIP3   OH249186   2.385   0.022   1.456 -0.3445  0.1121 -0.0570
 9232TIP3    H149187   2.422  -0.043   1.515  1.6880 -0.8928 -2.2467
 9232TIP3    H249188   2.454   0.088   1.447  0.1521 -0.6169 -2.4639
 9233TIP3   OH249189   2.170   6.530   6.311  0.1035  0.7814  0.5044
 9233TIP3    H149190   2.241   6.540   6.374  0.2294  3.8961  0.0148
 9233TIP3    H249191   2.090   6.543   6.362 -0.0554 -0.7490  0.6921
 9234TIP3   OH249192   6.214   4.010  14.651 -0.2015  0.6663 -0.3962
 9234TIP3    H149193   6.199   3.935  14.709 -1.9566  0.9553 -0.4264
 9234TIP3    H249194   6.258   4.074  14.706 -0.6410  0.4239  0.2501
 9235TIP3   OH249195   4.683   2.698  14.340 -0.3722  0.4917  0.6099
 9235TIP3    H149196   4.619   2.627  14.348  0.7981 -0.4140  2.8706
 9235TIP3    H249197   4.711   2.715  14.430  0.4869  2.8294 -0.0331
 9236TIP3   OH249198   0.927   4.069   5.756 -0.3333  0.7558 -0.2147
 9236TIP3    H149199   1.007   4.121   5.750  0.1559  0.2098  1.1346
 9236TIP3    H249200   0.943   3.993   5.699  0.1707  0.5897  0.1394
 9237TIP3   OH249201   0.730   0.093  15.166 -0.8230  0.1437  0.0923
 9237TIP3    H149202   0.807   0.149  15.175 -0.1752 -0.4488 -1.3975
 9237TIP3    H249203   0.714   0.060  15.254  0.6739  0.2335  0.4349
 9238TIP3   OH249204   3.433   6.159   1.680 -0.6491 -0.4972 -0.5584
 9238TIP3    H149205   3.396   6.170   1.767  0.3343  0.8498 -0.2888
 9238TIP3    H249206   3.514   6.110   1.694 -0.4686 -0.2456 -0.7006
 9239TIP3   OH249207   4.110   3.851  14.412 -0.2420 -0.5389 -0.2630
 9239TIP3    H149208   4.149   3.881  14.330  1.1433  1.1511  0.9366
 9239TIP3    H249209   4.067   3.929  14.448 -3.2235 -1.8871 -0.6177
 9240TIP3   OH249210   4.073   3.507   4.652 -0.1375  0.2821 -0.1713
 9240TIP3    H149211   4.098   3.595   4.624 -1.2578  0.7608  0.2925
 9240TIP3    H249212   3.978   3.504   4.641 -0.2282 -0.5449  0.7261
 9241TIP3   OH249213   4.484   6.572  11.902  0.3341  0.4572  0.0313
 9241TIP3    H149214   4.397   6.546  11.872  0.3597 -0.1641  0.4776
 9241TIP3    H249215   4.470   6.655  11.947  0.1646  0.9657 -0.9361
 9242TIP3   OH249216   4.820   4.279   2.239 -0.4556  0.0043 -0.6896
 9242TIP3    H149217   4.795   4.310   2.152 -2.6155 -0.1177 -0.1886
 9242TIP3    H249218   4.885   4.211   2.223  0.3011  0.9986 -2.0946
 9243TIP3   OH249219   1.323   0.426   4.377 -0.1901  0.2240 -0.3063
 9243TIP3    H149220   1.398   0.367   4.363  1.2733  2.2056 -1.3323
 9243TIP3    H249221   1.259   0.398   4.312  0.4905 -0.2568 -0.7923
 9244TIP3   OH249222   1.509   5.106   1.156 -0.4619  0.6112  0.6348
 9244TIP3    H149223   1.548   5.045   1.219  1.7181  1.6963  0.4639
 9244TIP3    H249224   1.571   5.179   1.153 -1.9223  1.8697 -0.7150
 9245TIP3   OH249225   3.393   0.783   5.240  0.3117 -0.4548 -0.4157
 9245TIP3    H149226   3.298   0.791   5.236  0.3153  0.6515  0.8185
 9245TIP3    H249227   3.415   0.715   5.176 -1.2805 -0.6004 -0.8414
 9246TIP3   OH249228   3.818   1.564  14.345 -0.1600 -0.3127  0.2915
 9246TIP3    H149229   3.866   1.631  14.394 -0.6738  0.5735 -0.3901
 9246TIP3    H249230   3.857   1.566  14.257 -0.8429 -0.2058 -0.0129
 9247TIP3   OH249231   1.086   3.687  15.445 -0.5466  0.7363 -0.0654
 9247TIP3    H149232   1.052   3.728  15.525 -0.7312  0.3496  0.0567
 9247TIP3    H249233   1.181   3.700  15.450 -0.7501  3.5938 -1.3833
 9248TIP3   OH249234   5.130   1.962   6.719 -0.2992  0.3485  0.0095
 9248TIP3    H149235   5.071   2.018   6.769 -1.9083 -0.5929 -0.7638
 9248TIP3    H249236   5.145   2.009   6.637 -1.1249 -0.0296 -0.3690
 9249TIP3   OH249237   5.890   3.745   2.441 -0.0005 -0.2218  0.3781
 9249TIP3    H149238   5.938   3.680   2.493  0.5593  0.5563  0.8489
 9249TIP3    H249239   5.867   3.814   2.503 -0.3917  0.1448 -0.1613
 9250TIP3   OH249240   2.394   2.991   2.004  0.1299  0.0931  0.3083
 9250TIP3    H149241   2.481   2.972   1.970 -0.4001 -0.9577 -0.4911
 9250TIP3    H249242   2.360   2.907   2.034 -1.6683 -0.0724 -1.8987
 9251TIP3   OH249243   4.866   4.596  13.550 -0.2014 -0.0360  0.9897
 9251TIP3    H149244   4.830   4.684  13.555 -0.1791  0.2132 -1.7247
 9251TIP3    H249245   4.905   4.591  13.463 -0.6150 -2.8871  0.8730
 9252TIP3   OH249246   4.483   1.766   4.190  0.6694  0.2872 -0.2752
 9252TIP3    H149247   4.392   1.761   4.220  0.4460  0.4247 -0.9156
 9252TIP3    H249248   4.533   1.717   4.255  0.1093  0.0503 -0.0231
 9253TIP3   OH249249   0.245   1.443   5.362  0.1233  0.4103  0.6262
 9253TIP3    H149250   0.177   1.439   5.296  1.7692 -1.9750 -1.1137
 9253TIP3    H249251   0.308   1.507   5.329  0.0796  0.5445  0.8005
 9254TIP3   OH249252   4.147   3.774  15.571  0.4220 -0.1954  0.5006
 9254TIP3    H149253   4.052   3.766  15.561  0.4126 -1.2463  1.2809
 9254TIP3    H249254   4.172   3.699  15.626  1.4303  1.1505  1.9535
 9255TIP3   OH249255   5.931   4.742  16.031 -0.3183 -0.2454  0.0601
 9255TIP3    H149256   5.863   4.764  16.095 -0.0220 -1.8541  0.9830
 9255TIP3    H249257   6.011   4.737  16.083  0.1083 -0.5844 -0.6123
 9256TIP3   OH249258   6.537   6.285  15.614  0.5517  0.2970 -0.1977
 9256TIP3    H149259   6.454   6.292  15.566  0.3366  1.2366  0.2790
 9256TIP3    H249260   6.570   6.375  15.617  0.7216  0.2075  1.1135
 9257TIP3   OH249261   1.385   1.884   0.887 -0.2420 -0.0130 -0.3859
 9257TIP3    H149262   1.420   1.936   0.960  0.0026 -0.3148 -0.2839
 9257TIP3    H249263   1.425   1.922   0.809 -0.4265  0.2481 -0.3559
 9258TIP3   OH249264   0.629   1.221   0.154 -0.0707 -0.8223 -0.2535
 9258TIP3    H149265   0.674   1.157   0.100  1.3912  0.9840 -1.3080
 9258TIP3    H249266   0.680   1.224   0.235  0.3833 -0.4149 -0.5450
 9259TIP3   OH249267   1.957   1.017  12.519  0.3042  0.1639 -0.4633
 9259TIP3    H149268   2.047   0.990  12.537  0.2485 -0.1911 -0.6929
 9259TIP3    H249269   1.904   0.967  12.581  0.1606 -0.6263 -1.2013
 9260TIP3   OH249270   1.934   1.118  11.316  0.1021  0.3623  0.2066
 9260TIP3    H149271   1.956   1.027  11.335 -0.1095  0.5908  1.6253
 9260TIP3    H249272   2.017   1.165  11.321  0.1495  0.3206 -0.1369
 9261TIP3   OH249273   2.941   1.768   5.685  0.5754  0.3038 -0.4714
 9261TIP3    H149274   2.967   1.684   5.723 -1.7479 -1.0466 -1.5993
 9261TIP3    H249275   2.890   1.811   5.754 -0.0663 -0.2294 -0.5996
 9262TIP3   OH249276   5.299   2.142   6.042 -0.1015  0.5442 -0.4671
 9262TIP3    H149277   5.303   2.150   6.137  0.1773 -0.5308 -0.3723
 9262TIP3    H249278   5.378   2.186   6.011  0.1593  0.3192 -0.1426
 9263TIP3   OH249279   0.979   0.539  11.205  0.1469  0.0477  0.2606
 9263TIP3    H149280   1.000   0.613  11.261  0.9738  0.0566 -0.0451
 9263TIP3    H249281   0.987   0.462  11.262  2.7347 -0.1233 -0.1881
 9264TIP3   OH249282   1.926   3.347  16.737  0.3153  0.2983  0.0083
 9264TIP3    H149283   1.889   3.261  16.754  1.6383 -0.4133 -0.5723
 9264TIP3    H249284   1.851   3.406  16.735 -0.7100 -0.9913 -0.5402
 9265TIP3   OH249285   6.306   0.312   0.529  0.6191 -0.6609 -0.1180
 9265TIP3    H149286   6.222   0.269   0.542  0.1359 -0.9174 -3.3090
 9265TIP3    H249287   6.286   0.406   0.533  0.6875 -0.6968  1.5838
 9266TIP3   OH249288   2.137   6.669   3.123 -1.0948 -0.2848  0.5499
 9266TIP3    H149289   2.208   6.732   3.126  0.7094 -2.0596 -1.2497
 9266TIP3    H249290   2.096   6.683   3.038 -0.7893 -1.3623  0.2095
 9267TIP3   OH249291   3.951   4.104   4.089  0.4968 -0.0629 -0.3708
 9267TIP3    H149292   3.951   4.192   4.052  0.0871 -0.0301 -0.2967
 9267TIP3    H249293   3.918   4.048   4.018 -1.8712  0.2171  0.4144
 9268TIP3   OH249294   2.454   0.259   4.890 -0.1829  0.8251 -0.5360
 9268TIP3    H149295   2.443   0.353   4.874 -1.7454  0.5308 -1.3553
 9268TIP3    H249296   2.388   0.217   4.836  0.0542 -0.7328  0.3132
 9269TIP3   OH249297   2.405   1.511   0.566 -0.6155 -0.3687 -0.6813
 9269TIP3    H149298   2.390   1.588   0.510 -1.0349 -0.2235 -0.3737
 9269TIP3    H249299   2.500   1.499   0.564 -0.6823 -0.7789 -1.9662
 9270TIP3   OH249300   4.858   6.611  14.257  0.3710 -0.9289 -0.1688
 9270TIP3    H149301   4.888   6.591  14.346 -2.4766 -0.0290  1.1245
 9270TIP3    H249302   4.830   6.527  14.222  0.8823 -1.1937  0.0484
 9271TIP3   OH249303   3.503   0.494  16.144  0.9300 -0.1908 -0.4928
 9271TIP3    H149304   3.572   0.526  16.087  0.2784 -0.3312 -1.3804
 9271TIP3    H249305   3.548   0.469  16.225  1.7863  0.5384 -0.7277
 9272TIP3   OH249306   2.257   1.984   3.866  0.3057 -0.5249  0.4166
 9272TIP3    H149307   2.199   1.984   3.790 -1.3948 -1.1112  1.6621
 9272TIP3    H249308   2.240   2.068   3.910 -0.6650 -1.2641  1.5193
 9273TIP3   OH249309   3.531   4.197  16.679  0.5125 -0.1072 -0.0017
 9273TIP3    H149310   3.608   4.172  16.729  0.7491 -0.1871 -0.3974
 9273TIP3    H249311   3.488   4.264  16.731  2.1934  1.7647 -0.9104
 9274TIP3   OH249312   3.431   5.119  11.858  0.0174  0.2996 -0.4945
 9274TIP3    H149313   3.397   5.131  11.946 -0.1149  0.4048 -0.5586
 9274TIP3    H249314   3.514   5.167  11.857 -1.3226  2.7934 -1.2528
 9275TIP3   OH249315   4.050   2.923  14.330  0.0737  0.1756 -0.0814
 9275TIP3    H149316   4.033   2.839  14.287  0.0766  0.5314 -0.7908
 9275TIP3    H249317   4.145   2.933  14.325  0.0429  0.3660 -0.2671
 9276TIP3   OH249318   2.099   1.497  15.901  0.2096 -0.3829  0.5931
 9276TIP3    H149319   2.017   1.537  15.929  0.8443  0.3705  1.4353
 9276TIP3    H249320   2.104   1.514  15.808 -0.2876  0.1089  0.6517
 9277TIP3   OH249321   3.280   5.343  14.329 -0.2706 -0.2481 -0.5773
 9277TIP3    H149322   3.188   5.319  14.321  0.1562 -1.4422 -2.8825
 9277TIP3    H249323   3.281   5.438  14.324 -1.3771 -0.2001 -0.1594
 9278TIP3   OH249324   2.736   1.845   3.153  0.1161 -0.0364 -0.0044
 9278TIP3    H149325   2.704   1.825   3.241 -1.2425 -0.1483 -0.5044
 9278TIP3    H249326   2.705   1.935   3.137  0.0785 -0.1371 -0.4920
 9279TIP3   OH249327   0.125   6.622  11.711 -0.1878 -0.3378 -0.1686
 9279TIP3    H149328   0.158   6.587  11.629 -1.3363 -1.6212 -0.1220
 9279TIP3    H249329   0.066   6.692  11.685 -0.2878 -0.5171 -0.4330
 9280TIP3   OH249330   2.287   6.561   0.804 -0.0010  0.0762  0.0962
 9280TIP3    H149331   2.199   6.555   0.839  0.0149  1.3782  0.4127
 9280TIP3    H249332   2.317   6.471   0.796 -1.4948 -0.3936 -0.3720
 9281TIP3   OH249333   0.440   6.763  14.380 -0.7057 -0.2690  0.6665
 9281TIP3    H149334   0.359   6.714  14.391 -0.4705 -0.7455  0.3386
 9281TIP3    H249335   0.417   6.835  14.321 -0.7730 -0.7154  0.1381
 9282TIP3   OH249336   0.344   3.727  15.593  0.3412  0.5692 -0.1540
 9282TIP3    H149337   0.354   3.783  15.670  0.4484 -1.8097  1.6953
 9282TIP3    H249338   0.432   3.693  15.577  0.0732  0.0366 -0.5194
 9283TIP3   OH249339   1.350   1.917  11.361  0.0521  0.4563  0.2244
 9283TIP3    H149340   1.404   1.852  11.406  0.3646 -0.4089 -1.3348
 9283TIP3    H249341   1.413   1.973  11.315 -0.3167 -0.7602 -1.8780
 9284TIP3   OH249342   2.304   3.402  15.436  0.0082 -0.0032 -0.0804
 9284TIP3    H149343   2.366   3.330  15.420 -0.5827 -0.6504  0.4805
 9284TIP3    H249344   2.218   3.363  15.421 -0.3131  0.6497  0.0348
 9285TIP3   OH249345   3.207   4.916   5.452  0.1479  0.3779 -0.0398
 9285TIP3    H149346   3.156   4.965   5.516  0.1291 -0.5050  0.6406
 9285TIP3    H249347   3.292   4.902   5.494  0.1615 -0.1452 -0.2269
 9286TIP3   OH249348   5.233   4.778   3.032  0.0428 -0.1766 -0.4878
 9286TIP3    H149349   5.316   4.815   3.002 -0.6306  2.0444  0.1631
 9286TIP3    H249350   5.166   4.820   2.977 -0.8547  0.5201  1.0577
 9287TIP3   OH249351   5.777   2.276   3.363 -0.2876 -0.1583  0.0559
 9287TIP3    H149352   5.856   2.256   3.413  0.3874  2.4421  0.1480
 9287TIP3    H249353   5.705   2.265   3.426  0.4299  1.7287  1.2789
 9288TIP3   OH249354   4.537   0.150   4.982 -0.3382  0.0278 -0.5488
 9288TIP3    H149355   4.528   0.240   4.949  1.6062  0.9008  1.0486
 9288TIP3    H249356   4.476   0.146   5.056 -2.5438 -0.9824 -2.3067
 9289TIP3   OH249357   0.661   0.967  16.605  0.0470  0.6826  0.5117
 9289TIP3    H149358   0.749   0.955  16.639  0.8956 -0.4914 -1.8531
 9289TIP3    H249359   0.650   1.062  16.597  0.1292  0.9585  3.0141
 9290TIP3   OH249360   0.771   5.761  17.088  0.2468  0.4412  0.1676
 9290TIP3    H149361   0.831   5.832  17.066  1.1600 -0.7303 -1.2873
 9290TIP3    H249362   0.827   5.684  17.096 -0.7331 -0.1812  1.6156
 9291TIP3   OH249363   0.910   0.622  13.569  0.3486 -0.0016 -0.9318
 9291TIP3    H149364   0.839   0.580  13.618 -0.2679 -1.0972 -2.6524
 9291TIP3    H249365   0.988   0.573  13.593  0.0451 -0.5549 -1.0536
 9292TIP3   OH249366   2.100   4.565   3.194 -0.6736  0.1247 -0.5522
 9292TIP3    H149367   2.108   4.479   3.235  0.8531  1.1054  1.3893
 9292TIP3    H249368   2.041   4.551   3.120 -1.2648 -2.3614  0.2900
 9293TIP3   OH249369   4.414   5.610  13.313  0.2085  0.0468 -0.3271
 9293TIP3    H149370   4.493   5.559  13.333  0.1716  0.2597  0.3858
 9293TIP3    H249371   4.378   5.633  13.399 -1.7927 -1.8054 -0.5707
 9294TIP3   OH249372   3.877   1.743  13.481  0.5631  0.3749 -0.5767
 9294TIP3    H149373   3.796   1.700  13.510 -1.2388  0.7757 -4.4083
 9294TIP3    H249374   3.932   1.671  13.451  0.4820  0.2942 -0.5333
 9295TIP3   OH249375   3.754   2.036  15.064 -0.5377 -0.4001  0.3375
 9295TIP3    H149376   3.746   2.119  15.112 -0.6596  0.4870 -1.1406
 9295TIP3    H249377   3.663   2.008  15.051 -0.5296 -0.3623  0.1920
 9296TIP3   OH249378   1.413   1.079   1.914 -0.1045 -0.0839 -0.6895
 9296TIP3    H149379   1.328   1.112   1.942 -0.1177 -0.6053 -0.0871
 9296TIP3    H249380   1.465   1.073   1.994 -0.2724 -1.9792 -0.6748
 9297TIP3   OH249381   6.470   5.547   2.989 -0.4222 -0.3596 -0.1696
 9297TIP3    H149382   6.408   5.591   2.931  0.0762 -0.4884 -0.8076
 9297TIP3    H249383   6.434   5.459   2.999 -0.0196 -0.6333 -1.0501
 9298TIP3   OH249384   0.083   6.260   0.430  0.0905 -0.2119 -0.1422
 9298TIP3    H149385   0.154   6.323   0.437  0.3487 -0.5072 -0.1113
 9298TIP3    H249386   0.121   6.177   0.455  0.1059 -0.6320 -1.4549
 9299TIP3   OH249387   1.170   1.980  14.894  0.1647  0.5414  0.0794
 9299TIP3    H149388   1.168   1.975  14.798  1.1246 -0.5304  0.0873
 9299TIP3    H249389   1.079   1.993  14.919 -0.3420 -0.7868 -0.9248
 9300TIP3   OH249390   5.213   2.260   4.034  0.3506  0.1949 -0.2761
 9300TIP3    H149391   5.132   2.210   4.040  0.2061  0.4880  0.2464
 9300TIP3    H249392   5.282   2.199   4.061  0.0656  0.5572  1.3383
 9301TIP3   OH249393   0.389   3.614   6.435  0.3373  0.4964 -0.5833
 9301TIP3    H149394   0.434   3.530   6.425  0.8849  0.7870 -0.6126
 9301TIP3    H249395   0.455   3.679   6.411  0.1507  0.9731  0.1878
 9302TIP3   OH249396   0.643   5.386   4.017 -0.2167  0.1517 -0.4748
 9302TIP3    H149397   0.567   5.439   3.994 -1.3538 -1.2211 -0.0034
 9302TIP3    H249398   0.702   5.393   3.942 -0.2298  2.2014 -0.3489
 9303TIP3   OH249399   4.706   2.887   1.089  0.1400 -0.2345 -0.4757
 9303TIP3    H149400   4.730   2.819   1.026  0.1193 -0.0488 -0.6869
 9303TIP3    H249401   4.745   2.967   1.054  0.9821 -0.2996  0.2672
 9304TIP3   OH249402   5.387   3.253  14.469  0.2695 -0.0680 -0.0111
 9304TIP3    H149403   5.455   3.301  14.421  1.4127  1.7585  3.1655
 9304TIP3    H249404   5.322   3.320  14.491 -1.1241 -1.2212 -0.4398
 9305TIP3   OH249405   1.980   3.426  14.926 -0.0804  0.2418 -0.1089
 9305TIP3    H149406   1.906   3.479  14.899  0.8746  1.7717  0.1714
 9305TIP3    H249407   1.984   3.436  15.021  0.4966  0.1815 -0.1232
 9306TIP3   OH249408   6.016   6.765  11.439 -0.8859 -0.1611 -0.1058
 9306TIP3    H149409   5.996   6.697  11.504  0.0790  0.2525  0.6587
 9306TIP3    H249410   5.957   6.836  11.460 -1.3684 -0.4650 -0.4179
 9307TIP3   OH249411   2.645   4.622  15.742 -0.5623  0.2536 -0.5134
 9307TIP3    H149412   2.723   4.672  15.716  1.1861 -1.7182  0.5847
 9307TIP3    H249413   2.623   4.654  15.829  2.2114 -2.4005  1.4082
 9308TIP3   OH249414   5.156   2.942  11.877 -0.2572 -0.3706 -0.0955
 9308TIP3    H149415   5.137   2.955  11.784  1.2301 -2.0427 -0.6644
 9308TIP3    H249416   5.224   3.005  11.897  0.3360 -0.8852 -0.4783
 9309TIP3   OH249417   6.256   5.020   6.710 -0.3628 -0.3209 -0.7413
 9309TIP3    H149418   6.198   4.962   6.760  0.4586 -1.1678 -0.7508
 9309TIP3    H249419   6.339   4.973   6.705  0.2180  0.7081 -1.0629
 9310TIP3   OH249420   0.196   4.113   1.974  0.6320  0.3725 -0.5493
 9310TIP3    H149421   0.187   4.201   2.009  1.8828  0.0627  0.6180
 9310TIP3    H249422   0.251   4.067   2.037 -1.5963 -1.8577 -0.0642
 9311TIP3   OH249423   6.069   3.364   5.197 -0.3600 -0.1781 -0.0390
 9311TIP3    H149424   5.983   3.368   5.239 -0.5226  0.6787 -0.4139
 9311TIP3    H249425   6.120   3.304   5.251 -1.1441 -0.5652  0.2835
 9312TIP3   OH249426   0.290   3.912  10.505 -0.4568 -0.2258 -0.2572
 9312TIP3    H149427   0.218   3.974  10.512 -0.1394 -0.0371  2.0962
 9312TIP3    H249428   0.256   3.831  10.542  0.5638 -0.0659  1.1096
 9313TIP3   OH249429   1.662   4.975   1.308 -0.1655 -0.0481  0.2901
 9313TIP3    H149430   1.625   4.905   1.363  0.5972 -0.2120  0.6037
 9313TIP3    H249431   1.756   4.957   1.306 -0.2771 -0.7634 -2.0774
 9314TIP3   OH249432   0.274   0.370   5.038  0.5749 -0.2039 -0.0711
 9314TIP3    H149433   0.252   0.285   5.077  2.6752 -0.6391  0.2992
 9314TIP3    H249434   0.324   0.347   4.959  0.7585  0.6912 -0.2195
 9315TIP3   OH249435   2.103   4.443  13.787 -0.1606  0.1121 -0.5560
 9315TIP3    H149436   2.012   4.425  13.762 -0.7511  2.1145 -0.0559
 9315TIP3    H249437   2.154   4.418  13.710 -0.8538 -2.9962 -0.1191
 9316TIP3   OH249438   6.569   3.123  11.526 -0.5447  0.1937 -0.0675
 9316TIP3    H149439   6.500   3.185  11.502 -0.5550 -0.1807 -1.0448
 9316TIP3    H249440   6.564   3.055  11.459  2.3881  1.3964 -1.6524
 9317TIP3   OH249441   4.036   4.667  15.790  0.0048 -0.6863 -0.1048
 9317TIP3    H149442   4.000   4.632  15.708  1.2511 -2.8555  0.1833
 9317TIP3    H249443   4.131   4.667  15.776  0.1365  1.0318  0.5875
 9318TIP3   OH249444   4.735   4.583   0.018 -0.5336 -0.0746  0.0425
 9318TIP3    H149445   4.812   4.570   0.073 -0.5331 -0.4104 -0.0318
 9318TIP3    H249446   4.692   4.497   0.017 -1.4709  0.3725  0.9198
 9319TIP3   OH249447   1.967   1.959   2.756 -0.3907 -0.4134  0.2255
 9319TIP3    H149448   2.018   1.928   2.831  0.8771  0.2161 -0.3603
 9319TIP3    H249449   2.029   2.007   2.702 -1.3894 -0.4451 -1.0036
 9320TIP3   OH249450   5.686   0.672   6.164  0.3416  0.1534 -0.3450
 9320TIP3    H149451   5.602   0.711   6.188  0.1151 -1.8839  2.8488
 9320TIP3    H249452   5.751   0.728   6.205  0.2999 -0.1086  0.0909
 9321TIP3   OH249453   5.570   3.007  13.289 -0.7066 -0.0094  0.0070
 9321TIP3    H149454   5.476   2.989  13.297 -0.4965 -0.2745  2.9082
 9321TIP3    H249455   5.574   3.101  13.272 -1.4985 -0.0113 -0.2361
 9322TIP3   OH249456   6.482   5.428  15.541 -0.4667 -0.5953 -0.0444
 9322TIP3    H149457   6.543   5.491  15.502 -0.1590 -1.6533 -1.3400
 9322TIP3    H249458   6.433   5.479  15.605  1.3996  0.4183  0.6524
 9323TIP3   OH249459   6.565   3.186  14.460 -0.7845 -0.2855 -0.5389
 9323TIP3    H149460   6.611   3.214  14.539  1.1397  1.2925 -2.1083
 9323TIP3    H249461   6.569   3.090  14.463 -0.6099 -0.2505  1.1637
 9324TIP3   OH249462   4.619   3.796  14.528 -0.5456  0.2579  0.0578
 9324TIP3    H149463   4.623   3.734  14.600 -0.7950 -1.7533 -1.5709
 9324TIP3    H249464   4.549   3.857  14.553  0.6371  0.8145  2.3224
 9325TIP3   OH249465   2.812   6.764  13.132 -0.1967 -0.1780  0.5610
 9325TIP3    H149466   2.829   6.674  13.104  2.7042  0.7223 -0.9052
 9325TIP3    H249467   2.804   6.758  13.227 -2.8017 -2.2674  0.3461
 9326TIP3   OH249468   5.206   5.115  13.288  0.8381 -1.3201 -0.3679
 9326TIP3    H149469   5.218   5.185  13.224  4.4364 -0.1313  1.2956
 9326TIP3    H249470   5.202   5.161  13.372 -0.0818 -2.9879  0.5502
 9327TIP3   OH249471   6.668   3.515   5.502  0.5044 -0.5807  0.2525
 9327TIP3    H149472   6.659   3.419   5.507  0.9383 -0.6114  0.5151
 9327TIP3    H249473   6.602   3.542   5.439  1.4077 -1.2116 -1.0140
 9328TIP3   OH249474   2.701   4.475   1.088 -0.0589  0.3637  0.7325
 9328TIP3    H149475   2.768   4.406   1.086  0.0506  0.4758  0.4424
 9328TIP3    H249476   2.743   4.547   1.136 -0.1035  0.3017  0.8659
 9329TIP3   OH249477   4.658   4.962   0.848  0.2073  0.2756 -0.0162
 9329TIP3    H149478   4.701   4.958   0.934 -0.9421  0.8775  0.6178
 9329TIP3    H249479   4.568   4.934   0.866 -0.3437  1.4680 -0.8033
 9330TIP3   OH249480   4.712   0.600  12.169  0.4620 -0.6643 -0.2509
 9330TIP3    H149481   4.638   0.574  12.114 -0.7625  1.6633  0.1645
 9330TIP3    H249482   4.682   0.584  12.259  0.2063  0.7694 -0.0559
 9331TIP3   OH249483   4.853   2.149   2.900  0.9472  0.2540  0.2605
 9331TIP3    H149484   4.899   2.140   2.983  2.4914  0.4802 -0.5229
 9331TIP3    H249485   4.901   2.218   2.853 -0.5230  0.8706 -0.4110
 9332TIP3   OH249486   4.640   5.100  12.712  0.3202 -0.0593  0.5148
 9332TIP3    H149487   4.566   5.058  12.668 -0.8703 -0.5195  2.8038
 9332TIP3    H249488   4.706   5.031  12.720 -0.2687 -0.5622  1.2041
 9333TIP3   OH249489   2.777   3.990   2.419 -0.1234  0.3740 -0.2548
 9333TIP3    H149490   2.862   4.033   2.409  0.7597 -0.9284  1.1846
 9333TIP3    H249491   2.756   3.958   2.331  1.2504  0.0712 -0.4960
 9334TIP3   OH249492   1.198   4.473   0.629 -0.1859 -0.4880  0.4771
 9334TIP3    H149493   1.175   4.402   0.569  1.4566 -0.3277 -0.3918
 9334TIP3    H249494   1.265   4.436   0.686  0.7195  0.3496 -0.0189
 9335TIP3   OH249495   3.724   3.590   4.947 -0.5723  0.3851  0.3625
 9335TIP3    H149496   3.630   3.594   4.966 -0.2262  3.2608  2.0259
 9335TIP3    H249497   3.757   3.519   5.003 -1.7402 -0.9287 -0.5379
 9336TIP3   OH249498   1.578   4.780  12.003 -0.1993  0.3719 -0.2601
 9336TIP3    H149499   1.591   4.735  11.919 -1.3669  1.5575 -1.1291
 9336TIP3    H249500   1.504   4.734  12.043 -0.4974  0.6378 -0.5024
 9337TIP3   OH249501   2.840   1.523  13.396 -0.2447 -0.4233 -0.3279
 9337TIP3    H149502   2.907   1.509  13.463  1.9899 -2.9316 -2.8425
 9337TIP3    H249503   2.767   1.466  13.422 -0.7741  0.9697  1.4756
 9338TIP3   OH249504   4.728   3.313   1.841  0.0895  0.4156  0.1808
 9338TIP3    H149505   4.676   3.234   1.854  2.1319 -0.6972  2.1501
 9338TIP3    H249506   4.669   3.384   1.867 -0.2572 -0.8833  3.3985
 9339TIP3   OH249507   4.314   5.623  13.065 -0.8742 -0.5505 -0.0487
 9339TIP3    H149508   4.315   5.608  13.159  0.1523 -0.2586 -0.0029
 9339TIP3    H249509   4.397   5.589  13.033 -1.0567 -0.3347 -0.7994
 9340TIP3   OH249510   2.484   4.889   4.479 -0.0411  0.1861  0.1604
 9340TIP3    H149511   2.492   4.951   4.551  2.1021 -1.3395  1.3450
 9340TIP3    H249512   2.511   4.805   4.516  0.0969 -0.8763 -2.1527
 9341TIP3   OH249513   1.946   0.321  14.830  0.1417  0.1437  0.7841
 9341TIP3    H149514   1.914   0.401  14.787  1.1815  0.4221  0.4924
 9341TIP3    H249515   2.015   0.289  14.772  0.2575 -0.5388  1.2893
 9342TIP3   OH249516   1.824   6.690  10.603  0.0454 -0.4303 -0.4971
 9342TIP3    H149517   1.913   6.696  10.568  1.1767  0.5148  2.3225
 9342TIP3    H249518   1.821   6.607  10.650 -0.9109 -0.8723 -1.2708
 9343TIP3   OH249519   4.120   2.206  11.175  0.6438  0.0094 -0.1525
 9343TIP3    H149520   4.150   2.292  11.147  0.3981  0.1163 -0.0868
 9343TIP3    H249521   4.198   2.150  11.167  0.4360 -0.0898 -1.5886
 9344TIP3   OH249522   5.100   4.300   2.909 -0.1338 -0.3912 -0.2028
 9344TIP3    H149523   5.087   4.392   2.931  0.4965 -0.4308  0.3826
 9344TIP3    H249524   5.175   4.300   2.848  0.5396 -0.5883  0.6037
 9345TIP3   OH249525   0.254   1.157   1.551 -0.1966  0.2728 -0.2606
 9345TIP3    H149526   0.319   1.155   1.622  0.3090  0.2211 -0.7129
 9345TIP3    H249527   0.294   1.105   1.481 -0.0453  1.4823 -1.1090
 9346TIP3   OH249528   3.315   3.531  12.211  0.0092 -0.2210  0.5671
 9346TIP3    H149529   3.289   3.452  12.164  1.0529  0.5923 -1.5319
 9346TIP3    H249530   3.410   3.525  12.219 -0.1062 -0.1460  2.2990
 9347TIP3   OH249531   6.402   2.754   1.037 -0.0534  0.1171 -0.3390
 9347TIP3    H149532   6.462   2.822   1.008  0.4559  0.0254  0.4551
 9347TIP3    H249533   6.413   2.683   0.973 -2.4085  1.6731 -2.6400
 9348TIP3   OH249534   0.646   0.884  16.093 -0.5523 -0.5090  0.0882
 9348TIP3    H149535   0.661   0.859  16.184  1.1105  1.1701  0.3368
 9348TIP3    H249536   0.729   0.922  16.064 -2.2264  2.9490 -0.7320
 9349TIP3   OH249537   0.729   1.630   4.035 -0.0367  0.1692 -0.1928
 9349TIP3    H149538   0.675   1.559   4.070  1.0520 -0.3617  0.4573
 9349TIP3    H249539   0.817   1.593   4.030 -0.0813  0.2068 -3.5447
 9350TIP3   OH249540   5.045   4.943   3.748  0.4832 -0.4422  0.4770
 9350TIP3    H149541   5.005   5.029   3.734 -0.2074 -0.4423  2.2308
 9350TIP3    H249542   5.128   4.963   3.792  0.3593 -0.6763  0.8130
 9351TIP3   OH249543   3.635   3.055   4.045 -0.5413 -0.1516  0.4562
 9351TIP3    H149544   3.565   3.052   3.980 -0.4596  0.4957  0.3337
 9351TIP3    H249545   3.595   3.020   4.125 -0.5507 -1.2330 -0.0170
 9352TIP3   OH249546   1.266   6.160   4.601  0.3835  0.3305  0.1193
 9352TIP3    H149547   1.326   6.090   4.576 -0.9244 -1.0459  0.7169
 9352TIP3    H249548   1.223   6.186   4.519  2.8590  2.4942 -0.6460
 9353TIP3   OH249549   4.175   5.638  16.272  0.1984 -0.0495 -0.0621
 9353TIP3    H149550   4.210   5.721  16.239  1.7242 -0.2265  0.9933
 9353TIP3    H249551   4.162   5.585  16.194 -2.9842  1.8745 -1.0342
 9354TIP3   OH249552   3.575   0.254   4.459  0.3455 -0.3929  0.0709
 9354TIP3    H149553   3.589   0.218   4.371 -2.4496  0.5824 -0.8857
 9354TIP3    H249554   3.537   0.181   4.509 -1.1356 -0.0968 -0.5599
 9355TIP3   OH249555   3.011   4.430   0.770 -0.3325  0.0614 -0.4053
 9355TIP3    H149556   3.040   4.387   0.689 -0.0071 -0.2267 -0.1406
 9355TIP3    H249557   3.022   4.363   0.837  2.1761  1.1701  0.3903
 9356TIP3   OH249558   3.184   1.227   4.553 -0.4201 -0.0743  0.1398
 9356TIP3    H149559   3.161   1.170   4.627 -0.7508  0.4624  0.4589
 9356TIP3    H249560   3.272   1.259   4.575 -0.3905 -0.1647  0.1519
 9357TIP3   OH249561   5.326   6.645   0.812 -0.5819 -0.5130 -0.3477
 9357TIP3    H149562   5.313   6.574   0.875  0.3528 -0.0816  0.3535
 9357TIP3    H249563   5.417   6.634   0.783 -0.9663 -0.6301 -1.5308
 9358TIP3   OH249564   4.753   2.478  11.861 -0.2454  0.1602  0.5570
 9358TIP3    H149565   4.697   2.449  11.933 -0.3177 -3.5840 -0.7647
 9358TIP3    H249566   4.706   2.454  11.782  1.9896 -0.6955 -0.6271
 9359TIP3   OH249567   3.328   1.986  10.689  0.2123 -0.0876  0.5490
 9359TIP3    H149568   3.317   1.902  10.734 -0.0209  0.4207  1.4467
 9359TIP3    H249569   3.247   2.033  10.705  0.0375  0.0299 -0.5881
 9360TIP3   OH249570   3.241   3.169   5.712  0.5626  0.1599  0.5443
 9360TIP3    H149571   3.293   3.115   5.772  0.0205  0.3581  1.2157
 9360TIP3    H249572   3.224   3.113   5.637 -0.9820 -1.0613  1.7340
 9361TIP3   OH249573   4.199   2.505  12.057 -0.4236  0.0798  0.1085
 9361TIP3    H149574   4.227   2.530  12.146  3.0570 -2.4509 -0.0670
 9361TIP3    H249575   4.163   2.417  12.067 -0.5263  0.0014 -0.8960
 9362TIP3   OH249576   2.979   4.566   3.498 -0.9187 -0.0439 -0.5470
 9362TIP3    H149577   3.074   4.562   3.492 -0.9915 -0.2597 -1.8370
 9362TIP3    H249578   2.954   4.639   3.441 -1.4561  0.8126  0.7491
 9363TIP3   OH249579   5.832   6.601  14.180  0.0653  0.0205 -0.0297
 9363TIP3    H149580   5.870   6.632  14.262  2.4506 -1.3413 -0.5120
 9363TIP3    H249581   5.859   6.666  14.115  0.9523 -0.5363 -0.2369
 9364TIP3   OH249582   5.009   6.262   3.442 -0.1005 -0.1087 -0.8638
 9364TIP3    H149583   5.073   6.275   3.512 -0.0569 -0.5914 -0.8072
 9364TIP3    H249584   5.021   6.336   3.383  0.2282  0.0190 -0.6365
 9365TIP3   OH249585   2.679   5.378  13.256  0.1871 -0.3103  0.0252
 9365TIP3    H149586   2.710   5.288  13.264 -3.7387 -1.7097  1.7976
 9365TIP3    H249587   2.629   5.378  13.174  0.4044  0.3426 -0.1083
 9366TIP3   OH249588   3.374   6.406   0.393 -0.4423 -0.1539 -0.6691
 9366TIP3    H149589   3.372   6.452   0.309 -0.3846 -1.4134 -1.3770
 9366TIP3    H249590   3.282   6.402   0.421 -0.6841 -1.3721 -1.5969
 9367TIP3   OH249591   3.280   3.866   1.587 -0.2112  0.1219  0.3389
 9367TIP3    H149592   3.235   3.839   1.507  0.2146  4.3486 -1.5891
 9367TIP3    H249593   3.365   3.822   1.582 -1.9558 -3.8865  1.4375
 9368TIP3   OH249594   3.526   3.604   3.019 -1.3165 -0.2232  0.1808
 9368TIP3    H149595   3.614   3.619   2.985 -2.5154  1.2911 -2.5961
 9368TIP3    H249596   3.516   3.668   3.090 -0.3163 -0.2134  0.3264
 9369TIP3   OH249597   3.060   5.053   1.931 -0.6355 -0.0077 -0.9630
 9369TIP3    H149598   3.028   5.143   1.941 -1.1573 -0.2839 -0.0019
 9369TIP3    H249599   3.095   5.031   2.017 -1.8499 -1.2218 -0.7461
 9370TIP3   OH249600   3.533   0.902  12.973  0.0727 -0.2811  0.3394
 9370TIP3    H149601   3.509   0.827  13.027 -2.1593  0.9200  1.1105
 9370TIP3    H249602   3.488   0.887  12.890 -0.3820  0.1869  0.4969
 9371TIP3   OH249603   0.176   2.103  11.550 -0.1610  0.8611  0.2274
 9371TIP3    H149604   0.197   2.181  11.602  1.6255 -0.0113  0.8892
 9371TIP3    H249605   0.162   2.034  11.615 -1.0246  0.4627 -0.3708
 9372TIP3   OH249606   2.102   1.320  13.318 -0.0147 -0.8265 -0.4630
 9372TIP3    H149607   2.191   1.301  13.350 -0.5279  0.1518  1.7064
 9372TIP3    H249608   2.107   1.409  13.284 -0.3655 -0.3531  0.6645
 9373TIP3   OH249609   0.924   5.235  11.396  0.0809 -0.3838  0.1157
 9373TIP3    H149610   0.935   5.151  11.442 -0.2324 -0.5323 -0.0738
 9373TIP3    H249611   0.829   5.244  11.386  0.1723 -0.9922 -1.6703
 9374TIP3   OH249612   3.338   5.228  16.167  0.1292 -0.2591 -0.1583
 9374TIP3    H149613   3.389   5.202  16.090 -1.9462 -1.7595 -1.1391
 9374TIP3    H249614   3.248   5.233  16.135 -0.6414  0.2104  1.9335
 9375TIP3   OH249615   0.068   0.429   5.318 -0.5797 -0.3251  0.0343
 9375TIP3    H149616   0.099   0.503   5.266  0.1070  0.9593  2.0986
 9375TIP3    H249617   0.141   0.410   5.377 -0.8930 -2.4426 -0.1967
 9376TIP3   OH249618   6.086   6.026   1.349  0.1356 -0.2729  0.8127
 9376TIP3    H149619   6.166   5.995   1.391  0.8313 -0.9867 -0.9714
 9376TIP3    H249620   6.115   6.098   1.293 -0.5696 -0.1643  0.5785
 9377TIP3   OH249621   4.640   0.439  14.848 -0.4153 -0.2583  0.6055
 9377TIP3    H149622   4.566   0.403  14.897 -0.0505  1.7625  2.8529
 9377TIP3    H249623   4.608   0.522  14.814 -0.1119 -0.8498 -1.2408
 9378TIP3   OH249624   2.576   0.408   2.548 -0.2017 -0.1130 -0.2527
 9378TIP3    H149625   2.547   0.383   2.636 -2.0223 -0.8381 -1.0129
 9378TIP3    H249626   2.606   0.499   2.557 -2.5073  0.6157  0.7064
 9379TIP3   OH249627   3.028   3.809  15.576  0.3309  0.6423 -0.2120
 9379TIP3    H149628   2.934   3.826  15.578  0.5794  2.1354  0.3324
 9379TIP3    H249629   3.039   3.728  15.626 -0.8570 -0.8571 -2.2109
 9380TIP3   OH249630   3.154   0.501  11.166  0.6503 -1.0463  0.1519
 9380TIP3    H149631   3.221   0.567  11.148 -0.8601  0.8591  1.1115
 9380TIP3    H249632   3.111   0.487  11.082  0.7609 -0.5346  0.0086
 9381TIP3   OH249633   0.484   5.993   1.635  0.0294 -1.0586 -0.7998
 9381TIP3    H149634   0.428   5.990   1.713  0.9485 -4.0337 -0.1107
 9381TIP3    H249635   0.569   6.020   1.668  0.1678 -1.3182 -0.9412
 9382TIP3   OH249636   5.481   6.054  16.117 -0.0502 -0.2759  0.3656
 9382TIP3    H149637   5.572   6.060  16.146  0.2985 -2.3546 -0.1373
 9382TIP3    H249638   5.430   6.068  16.197  0.7179  0.1768  0.7965
 9383TIP3   OH249639   0.541   4.636   1.260 -0.5191  0.3482  0.5462
 9383TIP3    H149640   0.562   4.662   1.171 -1.3099 -1.4768 -0.2172
 9383TIP3    H249641   0.621   4.595   1.293 -1.2359 -2.2402 -0.6616
 9384TIP3   OH249642   2.961   2.070  13.601  0.8016  0.3544  0.1798
 9384TIP3    H149643   2.923   2.141  13.653  1.6211  1.8516 -1.1895
 9384TIP3    H249644   2.886   2.016  13.575  0.1923  0.5657  1.4227
 9385TIP3   OH249645   2.159   1.183  11.460 -0.5087 -0.4991  0.0310
 9385TIP3    H149646   2.222   1.214  11.396 -1.0461  2.0942  0.6299
 9385TIP3    H249647   2.204   1.113  11.507  0.3881 -1.4970 -2.1956
 9386TIP3   OH249648   0.922   1.418   4.991  0.1803 -0.2388  0.2741
 9386TIP3    H149649   0.949   1.327   5.004 -1.4636 -0.6039  1.4297
 9386TIP3    H249650   0.839   1.412   4.944  0.9504  0.7635 -1.2719
 9387TIP3   OH249651   1.112   5.506  16.939 -0.1052 -0.5576  0.4372
 9387TIP3    H149652   1.020   5.493  16.914 -0.3031  1.6849 -0.2362
 9387TIP3    H249653   1.135   5.590  16.900  2.5495 -1.4975 -0.1875
 9388TIP3   OH249654   5.418   2.832  17.231 -0.1675 -0.0466  0.3968
 9388TIP3    H149655   5.466   2.852  17.311  0.5054  0.1563 -0.0443
 9388TIP3    H249656   5.465   2.759  17.192  1.1599  1.5568 -1.1623
 9389TIP3   OH249657   1.231   5.717   5.314  0.4980 -0.1837  0.6870
 9389TIP3    H149658   1.172   5.717   5.238  1.0718  3.1127  0.0885
 9389TIP3    H249659   1.182   5.763   5.382  0.9734 -0.8147  1.4766
 9390TIP3   OH249660   0.784   5.426   2.393  0.3797  0.1388  0.3768
 9390TIP3    H149661   0.779   5.456   2.484  0.3831 -1.3400  0.8968
 9390TIP3    H249662   0.836   5.346   2.398  1.1568  0.5377 -1.0723
 9391TIP3   OH249663   4.052   2.162   5.770  0.1435 -0.3704 -0.7234
 9391TIP3    H149664   4.042   2.112   5.689  0.9160 -0.7456 -0.5922
 9391TIP3    H249665   3.986   2.127   5.828 -1.4622  0.9197 -1.6634
 9392TIP3   OH249666   1.157   5.157   0.440 -0.0179  0.1028 -0.0053
 9392TIP3    H149667   1.117   5.091   0.496 -0.2702 -0.0515 -0.3703
 9392TIP3    H249668   1.250   5.153   0.462 -0.1636  0.3205  0.6935
 9393TIP3   OH249669   1.839   4.845   2.576  0.1688 -0.3440 -0.1797
 9393TIP3    H149670   1.783   4.902   2.522  0.5693 -1.6960 -2.1086
 9393TIP3    H249671   1.921   4.893   2.584 -0.3969  0.5472  0.5795
 9394TIP3   OH249672   3.437   2.171   4.840  0.0276  0.0647  0.1014
 9394TIP3    H149673   3.381   2.241   4.875 -0.5517 -0.5114  0.3304
 9394TIP3    H249674   3.427   2.098   4.901  0.2657 -0.3906 -0.3951
 9395TIP3   OH249675   4.715   2.277   5.803 -0.0521 -0.6913 -0.2838
 9395TIP3    H149676   4.673   2.341   5.861 -0.5734  0.3580 -1.7546
 9395TIP3    H249677   4.707   2.194   5.849 -2.4856 -0.2872  0.1553
 9396TIP3   OH249678   2.358   0.188   3.136  0.1892 -0.1542 -0.2075
 9396TIP3    H149679   2.267   0.182   3.166  0.2643  0.3315  0.1289
 9396TIP3    H249680   2.382   0.098   3.113  0.3903 -0.7070  1.9242
 9397TIP3   OH249681   2.852   5.693   5.871 -0.3164  0.5995 -0.0985
 9397TIP3    H149682   2.803   5.775   5.862 -0.0205  0.7140 -0.7775
 9397TIP3    H249683   2.941   5.716   5.847 -0.1067  0.2022  0.2887
 9398TIP3   OH249684   1.368   0.217  14.331  0.1614  0.7369 -0.2901
 9398TIP3    H149685   1.317   0.164  14.393  0.9617  0.5979  0.2664
 9398TIP3    H249686   1.303   0.272  14.288 -0.5439  0.1011 -0.0663
 9399TIP3   OH249687   6.636   1.515   4.830  0.2478 -0.3840  0.9495
 9399TIP3    H149688   6.678   1.445   4.780 -0.8468  0.4116 -1.1842
 9399TIP3    H249689   6.629   1.588   4.769 -0.0706  1.0788  2.6458
 9400TIP3   OH249690   5.246   4.496  14.358  0.5455 -0.6049  0.0474
 9400TIP3    H149691   5.293   4.433  14.412 -0.5452 -0.7249  0.8769
 9400TIP3    H249692   5.154   4.471  14.365  0.1685  0.6488 -0.1617
 9401TIP3   OH249693   0.192   4.263   2.860  0.0774  0.1361 -0.2452
 9401TIP3    H149694   0.199   4.213   2.942 -1.5681  0.4597  0.1091
 9401TIP3    H249695   0.257   4.332   2.869  1.6383 -1.2445 -0.2835
 9402TIP3   OH249696   1.381   3.905   1.062 -0.3920  0.1731 -0.0866
 9402TIP3    H149697   1.369   3.896   1.157  0.2060  1.1051  0.0915
 9402TIP3    H249698   1.341   3.826   1.026 -2.0500  0.5475  0.8221
 9403TIP3   OH249699   1.646   2.605   2.603 -0.0367 -0.4483  0.4744
 9403TIP3    H149700   1.710   2.640   2.665  0.1741 -0.3040  0.1732
 9403TIP3    H249701   1.577   2.671   2.601 -0.5778 -0.9559  1.3852
 9404TIP3   OH249702   1.820   1.447  14.800 -0.0964 -0.2037 -0.0092
 9404TIP3    H149703   1.766   1.413  14.729 -0.9189  1.8740 -0.4423
 9404TIP3    H249704   1.907   1.411  14.783 -0.6710 -1.1867 -1.0241
 9405TIP3   OH249705   3.797   4.278  13.328 -0.1417  0.3461 -0.2150
 9405TIP3    H149706   3.729   4.225  13.286 -2.0265  2.1620  0.4153
 9405TIP3    H249707   3.865   4.215  13.351 -1.6812 -1.5850 -0.6779
 9406TIP3   OH249708   1.822   3.484  16.461 -0.2499  0.7342  0.4429
 9406TIP3    H149709   1.816   3.579  16.462 -0.3231  0.7281  0.6358
 9406TIP3    H249710   1.776   3.456  16.540  0.8423  0.5986  1.0452
 9407TIP3   OH249711   0.326   6.071  11.774  0.0122  0.0922  0.2235
 9407TIP3    H149712   0.381   5.997  11.748 -1.1164 -0.1304 -1.7097
 9407TIP3    H249713   0.312   6.121  11.693 -2.3987  0.2641  0.6575
 9408TIP3   OH249714   0.576   3.825   5.673 -0.1332 -0.2004  0.0521
 9408TIP3    H149715   0.580   3.868   5.758  1.7357 -1.1840  0.5050
 9408TIP3    H249716   0.572   3.898   5.610 -0.1693  0.5566  0.9033
 9409TIP3   OH249717   2.818   0.099  11.843  0.2919 -0.2719 -0.2064
 9409TIP3    H149718   2.732   0.121  11.877  0.0396 -2.0217  0.4024
 9409TIP3    H249719   2.851   0.181  11.805 -0.2755  1.2701  2.3964
 9410TIP3   OH249720   0.901   3.345  14.240 -0.1378 -0.7685 -0.0711
 9410TIP3    H149721   0.852   3.339  14.158 -0.3367 -0.7057  0.0423
 9410TIP3    H249722   0.968   3.411  14.223  0.2899 -1.2888 -0.4187
 9411TIP3   OH249723   6.815   0.707  16.876  0.4591  0.0248  0.2767
 9411TIP3    H149724   6.809   0.778  16.813  1.7813  0.8162  0.9972
 9411TIP3    H249725   6.907   0.683  16.877  0.2331 -0.8973  0.9227
 9412TIP3   OH249726   0.239   3.276  13.588  0.0749 -0.1316 -0.3923
 9412TIP3    H149727   0.159   3.316  13.553  0.5596  2.3969  1.1218
 9412TIP3    H249728   0.209   3.225  13.664 -0.1777  0.3480 -0.1646
 9413TIP3   OH249729   2.790   0.554  12.692  0.0538 -0.8619  0.2341
 9413TIP3    H149730   2.870   0.521  12.733  0.8176  0.9537  0.3284
 9413TIP3    H249731   2.755   0.618  12.755 -0.0387  0.2428 -0.8868
 9414TIP3   OH249732   4.598   6.680   4.988  0.3803 -0.4716 -0.6093
 9414TIP3    H149733   4.561   6.766   5.005 -0.8849 -1.1747  0.3422
 9414TIP3    H249734   4.532   6.636   4.934 -0.0337 -1.6025  0.7630
 9415TIP3   OH249735   4.674   5.581  16.043 -0.2219  0.4406 -0.2431
 9415TIP3    H149736   4.635   5.655  16.090 -2.0268 -0.8444  0.4378
 9415TIP3    H249737   4.643   5.504  16.091  1.7192 -0.7705 -0.8326
 9416TIP3   OH249738   1.539   4.810  13.697  0.4621 -0.2492  0.0293
 9416TIP3    H149739   1.579   4.879  13.750  2.5154 -1.0992 -0.3043
 9416TIP3    H249740   1.532   4.735  13.757  0.6280 -0.5175 -0.2867
 9417TIP3   OH249741   0.249   0.313   5.858  0.4762 -0.0916  0.5002
 9417TIP3    H149742   0.251   0.240   5.920 -0.6901  1.1470  2.0891
 9417TIP3    H249743   0.240   0.272   5.772 -1.0618 -1.8013  1.4140
 9418TIP3   OH249744   3.522   4.661  16.429 -0.1234  0.4353  0.0956
 9418TIP3    H149745   3.521   4.748  16.468 -0.0736 -0.0446  1.2163
 9418TIP3    H249746   3.602   4.620  16.462 -0.7593 -0.4594  0.5849
 9419TIP3   OH249747   1.548   2.396  15.578  0.2462 -0.1337 -0.3844
 9419TIP3    H149748   1.625   2.341  15.592 -0.2015 -1.6234 -3.1634
 9419TIP3    H249749   1.567   2.445  15.498 -0.4597  1.8828  0.5998
 9420TIP3   OH249750   2.084   6.718   1.161 -0.1523  0.1390 -0.7091
 9420TIP3    H149751   2.171   6.759   1.171 -1.0037  1.5059  2.1230
 9420TIP3    H249752   2.078   6.657   1.235 -1.4444 -0.2258 -1.0970
 9421TIP3   OH249753   5.836   3.919   0.195 -0.4534 -0.1161 -0.4686
 9421TIP3    H149754   5.829   4.011   0.218 -0.4481 -0.2118 -0.0842
 9421TIP3    H249755   5.902   3.917   0.125  0.7592 -0.0027  0.6331
 9422TIP3   OH249756   4.371   4.987  13.925 -0.3698  0.1613 -0.4463
 9422TIP3    H149757   4.296   5.046  13.937 -0.3528 -0.1451  1.6217
 9422TIP3    H249758   4.448   5.043  13.935 -0.3389  0.1233 -0.4694
 9423TIP3   OH249759   5.514   4.236  16.215  0.3202 -0.0002  0.1423
 9423TIP3    H149760   5.571   4.303  16.177  1.8156 -1.3407 -0.0627
 9423TIP3    H249761   5.509   4.260  16.307  1.2980  0.0970  0.1859
 9424TIP3   OH249762   3.858   6.306  12.243  0.5238 -0.1910 -0.1533
 9424TIP3    H149763   3.902   6.225  12.218  1.9704 -0.0938  1.8319
 9424TIP3    H249764   3.780   6.279  12.290  0.3695 -0.4133 -0.5376
 9425TIP3   OH249765   5.415   1.676   1.027 -0.6780  0.6833  0.2796
 9425TIP3    H149766   5.357   1.656   1.100 -3.4732  0.3648 -1.8470
 9425TIP3    H249767   5.418   1.595   0.976 -1.9410  1.8970 -1.8896
 9426TIP3   OH249768   6.715   1.287  10.316 -0.4330  0.3411  0.1068
 9426TIP3    H149769   6.750   1.198  10.308  0.6131  0.7622 -0.2161
 9426TIP3    H249770   6.671   1.289  10.401  0.6635 -0.1147  0.7039
 9427TIP3   OH249771   4.236   5.507  13.822  0.0775  0.1465 -0.4946
 9427TIP3    H149772   4.196   5.428  13.785  0.8030 -0.6395  0.3534
 9427TIP3    H249773   4.165   5.571  13.823 -1.1171 -1.1083  0.6863
 9428TIP3   OH249774   5.262   0.481  11.353 -0.0941  0.2986 -0.4444
 9428TIP3    H149775   5.206   0.405  11.337  0.9807 -0.6766  0.3579
 9428TIP3    H249776   5.211   0.535  11.415 -0.7111  0.0929 -0.7599
 9429TIP3   OH249777   0.038   4.682   1.593  0.2992  0.0842 -0.1951
 9429TIP3    H149778   0.075   4.736   1.523 -1.0877  0.7049 -0.4791
 9429TIP3    H249779   0.089   4.706   1.671  0.2926  1.1592 -0.5022
 9430TIP3   OH249780   0.207   4.535  12.917 -0.0194 -0.5328  0.3237
 9430TIP3    H149781   0.260   4.569  12.844 -1.4242 -1.4638 -1.2163
 9430TIP3    H249782   0.157   4.611  12.948  0.7998 -0.0644  0.5131
 9431TIP3   OH249783   2.476   4.044  17.196  0.2602 -0.7048 -0.1599
 9431TIP3    H149784   2.553   3.987  17.203 -0.5937 -2.0269 -1.1297
 9431TIP3    H249785   2.476   4.094  17.278  1.7704 -1.1490  0.1467
 9432TIP3   OH249786   1.884   0.885  14.722  0.2644  0.6134 -0.0821
 9432TIP3    H149787   1.929   0.954  14.769  1.1492 -0.0091  0.0109
 9432TIP3    H249788   1.792   0.893  14.749  0.7503  0.2498  1.8161
 9433TIP3   OH249789   1.535   1.968   2.822 -0.4156  0.0194  0.1843
 9433TIP3    H149790   1.448   1.933   2.804 -0.6495  0.4500  0.4752
 9433TIP3    H249791   1.522   2.062   2.833 -0.0627 -0.0316  1.1284
 9434TIP3   OH249792   4.078   2.636  11.379  0.6084  0.5210  0.4733
 9434TIP3    H149793   4.000   2.609  11.330  0.9648  0.4424 -0.0648
 9434TIP3    H249794   4.050   2.637  11.470  0.8238 -2.7739  0.7169
 9435TIP3   OH249795   3.012   1.083   2.532  0.3879 -0.1274 -0.4701
 9435TIP3    H149796   2.993   1.047   2.446 -0.7834 -1.3535  0.2577
 9435TIP3    H249797   3.009   1.178   2.520  0.5402 -0.2787 -1.8273
 9436TIP3   OH249798   0.088   6.386  14.990  0.5919  0.1563 -0.2498
 9436TIP3    H149799   0.011   6.328  14.996  0.7946  0.0034  1.5981
 9436TIP3    H249800   0.117   6.396  15.081  3.0765 -0.2074 -0.9274
 9437TIP3   OH249801   3.292   3.517   2.265 -0.6243 -0.3855  0.1450
 9437TIP3    H149802   3.301   3.431   2.304 -1.0444 -1.0804 -1.2335
 9437TIP3    H249803   3.210   3.551   2.301  0.5227  0.3386  2.2653
 9438TIP3   OH249804   5.778   0.119  14.612 -0.0619 -0.4603  0.4433
 9438TIP3    H149805   5.823   0.144  14.692  0.2282 -0.5817  0.3203
 9438TIP3    H249806   5.693   0.085  14.642  0.0353 -0.4825  0.6968
 9439TIP3   OH249807   1.034   6.112   6.056 -0.1691 -0.4621  0.0439
 9439TIP3    H149808   1.086   6.037   6.084 -0.2956 -1.2615 -1.7323
 9439TIP3    H249809   0.955   6.109   6.111 -1.0658 -2.7828 -1.2581
 9440TIP3   OH249810   5.599   1.213   3.522  0.7169 -0.4523  0.0882
 9440TIP3    H149811   5.556   1.134   3.554 -0.2794  0.0136 -0.0439
 9440TIP3    H249812   5.547   1.239   3.445 -0.1292  1.3276  1.1748
 9441TIP3   OH249813   5.779   2.641  10.805 -0.1826  0.3458  0.8936
 9441TIP3    H149814   5.846   2.595  10.753 -0.9842  0.4838 -0.3108
 9441TIP3    H249815   5.696   2.604  10.774 -0.8331  2.2536  0.2169
 9442TIP3   OH249816   6.228   1.210   1.485 -0.1115 -0.0153 -0.0706
 9442TIP3    H149817   6.221   1.167   1.570  0.0265  0.0505 -0.0251
 9442TIP3    H249818   6.290   1.157   1.436  1.0056  0.8040  0.4137
 9443TIP3   OH249819   5.913   5.328  15.719  0.0279  0.3059 -0.6062
 9443TIP3    H149820   5.997   5.373  15.718 -0.0061  0.3765 -0.4345
 9443TIP3    H249821   5.892   5.319  15.812 -0.2736  0.5190 -0.6495
 9444TIP3   OH249822   5.932   6.191   6.645 -0.1211 -0.2603  0.2775
 9444TIP3    H149823   5.986   6.203   6.567  0.2545 -1.0100  0.4135
 9444TIP3    H249824   5.987   6.223   6.717  0.7486 -2.3102  0.5991
 9445TIP3   OH249825   1.579   5.279  11.524 -0.1604 -0.2338  0.2360
 9445TIP3    H149826   1.539   5.267  11.438 -1.1496  1.1269  0.4697
 9445TIP3    H249827   1.532   5.354  11.561 -1.4909 -2.2776  2.9782
 9446TIP3   OH249828   1.458   0.366   6.135 -0.0136  0.5458 -0.4031
 9446TIP3    H149829   1.457   0.415   6.217 -1.2673 -0.5389  0.2705
 9446TIP3    H249830   1.531   0.305   6.143  0.4449  1.0810 -0.4961
 9447TIP3   OH249831   3.904   3.144  15.951 -0.1511 -0.5472  0.1683
 9447TIP3    H149832   3.884   3.191  16.032  2.8940  0.6963  0.3218
 9447TIP3    H249833   3.827   3.160  15.895 -0.6245  2.0163  1.3795
 9448TIP3   OH249834   0.248   6.618   3.758  0.3347 -0.6926 -0.2488
 9448TIP3    H149835   0.262   6.632   3.852 -0.5735 -1.2388 -0.0183
 9448TIP3    H249836   0.336   6.616   3.721  0.6517  1.4027  0.2868
 9449TIP3   OH249837   4.822   2.995   2.830  0.1841  0.0409 -0.3157
 9449TIP3    H149838   4.819   2.976   2.924  0.2546  0.2335 -0.2749
 9449TIP3    H249839   4.914   3.012   2.812  0.6806 -2.8188 -0.9770
 9450TIP3   OH249840   0.247   5.591  15.082 -0.7088  0.1070  0.0110
 9450TIP3    H149841   0.269   5.535  15.007 -0.6988  2.4114 -1.8079
 9450TIP3    H249842   0.168   5.551  15.119  0.2776 -2.0835 -0.0642
 9451TIP3   OH249843   3.372   4.128  11.664 -0.1036 -0.1293 -0.3208
 9451TIP3    H149844   3.466   4.120  11.682 -0.4786  0.1102  2.1942
 9451TIP3    H249845   3.365   4.202  11.603  1.1620  3.0569  2.9877
 9452TIP3   OH249846   0.871   4.567   3.135  0.3707 -0.8962 -0.1073
 9452TIP3    H149847   0.897   4.518   3.213  1.1609 -1.7293 -0.8547
 9452TIP3    H249848   0.868   4.500   3.066 -2.6801 -0.6496 -0.3434
 9453TIP3   OH249849   3.698   1.855   0.880 -0.3976 -0.2036 -0.0002
 9453TIP3    H149850   3.654   1.940   0.887  1.5898  0.7935  1.5186
 9453TIP3    H249851   3.752   1.862   0.802  2.5690  1.4782  2.0055
 9454TIP3   OH249852   0.317   4.246  12.076  0.2718 -0.0001  0.5921
 9454TIP3    H149853   0.224   4.255  12.055  0.0310 -0.9979  1.1636
 9454TIP3    H249854   0.362   4.300  12.011 -0.7402  1.0495  0.7384
 9455TIP3   OH249855   6.458   6.168  12.969  0.2599 -0.5040  0.3194
 9455TIP3    H149856   6.391   6.099  12.966 -0.0706 -0.1461 -0.7833
 9455TIP3    H249857   6.410   6.249  12.955  0.6040  0.0110  1.9537
 9456TIP3   OH249858   4.624   2.618   2.518 -0.2766  0.0602 -0.5341
 9456TIP3    H149859   4.661   2.664   2.594  1.0496 -2.5809  0.5248
 9456TIP3    H249860   4.615   2.527   2.547 -2.2827 -0.5114 -2.6980
 9457TIP3   OH249861   2.831   1.900   4.693 -0.7432  0.5976  0.0031
 9457TIP3    H149862   2.749   1.885   4.740 -0.9328  1.3391 -0.0884
 9457TIP3    H249863   2.838   1.995   4.684 -0.0697  0.5271 -0.3395
 9458TIP3   OH249864   4.153   0.379   5.400 -0.1939 -0.0309 -0.5189
 9458TIP3    H149865   4.082   0.362   5.338 -0.6313 -0.6990  0.1528
 9458TIP3    H249866   4.198   0.295   5.408  0.2858  0.2323 -0.4663
 9459TIP3   OH249867   4.736   6.297   0.976  0.4373  0.1741 -0.5060
 9459TIP3    H149868   4.657   6.280   0.924 -2.5981 -1.1137  3.9694
 9459TIP3    H249869   4.717   6.378   1.023  1.6157 -0.3326  0.9164
 9460TIP3   OH249870   4.017   2.037  13.268  0.0693  0.1941 -0.2416
 9460TIP3    H149871   4.038   2.066  13.356 -0.4520 -1.1734  0.3641
 9460TIP3    H249872   3.960   2.105  13.232  1.6373  1.5948 -0.1772
 9461TIP3   OH249873   6.713   2.989   2.690  0.1400  0.3031 -0.0007
 9461TIP3    H149874   6.729   3.081   2.670  2.7442 -0.7417 -3.6195
 9461TIP3    H249875   6.794   2.958   2.730 -0.6698 -0.5166  1.0991
 9462TIP3   OH249876   3.087   1.568  10.671 -0.3608 -0.4275 -0.3706
 9462TIP3    H149877   3.031   1.490  10.671  0.1127 -0.8166 -2.5661
 9462TIP3    H249878   3.039   1.632  10.619 -0.0595  0.2590  0.1729
 9463TIP3   OH249879   1.154   2.612   4.483  0.1078  0.1210  0.0394
 9463TIP3    H149880   1.209   2.587   4.558  0.1769  0.1395 -0.0055
 9463TIP3    H249881   1.159   2.537   4.424 -1.7274 -0.8735  1.0453
 9464TIP3   OH249882   6.497   5.676   1.414  0.0546  0.2986  0.2580
 9464TIP3    H149883   6.446   5.606   1.373 -1.7164  2.7594 -2.1066
 9464TIP3    H249884   6.467   5.676   1.505 -2.0489 -0.2484 -0.3613
 9465TIP3   OH249885   3.830   2.231  15.471 -0.1707  0.3447  0.1671
 9465TIP3    H149886   3.792   2.214  15.558 -3.1670  0.1665 -1.0616
 9465TIP3    H249887   3.870   2.147  15.446 -1.8491 -0.5258  0.2373
 9466TIP3   OH249888   1.446   5.178   4.797  0.3770  0.1677  0.3217
 9466TIP3    H149889   1.462   5.129   4.878 -0.8096  1.1025  1.1689
 9466TIP3    H249890   1.353   5.165   4.780  0.1834  1.5820  0.2085
 9467TIP3   OH249891   0.567   6.780   1.328 -0.9441  0.3015 -0.3614
 9467TIP3    H149892   0.638   6.730   1.368  0.7377  2.6346 -0.2405
 9467TIP3    H249893   0.569   6.754   1.236 -2.0185 -1.9097  0.1691
 9468TIP3   OH249894   3.721   0.450   1.646 -0.2386  0.1613 -0.2231
 9468TIP3    H149895   3.652   0.402   1.691  0.0428  0.7902  0.9356
 9468TIP3    H249896   3.732   0.530   1.698 -0.4958  1.3571 -1.9140
 9469TIP3   OH249897   4.993   3.172  12.931  0.4460  0.1181 -0.5016
 9469TIP3    H149898   5.061   3.107  12.912 -0.8447 -1.2977 -0.5169
 9469TIP3    H249899   5.008   3.241  12.867  2.1558  0.0926 -0.1867
 9470TIP3   OH249900   4.555   4.355  12.873  0.3298  0.1840 -0.0980
 9470TIP3    H149901   4.564   4.384  12.963  1.9058 -0.9532  0.1631
 9470TIP3    H249902   4.640   4.374  12.833 -0.7481  1.8604 -1.7535
 9471TIP3   OH249903   3.942   1.381   2.755 -0.1751  0.2828  0.9269
 9471TIP3    H149904   3.952   1.338   2.840 -1.7795  0.3091  1.1659
 9471TIP3    H249905   3.877   1.327   2.708 -2.2314  2.3307  1.2139
 9472TIP3   OH249906   3.473   2.748   6.476  0.3162 -0.1578  0.0629
 9472TIP3    H149907   3.507   2.836   6.488 -1.5646  0.7528 -0.9536
 9472TIP3    H249908   3.403   2.757   6.411  0.6253 -2.5374 -0.7012
 9473TIP3   OH249909   3.279   6.238  15.935 -0.3497 -0.6069  0.4243
 9473TIP3    H149910   3.262   6.299  15.864  0.2588 -1.2498 -0.2920
 9473TIP3    H249911   3.366   6.262  15.967 -0.9882  0.2639  1.5775
 9474TIP3   OH249912   0.877   1.439   0.502  0.1413  0.2417  0.8884
 9474TIP3    H149913   0.833   1.355   0.514 -0.3122 -0.2386 -2.8946
 9474TIP3    H249914   0.971   1.417   0.503  0.0915  0.0207  1.5887
 9475TIP3   OH249915   6.623   0.659  14.798 -0.0731  0.0703 -0.0278
 9475TIP3    H149916   6.648   0.628  14.885 -1.4594  0.1572  0.4268
 9475TIP3    H249917   6.702   0.649  14.745  1.2108  1.2695  1.5512
 9476TIP3   OH249918   0.399   4.671  16.149  0.3986  0.0426 -0.0827
 9476TIP3    H149919   0.463   4.734  16.181  1.6406 -1.3866  0.3523
 9476TIP3    H249920   0.403   4.678  16.054  1.2564 -0.0867 -0.0591
 9477TIP3   OH249921   3.228   5.650   5.271 -0.1370  0.5806 -0.1628
 9477TIP3    H149922   3.234   5.744   5.291 -0.0163  0.2337  1.6015
 9477TIP3    H249923   3.136   5.629   5.284  0.1074  0.1593  0.9907
 9478TIP3   OH249924   0.357   4.725   6.304 -0.2301 -0.5012  0.1704
 9478TIP3    H149925   0.386   4.800   6.356  1.9249 -0.1508 -1.3582
 9478TIP3    H249926   0.423   4.658   6.321 -0.9829 -1.3200 -0.0726
 9479TIP3   OH249927   1.152   5.965   1.390 -0.4925 -0.6185  0.0024
 9479TIP3    H149928   1.243   5.980   1.366 -0.4556  0.2984  0.6827
 9479TIP3    H249929   1.103   6.026   1.336 -0.4110  1.4684  2.1471
 9480TIP3   OH249930   1.727   0.970   5.473  0.6520 -0.0947 -0.0213
 9480TIP3    H149931   1.664   0.937   5.538  1.2617  0.2184  0.7473
 9480TIP3    H249932   1.742   1.061   5.497  1.3779 -0.1555 -0.2039
 9481TIP3   OH249933   5.192   0.774   1.373  0.0122 -0.4359  0.1701
 9481TIP3    H149934   5.157   0.857   1.342 -0.0382 -0.6461 -0.3446
 9481TIP3    H249935   5.279   0.795   1.407  0.9182 -0.5305 -1.9841
 9482TIP3   OH249936   1.310   4.173  15.274  0.5365 -0.1349  0.0173
 9482TIP3    H149937   1.355   4.126  15.204 -0.7239 -0.6753 -0.4675
 9482TIP3    H249938   1.376   4.232  15.310  1.1734  0.2834 -1.7304
 9483TIP3   OH249939   4.633   0.611   5.546 -0.4093 -0.2691 -0.2763
 9483TIP3    H149940   4.548   0.609   5.591 -0.2134  0.4107  0.1384
 9483TIP3    H249941   4.689   0.663   5.603  0.1520 -0.3098 -0.7865
 9484TIP3   OH249942   5.029   5.190   0.781 -0.1953 -0.0619 -0.8354
 9484TIP3    H149943   5.002   5.124   0.717  0.4874 -0.2001 -0.9906
 9484TIP3    H249944   5.124   5.183   0.784 -0.1983  0.1459 -0.0171
 9485TIP3   OH249945   0.889   6.247   3.679 -0.5312  0.6424 -0.0135
 9485TIP3    H149946   0.976   6.208   3.684 -0.7384  0.3268  1.9261
 9485TIP3    H249947   0.904   6.337   3.649  0.1298 -0.2312 -2.5993
 9486TIP3   OH249948   4.950   4.174   5.921  0.3547  0.5512  0.7533
 9486TIP3    H149949   4.889   4.242   5.950 -0.0157  0.5737 -0.0539
 9486TIP3    H249950   4.947   4.178   5.826  1.8159  0.7216  0.6914
 9487TIP3   OH249951   6.018   0.918  12.276 -0.2455  0.5236 -0.0056
 9487TIP3    H149952   6.050   0.998  12.319 -0.7772  1.5219 -1.4038
 9487TIP3    H249953   5.952   0.883  12.336 -0.5990  1.5927  0.2556
 9488TIP3   OH249954   1.267   4.182  11.746  0.1626  0.0775 -0.3360
 9488TIP3    H149955   1.287   4.276  11.745  0.7647 -0.0455 -0.6364
 9488TIP3    H249956   1.323   4.146  11.815 -0.1655 -0.0418 -0.1318
 9489TIP3   OH249957   4.080   3.156   3.738  0.4407 -0.4407  0.4385
 9489TIP3    H149958   4.043   3.244   3.733  2.1419  0.3297  0.8949
 9489TIP3    H249959   4.003   3.098   3.746 -0.7188  0.9389 -0.2678
 9490TIP3   OH249960   6.183   5.229  11.595  0.4872  0.1383  0.5709
 9490TIP3    H149961   6.153   5.138  11.600 -0.2531  0.3255 -0.2910
 9490TIP3    H249962   6.120   5.278  11.648  0.0425  0.3478 -0.1493
 9491TIP3   OH249963   4.302   2.570  13.761 -0.1825 -0.4172  0.1775
 9491TIP3    H149964   4.296   2.536  13.672 -0.8231 -0.8820  0.3964
 9491TIP3    H249965   4.211   2.571  13.793 -0.4371  2.7847 -0.3038
 9492TIP3   OH249966   6.615   6.803   6.221 -0.1219  0.3115  0.3918
 9492TIP3    H149967   6.651   6.786   6.133 -1.0760  0.1946  0.0156
 9492TIP3    H249968   6.626   6.897   6.233  1.4898  0.1088  0.8328
 9493TIP3   OH249969   3.643   0.234   0.517  0.0428 -0.6278 -0.5453
 9493TIP3    H149970   3.679   0.208   0.433  0.6435 -0.0808 -0.4655
 9493TIP3    H249971   3.548   0.225   0.506  0.1181 -0.5933 -1.2662
 9494TIP3   OH249972   1.680   1.029   4.378 -0.1312  0.6166  0.4095
 9494TIP3    H149973   1.688   0.978   4.297  0.9152  0.8204  0.3696
 9494TIP3    H249974   1.600   0.996   4.419 -1.7163  1.7303 -1.5690
 9495TIP3   OH249975   6.545   6.562   1.569 -0.8931  0.5153  0.0400
 9495TIP3    H149976   6.605   6.512   1.513 -0.6690  0.0069  0.7186
 9495TIP3    H249977   6.593   6.642   1.590 -0.1052 -0.2390  1.2289
 9496TIP3   OH249978   3.180   5.734  12.411 -0.6063  0.0247  0.3377
 9496TIP3    H149979   3.248   5.779  12.360 -0.8521 -1.2469 -1.1807
 9496TIP3    H249980   3.170   5.788  12.490 -0.2121  2.0963 -0.9436
 9497TIP3   OH249981   1.808   5.308   4.805 -0.1083 -0.5491 -0.4418
 9497TIP3    H149982   1.850   5.269   4.882  0.0304 -0.7718 -0.6296
 9497TIP3    H249983   1.792   5.234   4.747  0.9514 -0.2160 -1.1833
 9498TIP3   OH249984   1.223   5.352   1.553  0.1399 -0.0237 -0.4807
 9498TIP3    H149985   1.164   5.316   1.487 -1.2687  2.8834 -0.9583
 9498TIP3    H249986   1.299   5.384   1.504 -1.3474  3.0537 -1.0113
 9499TIP3   OH249987   0.024   5.726  15.739  0.1361 -0.5006  0.1981
 9499TIP3    H149988   0.076   5.730  15.819 -0.6431  0.1140  0.6915
 9499TIP3    H249989  -0.016   5.640  15.740  0.8981 -0.8649 -0.0368
 9500TIP3   OH249990   2.820   5.986   4.864 -0.0664  0.8127 -0.0876
 9500TIP3    H149991   2.730   5.954   4.860 -0.4465  1.8239 -0.1725
 9500TIP3    H249992   2.843   5.979   4.956 -0.6416  1.5336  0.1337
 9501TIP3   OH249993   2.380   3.386  12.504  0.2388  0.0015  0.4464
 9501TIP3    H149994   2.473   3.395  12.524  0.2736 -1.5675  1.1083
 9501TIP3    H249995   2.336   3.441  12.570  0.7166  2.7703 -1.3650
 9502TIP3   OH249996   0.748   2.521   5.852  0.2637 -0.2406 -0.0527
 9502TIP3    H149997   0.780   2.603   5.890  0.5971 -0.9209  1.1778
 9502TIP3    H249998   0.826   2.465   5.846  0.4076  0.0918 -2.5447
 9503TIP3   OH249999   2.906   5.038  14.274  0.2107 -0.3074 -0.1147
 9503TIP3    H150000   2.942   4.965  14.323  0.7484  0.3784  0.5486
 9503TIP3    H250001   2.877   5.001  14.191  1.4330 -1.0801 -0.2065
 9504TIP3   OH250002   2.022   4.880   3.812 -0.1115 -0.5218  0.3497
 9504TIP3    H150003   1.999   4.970   3.838 -2.2189  0.2752 -3.5634
 9504TIP3    H250004   2.108   4.889   3.771 -0.7206 -0.0722 -0.8610
 9505TIP3   OH250005   6.024   2.101   2.093 -0.5325 -0.1165 -0.6493
 9505TIP3    H150006   6.056   2.036   2.030 -2.9405 -0.3439 -1.7722
 9505TIP3    H250007   5.953   2.056   2.139 -0.1361  0.7310  0.8462
 9506TIP3   OH250008   1.702   0.761  15.050 -0.3318  0.7509 -0.0719
 9506TIP3    H150009   1.679   0.850  15.023 -1.6888 -0.3484 -3.0183
 9506TIP3    H250010   1.624   0.709  15.031  1.1543 -1.4209 -0.6507
 9507TIP3   OH250011   1.592   2.209  12.452 -0.1477 -0.1923  0.2323
 9507TIP3    H150012   1.582   2.301  12.477  0.2513  0.1626 -0.8427
 9507TIP3    H250013   1.502   2.175  12.452 -0.2750  0.1194  0.8935
 9508TIP3   OH250014   0.195   0.010  13.256  0.1091  0.3205  0.3409
 9508TIP3    H150015   0.154   0.014  13.342 -0.0974  1.4363  0.2049
 9508TIP3    H250016   0.278   0.056  13.266 -1.3073  3.3394 -0.7685
 9509TIP3   OH250017   2.286   6.459   5.414 -0.2795 -0.2116  0.2827
 9509TIP3    H150018   2.340   6.426   5.342 -0.7653  1.4791 -0.9035
 9509TIP3    H250019   2.301   6.553   5.415 -1.6733  0.0394  1.2444
 9510TIP3   OH250020   1.466   3.528   1.956 -0.2945 -0.6829  0.3939
 9510TIP3    H150021   1.538   3.464   1.956  0.9784  0.6742 -0.8366
 9510TIP3    H250022   1.407   3.497   2.024  1.2464 -2.0887  1.1725
 9511TIP3   OH250023   4.700   3.774   4.889 -0.8499 -0.0198  0.6986
 9511TIP3    H150024   4.772   3.749   4.947  1.7755  1.3281 -1.7448
 9511TIP3    H250025   4.661   3.851   4.931  1.4227  1.3394  0.4817
 9512TIP3   OH250026   2.423   6.570   3.734  0.9731  0.3494 -0.1277
 9512TIP3    H150027   2.505   6.571   3.783  0.6102  0.7706  0.4799
 9512TIP3    H250028   2.389   6.481   3.748  1.5522  0.0088 -0.7873
 9513TIP3   OH250029   4.546   6.275  13.691 -0.0142 -0.9315  0.1168
 9513TIP3    H150030   4.542   6.188  13.731  1.7038 -0.7662  0.7260
 9513TIP3    H250031   4.630   6.312  13.721 -1.5059  1.7158  1.4675
 9514TIP3   OH250032   0.127   0.982  16.754  0.1367 -0.0821  0.0231
 9514TIP3    H150033   0.212   0.961  16.794  0.7337  0.4674 -0.9239
 9514TIP3    H250034   0.115   1.075  16.772  0.0454 -0.0093 -0.4079
 9515TIP3   OH250035   6.584   0.518  12.097 -0.0687 -0.2502  0.9005
 9515TIP3    H150036   6.505   0.570  12.084 -0.4406 -0.2609  2.8091
 9515TIP3    H250037   6.656   0.575  12.069 -0.5398  0.9844  2.1160
 9516TIP3   OH250038   5.930   3.879  12.553  0.0858 -0.4482  0.2878
 9516TIP3    H150039   6.024   3.900  12.552 -0.0815  0.3154 -0.2270
 9516TIP3    H250040   5.922   3.800  12.501  0.4566 -0.5826  0.4312
 9517TIP3   OH250041   4.693   6.012  16.876  0.6249 -0.9795 -0.0259
 9517TIP3    H150042   4.784   6.034  16.856  0.4480 -0.1239  0.0507
 9517TIP3    H250043   4.642   6.079  16.830  0.0372 -1.3977  0.0100
 9518TIP3   OH250044   5.102   4.906   4.535  0.1902  0.2085 -0.2950
 9518TIP3    H150045   5.118   4.820   4.573  0.1403  1.1126  1.8967
 9518TIP3    H250046   5.189   4.946   4.528 -0.0548  1.3615  2.2808
 9519TIP3   OH250047   3.262   1.518   1.146 -0.1376 -0.0658  0.9496
 9519TIP3    H150048   3.265   1.423   1.134  2.3585  0.2805 -2.7370
 9519TIP3    H250049   3.337   1.537   1.201 -0.2322 -0.1469  1.1096
 9520TIP3   OH250050   0.944   0.898  11.732 -0.8255 -0.4359  0.0142
 9520TIP3    H150051   0.909   0.928  11.816  0.9767 -0.5408  0.8540
 9520TIP3    H250052   0.942   0.802  11.738 -1.5218 -0.4595 -0.4479
 9521TIP3   OH250053   4.682   1.366  15.318  0.4446  0.4899 -0.1308
 9521TIP3    H150054   4.696   1.384  15.411 -0.1036  1.0467 -0.1436
 9521TIP3    H250055   4.697   1.272  15.309  0.9038  0.5037  0.4419
 9522TIP3   OH250056   4.776   5.233  13.733  0.3476  0.1260  0.1318
 9522TIP3    H150057   4.862   5.203  13.703  0.6383 -1.1186  2.0002
 9522TIP3    H250058   4.756   5.308  13.678  2.3617  0.0707 -0.7694
 9523TIP3   OH250059   6.222   2.159  16.871 -0.1206 -0.0973  0.7017
 9523TIP3    H150060   6.141   2.111  16.852  0.8516 -0.9573 -1.7473
 9523TIP3    H250061   6.200   2.250  16.855 -0.6008 -0.3325 -0.0471
 9524TIP3   OH250062   5.898   6.379   4.427  0.2979  0.0018  0.2863
 9524TIP3    H150063   5.831   6.350   4.365 -0.6918 -1.9809  2.1317
 9524TIP3    H250064   5.978   6.335   4.398  0.9595  2.4460 -1.9766
 9525TIP3   OH250065   0.069   3.805  13.017 -0.0996 -0.3028  0.0780
 9525TIP3    H150066   0.139   3.841  12.964 -1.9371  2.6341 -0.5890
 9525TIP3    H250067   0.062   3.865  13.092 -0.7902 -1.5179  1.0362
 9526TIP3   OH250068   3.107   6.498   3.440 -0.3799  0.7257 -0.0295
 9526TIP3    H150069   3.056   6.566   3.397  0.7045  1.8084  0.3308
 9526TIP3    H250070   3.125   6.534   3.527 -0.4989 -0.3946  0.4732
 9527TIP3   OH250071   4.768   2.369  11.311 -0.1412 -0.5350  0.1208
 9527TIP3    H150072   4.773   2.325  11.396  0.7223 -0.4378  0.1230
 9527TIP3    H250073   4.840   2.332  11.260  0.1458  0.3411 -0.1223
 9528TIP3   OH250074   3.824   5.907  13.931 -0.0241 -0.2672  0.5579
 9528TIP3    H150075   3.827   5.989  13.882  0.3317 -0.7598 -0.2625
 9528TIP3    H250076   3.890   5.851  13.890 -1.9175 -1.8426 -0.5191
 9529TIP3   OH250077   5.381   4.008  13.198  0.0221  0.0870  0.5892
 9529TIP3    H150078   5.421   4.072  13.257  0.4592  0.5422 -0.1776
 9529TIP3    H250079   5.446   3.938  13.191  0.1479  0.2275  0.3332
 9530TIP3   OH250080   2.889   2.464   5.044  0.2672 -0.4134 -0.2263
 9530TIP3    H150081   2.877   2.377   5.005  0.3938 -0.8734  0.7117
 9530TIP3    H250082   2.803   2.485   5.080  0.4516 -0.5547  0.3153
 9531TIP3   OH250083   4.535   5.785   0.767 -0.0782  0.2542 -0.4980
 9531TIP3    H150084   4.582   5.702   0.767 -2.3297 -1.1392  1.1583
 9531TIP3    H250085   4.557   5.826   0.850 -0.7857  0.2015 -0.2821
 9532TIP3   OH250086   4.602   3.949   4.411  0.2351  0.2445  0.0570
 9532TIP3    H150087   4.553   3.918   4.487 -1.1686 -2.1868 -1.6844
 9532TIP3    H250088   4.543   4.013   4.370 -1.1483 -1.8618 -1.4259
 9533TIP3   OH250089   0.330   0.620   1.058  0.1596 -0.1154 -0.1284
 9533TIP3    H150090   0.391   0.552   1.087  1.7731  1.6552  0.8340
 9533TIP3    H250091   0.323   0.607   0.964  1.6065 -0.7296 -0.1760
 9534TIP3   OH250092   4.285   1.963   4.474 -0.1958  0.1298  0.0449
 9534TIP3    H150093   4.239   1.946   4.392  2.1868 -0.7710 -1.1966
 9534TIP3    H250094   4.275   1.883   4.524  0.4423 -0.2621 -0.4442
 9535TIP3   OH250095   2.303   1.179  14.333  0.5388 -0.0808  0.1165
 9535TIP3    H150096   2.302   1.215  14.245  2.0303 -0.8412 -0.2374
 9535TIP3    H250097   2.345   1.246  14.386 -0.3442  0.3696  0.2729
 9536TIP3   OH250098   6.195   5.720  16.553 -0.3829 -0.4069 -0.4990
 9536TIP3    H150099   6.272   5.669  16.577  0.6310  1.6772  1.0660
 9536TIP3    H250100   6.207   5.740  16.460 -0.4861 -2.3854 -0.9677
 9537TIP3   OH250101   2.797   0.311   4.668 -0.7443  0.2758 -0.3211
 9537TIP3    H150102   2.731   0.373   4.698  0.8445  1.7227  0.3395
 9537TIP3    H250103   2.797   0.320   4.572 -3.3737 -1.8102 -0.6536
 9538TIP3   OH250104   6.342   0.222   1.088  0.0506 -0.2408 -0.5205
 9538TIP3    H150105   6.280   0.291   1.064 -0.0100  0.0540  0.4148
 9538TIP3    H250106   6.321   0.203   1.180  0.4571 -1.0969 -0.5984
 9539TIP3   OH250107   6.490   2.934   6.208 -0.0689 -0.7341  0.3614
 9539TIP3    H150108   6.401   2.905   6.228 -0.2645  0.1599  0.8521
 9539TIP3    H250109   6.546   2.879   6.262 -0.3239 -1.2719  0.0838
 9540TIP3   OH250110   0.298   6.485  10.962  0.1642 -0.0018 -0.0354
 9540TIP3    H150111   0.210   6.499  10.998  0.3578 -1.9730  1.3688
 9540TIP3    H250112   0.341   6.570  10.970 -0.5689  0.2196  2.3578
 9541TIP3   OH250113   2.988   1.085   4.668  0.1534 -0.0182 -0.1099
 9541TIP3    H150114   2.917   1.064   4.728  0.9527 -0.1025  0.8365
 9541TIP3    H250115   3.050   1.012   4.677 -0.7087 -1.2074 -2.7258
 9542TIP3   OH250116   1.457   2.669  14.564 -0.3314  0.5557  0.4242
 9542TIP3    H150117   1.538   2.703  14.528  0.6176  0.2143  2.1228
 9542TIP3    H250118   1.448   2.711  14.649 -1.7101  0.2562  0.4617
 9543TIP3   OH250119   2.849   0.574  11.286 -0.0643  0.7258  0.4676
 9543TIP3    H150120   2.754   0.575  11.299  0.0725 -0.1012  1.6770
 9543TIP3    H250121   2.874   0.482  11.296  0.8147  0.8632 -0.3046
 9544TIP3   OH250122   0.085   3.612  14.998  0.5574  0.6644 -0.1575
 9544TIP3    H150123   0.089   3.546  14.930  1.1694 -0.0844  0.5843
 9544TIP3    H250124   0.004   3.594  15.045  2.1101 -1.5122  1.9142
 9545TIP3   OH250125   2.145   0.148   5.261 -0.0111 -0.5266  0.1094
 9545TIP3    H150126   2.121   0.240   5.254 -0.4312 -0.6937 -0.9338
 9545TIP3    H250127   2.240   0.147   5.249 -0.0778 -0.2750 -0.4757
 9546TIP3   OH250128   0.342   0.584  11.231  0.2356  0.7775  0.2779
 9546TIP3    H150129   0.274   0.536  11.278  1.4244  0.3586  1.6522
 9546TIP3    H250130   0.362   0.530  11.155 -0.5595  0.6256  0.1728
 9547TIP3   OH250131   6.530   1.070   0.817  0.3010  0.4652  0.3289
 9547TIP3    H150132   6.437   1.080   0.840  0.0031 -1.3957  0.0652
 9547TIP3    H250133   6.572   1.042   0.898  0.3535 -0.1093  0.1097
 9548TIP3   OH250134   1.799   2.103  12.320 -0.3527  0.0147  0.3987
 9548TIP3    H150135   1.825   2.163  12.250  1.2018  1.5808  2.2095
 9548TIP3    H250136   1.719   2.141  12.356 -0.2685  0.0920  0.5033
 9549TIP3   OH250137   2.488   6.799  12.660  0.0231 -0.2645 -0.4278
 9549TIP3    H150138   2.473   6.759  12.745 -2.9902  0.9737 -0.2602
 9549TIP3    H250139   2.545   6.875  12.678 -0.8809  0.1942  0.5635
 9550TIP3   OH250140   4.760   1.250   5.648 -0.3716 -0.5500  0.0529
 9550TIP3    H150141   4.832   1.250   5.711 -0.3319 -0.9410  0.0108
 9550TIP3    H250142   4.803   1.257   5.563 -0.3461 -1.3545 -0.0064
 9551TIP3   OH250143   6.115   0.884   1.647 -0.0152 -0.0628 -0.2130
 9551TIP3    H150144   6.126   0.841   1.731  0.0236  0.3730  0.0111
 9551TIP3    H250145   6.184   0.951   1.645  1.3167 -1.4084 -1.4641
 9552TIP3   OH250146   2.337   0.123  11.996  0.3194 -0.5144  0.5464
 9552TIP3    H150147   2.342   0.216  12.018  0.3848 -0.7166  1.3871
 9552TIP3    H250148   2.255   0.115  11.946 -0.0945 -0.1413  1.1546
 9553TIP3   OH250149   4.645   6.257   5.309  0.1243 -0.1329 -0.3016
 9553TIP3    H150150   4.688   6.176   5.281  0.8474  0.6688 -1.5795
 9553TIP3    H250151   4.705   6.295   5.374 -1.1310 -1.5434  1.7950
 9554TIP3   OH250152   2.351   0.548  13.952 -0.5354 -0.0488  0.0483
 9554TIP3    H150153   2.429   0.507  13.990  0.4265  0.0025 -1.7261
 9554TIP3    H250154   2.289   0.476  13.940 -1.2860  0.1020  2.5667
 9555TIP3   OH250155   0.987   5.435   1.220 -0.0106 -0.4515 -0.4398
 9555TIP3    H150156   1.017   5.345   1.209 -1.8606 -1.0125 -1.5428
 9555TIP3    H250157   1.027   5.482   1.147  0.0096 -0.6743 -0.5752
 9556TIP3   OH250158   4.004   2.387  14.130  0.2762 -0.4003 -0.1545
 9556TIP3    H150159   3.984   2.341  14.049  0.3729 -2.2252  0.8129
 9556TIP3    H250160   3.919   2.407  14.168  0.2331  0.3253 -0.6044
 9557TIP3   OH250161   5.358   0.123   1.599  0.0140  0.0957  0.0034
 9557TIP3    H150162   5.363   0.185   1.526 -1.1602  0.8118  0.4978
 9557TIP3    H250163   5.350   0.037   1.557 -0.4143  0.4782 -0.7100
 9558TIP3   OH250164   2.183   3.876  11.468  0.0010 -0.5441 -0.6848
 9558TIP3    H150165   2.272   3.865  11.434 -0.8855  0.5453 -3.7196
 9558TIP3    H250166   2.128   3.828  11.407 -1.8623  2.7555 -1.8730
 9559TIP3   OH250167   5.764   4.888  12.750 -0.3632  0.2133  0.2664
 9559TIP3    H150168   5.839   4.944  12.772 -0.1501 -0.3391  0.9764
 9559TIP3    H250169   5.727   4.928  12.671 -0.9742  2.0708  1.4419
 9560TIP3   OH250170   2.674   6.494  15.523 -0.2345 -0.1348 -0.4100
 9560TIP3    H150171   2.652   6.426  15.586  0.3682  0.6256  0.6382
 9560TIP3    H250172   2.633   6.464  15.441 -2.2509 -0.4454  0.6501
 9561TIP3   OH250173   4.911   2.993  16.425  0.4404 -0.4192 -0.3678
 9561TIP3    H150174   4.890   2.984  16.518  1.4206 -1.5854 -0.2390
 9561TIP3    H250175   4.847   2.939  16.380 -0.1969  0.3517 -0.4009
 9562TIP3   OH250176   4.033   3.978  16.660  0.0536  0.0643 -0.1316
 9562TIP3    H150177   4.105   4.030  16.697 -0.6223 -1.4044  3.7614
 9562TIP3    H250178   4.062   3.887  16.669 -1.5531 -0.4774 -0.1423
 9563TIP3   OH250179   2.072   4.862   5.888 -0.2219  0.0616  0.0234
 9563TIP3    H150180   2.153   4.851   5.839  0.0040  0.1811  0.3706
 9563TIP3    H250181   2.015   4.793   5.856 -0.1398  0.2551 -0.5449
 9564TIP3   OH250182   1.861   5.570  11.268 -0.1524 -0.6950  0.7148
 9564TIP3    H150183   1.838   5.639  11.330 -0.7240  0.3523 -0.5955
 9564TIP3    H250184   1.780   5.519  11.258 -1.1607  1.1409 -1.5807
 9565TIP3   OH250185   5.428   1.816   2.995  0.3581  0.1084  0.0783
 9565TIP3    H150186   5.510   1.772   2.974  0.3979 -0.0463  0.5653
 9565TIP3    H250187   5.435   1.837   3.088 -0.7241 -1.1129  0.4558
 9566TIP3   OH250188   5.872   0.196  15.679  0.4267  0.2326  0.2104
 9566TIP3    H150189   5.844   0.279  15.639 -1.6896 -1.0019 -1.0193
 9566TIP3    H250190   5.874   0.134  15.607 -0.0410 -1.2687  1.4306
 9567TIP3   OH250191   4.550   5.833   4.538  0.0769  0.1318 -0.3804
 9567TIP3    H150192   4.482   5.885   4.581 -1.0746 -1.6219  0.0556
 9567TIP3    H250193   4.502   5.759   4.501  1.6592 -0.7161 -0.7962
 9568TIP3   OH250194   0.275   4.728   2.843  0.4181 -0.0257  0.1364
 9568TIP3    H150195   0.241   4.784   2.774 -0.5377 -0.5861  0.1206
 9568TIP3    H250196   0.329   4.785   2.897 -0.9354  1.0433  0.4073
 9569TIP3   OH250197   2.808   5.325   1.429  0.0053 -0.2458  0.1886
 9569TIP3    H150198   2.855   5.391   1.479 -1.5028  1.6181 -0.7257
 9569TIP3    H250199   2.722   5.364   1.412 -0.3681 -1.7488 -1.8152
 9570TIP3   OH250200   3.223   4.434  15.478 -0.4439 -0.7347 -0.3370
 9570TIP3    H150201   3.253   4.488  15.551  0.2718 -2.0577  0.3855
 9570TIP3    H250202   3.146   4.387  15.511  0.3846 -1.9875 -0.0935
 9571TIP3   OH250203   1.051   0.835  14.203  0.8186 -0.2505 -0.0064
 9571TIP3    H150204   1.032   0.761  14.146  1.1156 -0.9873  0.8180
 9571TIP3    H250205   1.146   0.844  14.199  0.9782 -1.0739  1.2523
 9572TIP3   OH250206   5.251   3.134   3.931 -0.1995  0.4140  0.1137
 9572TIP3    H150207   5.245   3.085   4.014 -0.0182  1.7254  0.9284
 9572TIP3    H250208   5.162   3.133   3.897 -0.7255  1.5625  1.3573
 9573TIP3   OH250209   4.507   0.787   1.719 -0.9463  0.0892  0.0955
 9573TIP3    H150210   4.430   0.781   1.775 -1.4648 -1.1527 -0.6949
 9573TIP3    H250211   4.512   0.701   1.676  0.0889  0.6107 -0.8855
 9574TIP3   OH250212   3.237   2.651   5.134 -0.6550 -0.1424 -0.6087
 9574TIP3    H150213   3.207   2.563   5.157 -1.6139  0.5210  0.8462
 9574TIP3    H250214   3.317   2.663   5.185 -0.2979 -0.3055 -1.1214
 9575TIP3   OH250215   3.313   6.636   6.414 -1.0844 -0.2929 -0.6009
 9575TIP3    H150216   3.224   6.655   6.445 -1.1841 -1.0141 -0.4362
 9575TIP3    H250217   3.341   6.560   6.466 -0.2453  0.1256 -0.4118
 9576TIP3   OH250218   3.090   5.143   4.720 -0.3982  0.1227  0.5277
 9576TIP3    H150219   3.047   5.118   4.802  0.0290  0.9978  1.0411
 9576TIP3    H250220   3.174   5.181   4.748 -1.3641  2.9651 -0.0722
 9577TIP3   OH250221   0.963   4.544   1.066  0.4146 -0.0221  0.2673
 9577TIP3    H150222   0.897   4.556   1.133  1.2348  1.1261  0.9080
 9577TIP3    H250223   1.003   4.460   1.085 -0.1943 -0.2676  0.4603
 9578TIP3   OH250224   1.674   1.591   6.399 -0.2665  0.6299  0.5898
 9578TIP3    H150225   1.695   1.681   6.423  0.8946  0.4862  0.1870
 9578TIP3    H250226   1.657   1.595   6.305 -1.8425  0.6891  0.8533
 9579TIP3   OH250227   2.422   4.073  12.759 -0.7559 -0.1184  0.4597
 9579TIP3    H150228   2.502   4.058  12.810 -0.5982  1.3725  0.7139
 9579TIP3    H250229   2.351   4.063  12.822 -0.7451 -0.9208  0.3527
 9580TIP3   OH250230   3.545   6.144  12.925 -0.0759  0.8389  0.2577
 9580TIP3    H150231   3.563   6.145  13.019 -1.0445  1.5622  0.4530
 9580TIP3    H250232   3.631   6.141  12.884  0.3423 -0.0325  1.1640
 9581TIP3   OH250233   3.884   3.175  16.248  0.2014  0.2895  0.5938
 9581TIP3    H150234   3.977   3.153  16.248  0.1416 -0.1843  2.8673
 9581TIP3    H250235   3.839   3.090  16.249 -0.2068  0.5024  0.9964
 9582TIP3   OH250236   1.282   6.763  15.628  0.0496 -0.3660  0.4127
 9582TIP3    H150237   1.322   6.826  15.688 -0.2592  0.8215 -0.5752
 9582TIP3    H250238   1.275   6.811  15.545 -0.3106 -1.6767 -0.3423
 9583TIP3   OH250239   4.086   2.776  15.943  0.4519  0.3515  0.1985
 9583TIP3    H150240   4.043   2.703  15.898  1.0888 -0.4873  0.9001
 9583TIP3    H250241   4.124   2.829  15.872  0.3120 -0.2169 -0.3114
 9584TIP3   OH250242   6.763   1.655  16.191 -0.2090  0.8902 -0.1669
 9584TIP3    H150243   6.829   1.596  16.155 -2.0313  0.2661 -2.7579
 9584TIP3    H250244   6.720   1.604  16.259  0.3190  0.4155 -0.1815
 9585TIP3   OH250245   4.221   1.974  14.856  0.0914  0.2248 -0.5210
 9585TIP3    H150246   4.217   2.069  14.845  1.4120  0.3019 -0.4111
 9585TIP3    H250247   4.248   1.961  14.947  0.3891 -0.2555 -0.6763
 9586TIP3   OH250248   4.560   2.077   6.649  0.5886  0.5035  0.0786
 9586TIP3    H150249   4.634   2.047   6.595  0.2686  0.8058 -0.5419
 9586TIP3    H250250   4.535   1.999   6.700  0.4646  0.0036 -0.7193
 9587TIP3   OH250251   6.443   6.104   3.767 -0.1383  0.1990  0.6182
 9587TIP3    H150252   6.536   6.085   3.778 -0.1705 -0.2222  0.2149
 9587TIP3    H250253   6.399   6.023   3.793 -0.4125  0.4896  1.0785
 9588TIP3   OH250254   3.661   2.981  17.116 -0.4598  0.3928  0.4895
 9588TIP3    H150255   3.673   3.059  17.170 -0.4357  0.1933  0.7735
 9588TIP3    H250256   3.638   2.912  17.178  0.8859 -0.1486  0.4215
 9589TIP3   OH250257   3.877   0.955  11.622  1.0447 -0.2801  0.2458
 9589TIP3    H150258   3.905   1.008  11.697 -0.1823 -0.4218  0.8182
 9589TIP3    H250259   3.884   1.015  11.548 -0.4010  0.7705  0.8944
 9590TIP3   OH250260   4.029   6.128   2.246  0.3729 -0.6650 -0.2826
 9590TIP3    H150261   4.000   6.101   2.333  0.4261  1.6383  0.5181
 9590TIP3    H250262   3.962   6.093   2.186  0.2307 -2.1011  0.6667
 9591TIP3   OH250263   0.107   5.605   2.087 -0.2381 -0.1900 -0.2600
 9591TIP3    H150264   0.021   5.616   2.047 -1.6669  0.3714  2.7257
 9591TIP3    H250265   0.164   5.666   2.040 -1.1773 -1.1335 -2.8103
 9592TIP3   OH250266   0.829   4.375   2.864 -0.4080  0.4609 -0.0992
 9592TIP3    H150267   0.854   4.347   2.776 -1.0625  1.0215 -0.4845
 9592TIP3    H250268   0.904   4.354   2.919  0.0786  0.2595 -0.8254
 9593TIP3   OH250269   5.514   0.336   4.686  0.2016 -0.5095 -0.3053
 9593TIP3    H150270   5.433   0.382   4.705  1.8789  2.5862 -0.1363
 9593TIP3    H250271   5.516   0.264   4.749 -0.5609  1.6991  2.3929
 9594TIP3   OH250272   2.729   3.872   1.258 -0.0982 -0.2967 -0.3268
 9594TIP3    H150273   2.748   3.892   1.349 -0.3475  0.1781 -0.3752
 9594TIP3    H250274   2.699   3.780   1.259  1.8059 -0.9494 -0.2156
 9595TIP3   OH250275   3.225   2.810  13.770  0.1833  0.3085 -0.6088
 9595TIP3    H150276   3.176   2.887  13.741  1.2395  0.9712 -0.6911
 9595TIP3    H250277   3.210   2.744  13.703  1.9190  1.5413 -2.3117
 9596TIP3   OH250278   1.291   2.746   1.330 -0.5165  0.0033 -0.5734
 9596TIP3    H150279   1.200   2.775   1.322 -0.7153 -0.2816  0.5360
 9596TIP3    H250280   1.314   2.762   1.421  0.6017  0.1916 -0.8713
 9597TIP3   OH250281   6.244   2.151  17.219 -0.0171  0.0260 -0.2625
 9597TIP3    H150282   6.228   2.124  17.310 -2.2448  1.5334 -0.1373
 9597TIP3    H250283   6.204   2.081  17.167 -1.3628  0.5778 -0.0113
 9598TIP3   OH250284   2.612   2.377  16.660 -0.1364  0.2716 -0.5783
 9598TIP3    H150285   2.577   2.321  16.590  0.0376 -0.9948  0.3046
 9598TIP3    H250286   2.665   2.317  16.713  0.6444  1.4528  0.0016
 9599TIP3   OH250287   4.563   2.815  11.316 -0.8144 -0.0381 -0.4752
 9599TIP3    H150288   4.536   2.764  11.239 -1.1334 -1.1537  0.3471
 9599TIP3    H250289   4.481   2.849  11.352 -1.0448 -2.1369  1.1349
 9600TIP3   OH250290   0.939   5.290  16.258  0.3150 -0.5350 -0.0038
 9600TIP3    H150291   1.006   5.306  16.324 -0.1716  1.4808  0.0692
 9600TIP3    H250292   0.967   5.343  16.183 -0.3458 -0.9968 -0.5899
 9601TIP3   OH250293   1.440   6.208   3.385  0.4598 -0.0767 -0.1332
 9601TIP3    H150294   1.363   6.254   3.353 -0.0461 -0.5680  0.3397
 9601TIP3    H250295   1.501   6.277   3.411  1.0191  0.3453 -2.3856
 9602TIP3   OH250296   5.678   2.352  11.837 -0.1874  0.8462  0.6394
 9602TIP3    H150297   5.677   2.447  11.839 -0.8230  0.9749 -1.9916
 9602TIP3    H250298   5.590   2.327  11.810  0.5375 -0.3460 -0.7838
 9603TIP3   OH250299   4.894   3.286   0.268  0.3095 -0.1050 -0.2429
 9603TIP3    H150300   4.930   3.350   0.329 -0.4181  0.2968 -0.2190
 9603TIP3    H250301   4.938   3.302   0.185  1.6823 -0.9909  0.2854
 9604TIP3   OH250302   4.390   5.073   1.306 -0.7852 -0.5607 -0.1052
 9604TIP3    H150303   4.298   5.098   1.296 -0.7072  1.0438  2.3471
 9604TIP3    H250304   4.429   5.143   1.358  2.2932 -0.3434 -2.4268
 9605TIP3   OH250305   1.395   5.839  13.460  0.1329  0.2839 -0.3725
 9605TIP3    H150306   1.362   5.911  13.514 -1.9088 -0.1118 -1.0235
 9605TIP3    H250307   1.487   5.863  13.443  0.3358  1.2819  1.7637
 9606TIP3   OH250308   1.544   4.977   5.885 -0.1203 -0.4954 -0.1395
 9606TIP3    H150309   1.451   4.996   5.899  0.1514 -0.2626  1.5757
 9606TIP3    H250310   1.590   5.058   5.908  0.5021 -0.4994 -1.2969
 9607TIP3   OH250311   2.677   0.757   5.598 -0.0808 -0.1281 -0.3228
 9607TIP3    H150312   2.585   0.730   5.599 -0.1633  0.1622  0.7905
 9607TIP3    H250313   2.723   0.680   5.566 -0.7884  0.0266 -1.8071
 9608TIP3   OH250314   0.074   1.004  15.437  0.2157  0.3242 -0.2080
 9608TIP3    H150315   0.008   1.031  15.373 -0.1915 -0.4449 -0.1189
 9608TIP3    H250316   0.107   0.921  15.403 -0.2107 -0.2362  0.7304
 9609TIP3   OH250317   6.013   2.991   1.678  0.0688 -0.3114  0.2250
 9609TIP3    H150318   6.047   2.959   1.762 -1.1931 -0.3117  0.7556
 9609TIP3    H250319   5.935   3.041   1.702  0.2563  0.5314 -0.8712
 9610TIP3   OH250320   3.321   1.935   2.875  0.5924  0.4087 -0.5205
 9610TIP3    H150321   3.267   1.903   2.947  1.4211  1.4568  0.6021
 9610TIP3    H250322   3.390   1.869   2.865  0.5867  0.3592 -0.2301
 9611TIP3   OH250323   5.325   2.485  13.615 -0.1016  0.0669 -0.3426
 9611TIP3    H150324   5.271   2.409  13.595  1.3266 -1.5416  1.4996
 9611TIP3    H250325   5.280   2.559  13.574 -2.8992 -1.3740 -0.0712
 9612TIP3   OH250326   4.172   2.047  14.254 -0.1638  0.2193 -0.2640
 9612TIP3    H150327   4.231   2.108  14.210  0.5663  0.1929  0.6586
 9612TIP3    H250328   4.180   1.965  14.204  3.5635 -1.0291  1.9771
 9613TIP3   OH250329   0.454   3.966  13.429  0.4404  0.2071 -0.1876
 9613TIP3    H150330   0.527   3.907  13.450  0.2899  0.0373 -0.1330
 9613TIP3    H250331   0.495   4.047  13.399  0.6796  0.7869  1.6349
 9614TIP3   OH250332   3.767   0.703   1.771 -0.0076  0.0861 -0.0640
 9614TIP3    H150333   3.688   0.703   1.825 -0.5136 -0.4327 -0.7813
 9614TIP3    H250334   3.744   0.755   1.694  0.3192 -0.1480 -0.3226
 9615TIP3   OH250335   2.876   6.152   0.653 -0.2490  0.2727  0.5320
 9615TIP3    H150336   2.965   6.187   0.658  0.7415 -1.5443 -2.1914
 9615TIP3    H250337   2.868   6.095   0.730  1.4971 -0.5980  0.1178
 9616TIP3   OH250338   5.557   0.659  15.558 -0.0247 -0.3744 -0.2925
 9616TIP3    H150339   5.494   0.675  15.487 -0.8418  0.0309  0.5149
 9616TIP3    H250340   5.630   0.719  15.540 -0.1918 -0.3233 -0.8228
 9617TIP3   OH250341   0.493   2.388   5.191  0.4751  0.1252  0.0374
 9617TIP3    H150342   0.427   2.441   5.235  0.7998 -0.7513  1.6953
 9617TIP3    H250343   0.558   2.370   5.259  2.1104  0.4192 -1.3690
 9618TIP3   OH250344   6.181   4.995  10.856  0.4068  0.1997 -0.2816
 9618TIP3    H150345   6.253   5.058  10.841  2.2908 -1.8579 -0.3973
 9618TIP3    H250346   6.202   4.922  10.798 -1.7661 -0.5401 -0.1952
 9619TIP3   OH250347   4.883   0.138   2.511 -0.2145 -0.0856 -0.2765
 9619TIP3    H150348   4.912   0.182   2.431 -0.2267 -0.4803 -0.5052
 9619TIP3    H250349   4.856   0.208   2.569  1.6836  0.3365  0.1496
 9620TIP3   OH250350   4.750   1.104  12.430  0.2487  0.3168 -0.2693
 9620TIP3    H150351   4.715   1.045  12.362  1.8946  1.2077 -1.9817
 9620TIP3    H250352   4.675   1.157  12.455 -1.0184 -1.7286  0.5457
 9621TIP3   OH250353   4.424   5.847  11.572  0.2036  0.6429 -0.0416
 9621TIP3    H150354   4.351   5.797  11.609  0.1943  1.3677  0.9644
 9621TIP3    H250355   4.383   5.905  11.508  0.1417 -0.1987 -0.7906
 9622TIP3   OH250356   4.660   0.020  11.758 -0.1752  0.6809  0.3876
 9622TIP3    H150357   4.641   0.069  11.838 -2.1541  1.2156 -0.3427
 9622TIP3    H250358   4.719   0.076  11.709 -1.1155  1.6249  0.2907
 9623TIP3   OH250359   3.605   3.469   1.789 -0.6449  0.5215 -0.6217
 9623TIP3    H150360   3.565   3.532   1.849  1.0426 -0.9945  2.3648
 9623TIP3    H250361   3.564   3.385   1.813  1.4725 -0.4342 -0.1166
 9624TIP3   OH250362   2.975   6.022   4.285 -0.2823  0.5190 -0.1526
 9624TIP3    H150363   2.915   5.952   4.262 -0.4725  0.9227 -0.9175
 9624TIP3    H250364   3.062   5.982   4.281 -0.2938  0.5849 -1.7081
 9625TIP3   OH250365   3.820   3.777   2.064 -0.3655 -0.0885 -0.0251
 9625TIP3    H150366   3.826   3.682   2.070 -0.2675 -0.0509  0.4551
 9625TIP3    H250367   3.732   3.798   2.097 -0.7855 -0.0930 -1.0890
 9626TIP3   OH250368   0.279   4.573   4.333  0.1731  0.0674  0.0171
 9626TIP3    H150369   0.354   4.582   4.274 -0.8910  0.4375 -1.3293
 9626TIP3    H250370   0.287   4.484   4.369 -0.0756 -0.8567 -2.0559
 9627TIP3   OH250371   2.448   6.347   5.210  0.1971  0.0937  0.3085
 9627TIP3    H150372   2.532   6.334   5.254  0.0734 -0.2392  0.4521
 9627TIP3    H250373   2.428   6.262   5.172 -0.4121 -0.0311  0.8816
 9628TIP3   OH250374   1.357   4.694   4.098  0.1015  0.4327  0.4407
 9628TIP3    H150375   1.336   4.679   4.006  2.5229  0.1001 -0.1249
 9628TIP3    H250376   1.419   4.625   4.120 -1.3271 -0.2477  2.7315
 9629TIP3   OH250377   4.185   3.961  13.201 -0.2843 -0.5883  0.7759
 9629TIP3    H150378   4.131   4.031  13.163 -0.8036 -0.9025  0.9395
 9629TIP3    H250379   4.227   4.002  13.276 -0.4102 -0.3878  0.7393
 9630TIP3   OH250380   2.242   4.429   1.359  0.0909 -0.3334 -0.4868
 9630TIP3    H150381   2.246   4.511   1.310  0.4358 -0.0071  0.0832
 9630TIP3    H250382   2.168   4.440   1.418 -0.6855 -0.9519 -1.3137
 9631TIP3   OH250383   0.631   3.432   2.975  0.6115  0.9592 -0.1753
 9631TIP3    H150384   0.601   3.350   2.936 -0.2097 -0.0293  2.3265
 9631TIP3    H250385   0.696   3.466   2.913 -1.2494  0.0638 -2.8108
 9632TIP3   OH250386   1.891   1.781  15.725  0.1221  0.3550  0.5525
 9632TIP3    H150387   1.861   1.737  15.646 -1.9649 -0.7322  1.8395
 9632TIP3    H250388   1.858   1.871  15.717  0.8583  0.5642 -0.2622
 9633TIP3   OH250389   2.155   0.247  16.974 -0.4590 -0.1406  0.3653
 9633TIP3    H150390   2.199   0.304  16.911 -0.7783  0.3094  0.5462
 9633TIP3    H250391   2.225   0.215  17.031 -0.0733 -1.0358 -0.5814
 9634TIP3   OH250392   3.043   4.737  14.137 -0.0311  0.1520 -0.3294
 9634TIP3    H150393   3.071   4.822  14.102  1.7878  0.5329  1.8227
 9634TIP3    H250394   3.111   4.676  14.108 -1.3181 -0.6348 -1.8485
 9635TIP3   OH250395   5.803   6.036  14.309 -0.3065  0.4969  0.4892
 9635TIP3    H150396   5.805   6.084  14.226  0.5039 -0.5404 -0.1083
 9635TIP3    H250397   5.844   5.952  14.290 -0.0866  0.2391  1.9561
 9636TIP3   OH250398   2.218   5.077   2.284 -0.0618  0.0758 -0.4581
 9636TIP3    H150399   2.276   5.133   2.232 -0.8209  1.3347  0.0036
 9636TIP3    H250400   2.130   5.110   2.264 -0.5219 -0.8765 -0.0576
 9637TIP3   OH250401   2.322   6.429  12.641 -0.2414 -0.2842  0.3720
 9637TIP3    H150402   2.335   6.458  12.732 -0.9327  2.1460 -0.2339
 9637TIP3    H250403   2.410   6.404  12.611  0.1865  0.0283  1.3305
 9638TIP3   OH250404   0.679   6.297   5.733  0.3533 -1.0221 -0.1176
 9638TIP3    H150405   0.737   6.301   5.657  1.1246 -2.0578  0.3968
 9638TIP3    H250406   0.668   6.388   5.760  0.2931 -0.6621 -1.2871
 9639TIP3   OH250407   6.651   6.731  12.236 -0.2782 -0.4094 -1.0374
 9639TIP3    H150408   6.654   6.760  12.145 -1.8471  1.3859 -0.5926
 9639TIP3    H250409   6.560   6.701  12.248  0.0017 -0.9309 -0.1345
 9640TIP3   OH250410   6.095   4.373  14.803 -0.2325  0.3862 -0.5258
 9640TIP3    H150411   6.184   4.343  14.822 -0.8236 -1.7973 -0.9023
 9640TIP3    H250412   6.084   4.451  14.857  1.7000  0.3882 -0.0418
 9641TIP3   OH250413   4.825   4.710  14.542 -0.0346  0.2678  0.7499
 9641TIP3    H150414   4.812   4.655  14.619 -0.3947  0.4573  0.8292
 9641TIP3    H250415   4.811   4.652  14.467  0.7053 -0.0091  0.8204
 9642TIP3   OH250416   0.870   3.879  14.753  0.2653  0.2030  0.1676
 9642TIP3    H150417   0.867   3.867  14.848 -0.5772  0.4907  0.1879
 9642TIP3    H250418   0.826   3.802  14.718  1.3621 -0.3415 -0.0392
 9643TIP3   OH250419   3.153   0.635   4.912  0.1771 -0.1005  0.0608
 9643TIP3    H150420   3.115   0.642   5.000  1.5044  0.8694  0.5934
 9643TIP3    H250421   3.145   0.542   4.890  1.5115 -0.7308  2.0087
 9644TIP3   OH250422   0.049   6.710  11.305 -0.3386  0.0800 -0.0718
 9644TIP3    H150423  -0.028   6.654  11.301 -0.1965 -0.1382  0.1413
 9644TIP3    H250424   0.062   6.741  11.216 -0.0903 -0.6899 -0.3115
 9645TIP3   OH250425   0.504   4.600  17.032 -0.3395  0.2659 -0.5113
 9645TIP3    H150426   0.528   4.509  17.052 -1.6156 -0.4446 -2.0603
 9645TIP3    H250427   0.557   4.623  16.956 -0.3829  0.6551 -0.4264
 9646TIP3   OH250428   2.294   4.429  13.267  0.4602 -0.1453  0.3751
 9646TIP3    H150429   2.309   4.336  13.281  1.4443  0.1300  1.2822
 9646TIP3    H250430   2.371   4.459  13.218  0.4116  0.2869  0.5554
 9647TIP3   OH250431   2.805   1.400   5.497 -0.1293 -0.4263 -0.6004
 9647TIP3    H150432   2.722   1.402   5.450 -1.2238  2.8032  1.1598
 9647TIP3    H250433   2.787   1.445   5.580  3.3374  0.3754 -0.1079
 9648TIP3   OH250434   5.575   4.658  12.161 -0.1312  0.0767 -0.6575
 9648TIP3    H150435   5.616   4.741  12.186 -1.2709  0.5229 -0.2093
 9648TIP3    H250436   5.484   4.680  12.144 -0.9257 -1.3693  1.3511
 9649TIP3   OH250437   4.060   2.510   2.873  0.3981  0.6504 -0.3034
 9649TIP3    H150438   4.079   2.435   2.817  0.7692  0.8204 -0.4100
 9649TIP3    H250439   4.003   2.566   2.819 -0.7638 -0.0554  0.1685
 9650TIP3   OH250440   1.081   3.845   6.063 -0.4103  0.5704  0.2403
 9650TIP3    H150441   1.136   3.921   6.082 -0.9625  0.9384  0.3899
 9650TIP3    H250442   1.128   3.771   6.101  1.3668  0.4245 -1.9735
 9651TIP3   OH250443   0.181   6.759  16.560  0.4946 -0.3364 -0.1985
 9651TIP3    H150444   0.121   6.833  16.566  0.1971 -0.6345  0.7514
 9651TIP3    H250445   0.173   6.729  16.470  0.9675  1.0604 -0.7403
 9652TIP3   OH250446   6.474   3.566   1.752  0.0031 -0.1779 -0.5068
 9652TIP3    H150447   6.395   3.620   1.758  1.1323  1.4642  0.3241
 9652TIP3    H250448   6.448   3.482   1.791 -0.4047  1.5391  3.4684
 9653TIP3   OH250449   0.184   1.057   5.142 -0.2538 -0.0562 -0.1902
 9653TIP3    H150450   0.238   1.130   5.111  0.1950 -0.7677 -1.1294
 9653TIP3    H250451   0.246   0.995   5.179 -0.4806 -0.5824 -0.6738
 9654TIP3   OH250452   6.586   0.779   5.261 -0.2702 -0.0957  0.0505
 9654TIP3    H150453   6.668   0.797   5.309 -0.3051 -0.9916  0.4581
 9654TIP3    H250454   6.612   0.776   5.169 -0.0290  0.6538  0.0857
 9655TIP3   OH250455   3.448   6.325   4.241  0.5755 -0.4691  0.3305
 9655TIP3    H150456   3.463   6.287   4.327  0.2959 -0.5004  0.3661
 9655TIP3    H250457   3.532   6.319   4.197  0.3093 -2.0158 -0.0130
 9656TIP3   OH250458   3.992   3.345  17.068  0.7403  0.1667  0.1874
 9656TIP3    H150459   3.914   3.400  17.067  0.9006  0.4995 -2.7884
 9656TIP3    H250460   3.997   3.311  17.158 -2.2752  0.8469  0.7077
 9657TIP3   OH250461   5.212   3.645  11.473  0.3775 -0.0880 -0.1872
 9657TIP3    H150462   5.176   3.624  11.387  0.1064 -1.3664  0.2003
 9657TIP3    H250463   5.135   3.666  11.526  0.0978 -2.7020  0.6098
 9658TIP3   OH250464   6.663   4.656   4.052  0.7160  0.1790  0.7253
 9658TIP3    H150465   6.582   4.648   4.103  0.6294  0.2876  0.6051
 9658TIP3    H250466   6.684   4.750   4.055  0.7648  0.1706  0.6438
 9659TIP3   OH250467   6.011   0.819  13.706 -0.1447  0.0488  0.4144
 9659TIP3    H150468   5.944   0.761  13.741 -0.1477 -0.5982 -0.6382
 9659TIP3    H250469   6.018   0.889  13.772 -2.5387  0.6682  0.1191
 9660TIP3   OH250470   0.090   2.513  14.420 -0.4161 -0.3953 -0.2521
 9660TIP3    H150471   0.026   2.479  14.482 -0.9627  1.2246  0.1237
 9660TIP3    H250472   0.158   2.445  14.416 -1.3412 -1.4086  0.5905
 9661TIP3   OH250473   3.340   2.253  12.392 -0.0739 -0.2482  0.0480
 9661TIP3    H150474   3.264   2.216  12.347  1.0857 -5.1338  1.5440
 9661TIP3    H250475   3.304   2.294  12.471 -1.2783 -1.3229  0.0906
 9662TIP3   OH250476   5.665   4.291   2.474  0.1846 -0.0588 -0.0681
 9662TIP3    H150477   5.582   4.336   2.488  0.1346 -0.1999  0.0824
 9662TIP3    H250478   5.723   4.326   2.542  0.3887  0.3815 -0.4534
 9663TIP3   OH250479   1.612   4.670  12.580 -0.1198  0.5180  0.3192
 9663TIP3    H150480   1.556   4.594  12.597  0.8369 -0.3536 -0.3312
 9663TIP3    H250481   1.561   4.724  12.520  0.1441 -0.8213 -1.1935
 9664TIP3   OH250482   2.981   0.860   2.949  0.7567 -0.1371  0.3604
 9664TIP3    H150483   2.938   0.781   2.917 -0.8197 -0.0807  2.1263
 9664TIP3    H250484   3.072   0.851   2.922 -0.0028 -1.0497 -2.1622
 9665TIP3   OH250485   5.010   3.867   2.711 -0.0089  0.5045 -0.1072
 9665TIP3    H150486   5.018   3.841   2.803  0.5479  1.0450  0.0048
 9665TIP3    H250487   4.929   3.918   2.707  0.5402  1.4426  0.3287
 9666TIP3   OH250488   1.815   6.384  15.964  0.7520  0.1787 -0.4393
 9666TIP3    H150489   1.795   6.378  16.058  0.7704  0.0900 -0.4411
 9666TIP3    H250490   1.796   6.297  15.930  1.3801  0.0258 -0.4001
 9667TIP3   OH250491   6.512   3.844   1.016  0.3646  0.4017  0.0712
 9667TIP3    H150492   6.595   3.878   1.050  0.8593  0.8288 -1.4685
 9667TIP3    H250493   6.522   3.749   1.019  1.2140  0.4448 -0.7444
 9668TIP3   OH250494   2.007   2.697  13.407  0.0145 -0.1721 -0.2727
 9668TIP3    H150495   1.951   2.651  13.469  1.6459 -0.5713  0.9797
 9668TIP3    H250496   2.057   2.628  13.364  0.9372  0.2595  0.0703
 9669TIP3   OH250497   5.328   3.526  13.164 -0.4147 -0.2053  0.1121
 9669TIP3    H150498   5.245   3.493  13.130 -1.2577  0.7803  1.1619
 9669TIP3    H250499   5.306   3.607  13.209  1.0506 -0.1572  0.8183
 9670TIP3   OH250500   4.539   2.134   3.063  0.1555 -0.7044 -0.6931
 9670TIP3    H150501   4.450   2.169   3.061  0.2692 -0.3580  0.0658
 9670TIP3    H250502   4.573   2.150   2.975 -0.8507 -1.7067 -1.2845
 9671TIP3   OH250503   3.781   5.578   0.363 -0.3287  0.2779  0.2250
 9671TIP3    H150504   3.784   5.594   0.457 -4.6584  0.9730  0.4401
 9671TIP3    H250505   3.810   5.661   0.324  2.9129 -0.4698  0.7557
 9672TIP3   OH250506   2.893   2.458  17.051 -0.0894 -0.5596 -0.6658
 9672TIP3    H150507   2.888   2.367  17.021  1.5808 -0.4892 -1.2399
 9672TIP3    H250508   2.977   2.465  17.095 -1.1539  0.1591  1.4188
 9673TIP3   OH250509   3.910   0.817  14.264 -0.4155  0.5621  0.5532
 9673TIP3    H150510   3.822   0.840  14.295 -0.8623 -0.7761  0.3309
 9673TIP3    H250511   3.903   0.817  14.169 -0.6958 -1.2973  0.5268
 9674TIP3   OH250512   1.326   6.731   0.023 -0.5014 -0.1886 -0.3284
 9674TIP3    H150513   1.406   6.682   0.008 -0.8713 -1.6237  1.9064
 9674TIP3    H250514   1.351   6.822   0.010  1.1658 -0.6980 -0.9507
 9675TIP3   OH250515   5.697   3.113  14.286  0.4298  0.0766  0.1749
 9675TIP3    H150516   5.782   3.109  14.241  0.4837 -2.7388  0.3525
 9675TIP3    H250517   5.633   3.099  14.216  0.3159 -0.9433  0.4755
 9676TIP3   OH250518   1.688   5.826   3.587 -0.2438  0.2052 -1.0744
 9676TIP3    H150519   1.688   5.734   3.560 -1.0454 -0.3096  0.5640
 9676TIP3    H250520   1.776   5.858   3.567  0.0773 -0.9545 -1.5401
 9677TIP3   OH250521   3.285   3.262  10.839 -0.2673  0.1217  0.0262
 9677TIP3    H150522   3.305   3.172  10.867 -2.9944 -0.2951  0.9204
 9677TIP3    H250523   3.290   3.259  10.744  1.0431 -0.5810  0.0859
 9678TIP3   OH250524   2.348   1.041   3.521 -0.2026 -0.0061  0.2893
 9678TIP3    H150525   2.423   1.002   3.565 -1.8455 -1.2751  2.1260
 9678TIP3    H250526   2.338   1.127   3.563 -0.2079 -0.1514  0.5917
 9679TIP3   OH250527   2.068   1.876   4.787 -0.0588 -0.9224  0.8359
 9679TIP3    H150528   2.050   1.837   4.702 -1.5899 -1.2391  1.2728
 9679TIP3    H250529   2.041   1.968   4.778  1.0977 -0.5960  0.5789
 9680TIP3   OH250530   1.748   0.339  15.552 -0.5268 -0.1035 -0.0073
 9680TIP3    H150531   1.702   0.400  15.496  0.7593 -0.8346 -1.9854
 9680TIP3    H250532   1.690   0.263  15.558  0.2166 -0.9330 -2.2955
 9681TIP3   OH250533   4.871   0.631   1.607 -0.2371 -0.2259 -0.0375
 9681TIP3    H150534   4.848   0.574   1.533 -2.9273 -0.4562  0.8626
 9681TIP3    H250535   4.807   0.702   1.603  0.1635  0.2634  1.5382
 9682TIP3   OH250536   1.046   6.031  16.427  0.1632  0.3591  0.5854
 9682TIP3    H150537   0.998   6.114  16.428 -0.6983 -0.1360  1.0436
 9682TIP3    H250538   1.023   5.991  16.343  0.9297  0.7775  0.1691
 9683TIP3   OH250539   0.451   0.813  15.838 -0.5754  0.1923 -0.1188
 9683TIP3    H150540   0.501   0.854  15.910  0.8387 -1.7217  0.0673
 9683TIP3    H250541   0.481   0.859  15.760 -2.7214  2.8662  0.4753
 9684TIP3   OH250542   3.112   3.334  11.290 -0.0802  0.2016  0.5889
 9684TIP3    H150543   3.031   3.326  11.340 -0.3846 -0.2408  0.0404
 9684TIP3    H250544   3.180   3.306  11.351 -0.5507 -1.2926  0.4843
 9685TIP3   OH250545   4.985   1.163   1.131  0.0944 -0.6399 -0.0577
 9685TIP3    H150546   5.067   1.190   1.088  1.1590 -2.1193  0.9565
 9685TIP3    H250547   4.959   1.240   1.183  1.1160 -0.3077 -0.0146
 9686TIP3   OH250548   4.923   5.429   0.671  0.4204  0.1002 -0.4996
 9686TIP3    H150549   4.975   5.495   0.717  0.2348 -1.1615  1.6131
 9686TIP3    H250550   4.962   5.346   0.697 -0.8893 -0.7412 -1.1497
 9687TIP3   OH250551   4.595   2.635  13.069 -0.3624  0.4228  0.8850
 9687TIP3    H150552   4.625   2.721  13.100 -3.5561  2.1825 -0.4884
 9687TIP3    H250553   4.500   2.639  13.076 -0.8328 -1.7588 -2.3085
 9688TIP3   OH250554   4.517   2.936   5.708  0.3315 -0.3409  0.1397
 9688TIP3    H150555   4.473   3.018   5.688 -0.5337 -0.5327  1.1853
 9688TIP3    H250556   4.450   2.869   5.698  0.9202 -0.8792 -0.2796
 9689TIP3   OH250557   1.461   0.654   0.297  0.4446 -0.1638  0.0233
 9689TIP3    H150558   1.520   0.668   0.223  1.0298 -0.1229  0.5013
 9689TIP3    H250559   1.518   0.636   0.371 -0.1324  0.0542  0.5285
 9690TIP3   OH250560   2.610   4.125  16.614 -0.1639  0.3975  0.6676
 9690TIP3    H150561   2.640   4.068  16.684 -0.0385  1.5547  1.6005
 9690TIP3    H250562   2.657   4.207  16.628 -1.5480  1.2837  0.3841
 9691TIP3   OH250563   4.463   2.873  12.557  0.1136  0.2496  0.2426
 9691TIP3    H150564   4.432   2.937  12.621  0.7336  1.1567 -0.3334
 9691TIP3    H250565   4.527   2.820  12.605  0.1050  0.5060  0.5402
 9692TIP3   OH250566   1.065   3.090  12.923 -0.6123  0.1128  0.3734
 9692TIP3    H150567   1.081   3.048  13.008  2.0693  0.5118  0.1546
 9692TIP3    H250568   1.101   3.028  12.860  1.4213  1.6951 -0.1064
 9693TIP3   OH250569   6.049   1.801   1.165  0.0405 -0.1783  0.2580
 9693TIP3    H150570   5.983   1.782   1.099 -0.8387  1.7053  0.5297
 9693TIP3    H250571   6.031   1.740   1.236 -0.4452 -0.6924 -0.3034
 9694TIP3   OH250572   0.744   0.330   4.816 -0.1268 -0.2100 -0.3760
 9694TIP3    H150573   0.791   0.410   4.838  2.8645 -2.0537  0.6441
 9694TIP3    H250574   0.689   0.313   4.892 -0.8170  0.8515 -0.6194
 9695TIP3   OH250575   3.667   0.052  13.221 -0.0311 -0.2796  0.1641
 9695TIP3    H150576   3.758   0.080  13.221  0.2587 -0.9824 -2.3768
 9695TIP3    H250577   3.670  -0.041  13.243 -0.3955  0.1117  2.1038
 9696TIP3   OH250578   5.465   1.921   3.666  0.3245  0.2233  0.3434
 9696TIP3    H150579   5.438   1.857   3.733 -0.0494 -0.4546 -0.4326
 9696TIP3    H250580   5.542   1.881   3.625 -1.2853 -0.9217 -1.7542
 9697TIP3   OH250581   0.770   4.326   0.583  0.2354  0.1610 -0.0858
 9697TIP3    H150582   0.804   4.356   0.667 -0.2143  2.6245 -0.7179
 9697TIP3    H250583   0.682   4.296   0.603 -0.4557  2.1955  0.1249
 9698TIP3   OH250584   3.130   2.635  13.577 -0.1741  0.6486 -0.3126
 9698TIP3    H150585   3.084   2.691  13.515 -1.5263  0.2320  0.2723
 9698TIP3    H250586   3.201   2.595  13.526 -1.1737  0.4081 -1.5688
 9699TIP3   OH250587   0.258   1.156  14.697  0.1639 -0.5297 -0.1020
 9699TIP3    H150588   0.238   1.239  14.740 -0.6521 -1.0774  0.6077
 9699TIP3    H250589   0.288   1.181  14.610 -0.5722  0.4897 -0.0856
 9700TIP3   OH250590   5.435   4.200   5.210 -0.0556  0.0729  0.6320
 9700TIP3    H150591   5.369   4.248   5.161  0.2626  1.4691  1.4969
 9700TIP3    H250592   5.453   4.122   5.158 -1.3536  0.3763 -0.3039
 9701TIP3   OH250593   3.887   1.406  16.209 -0.2652  0.3350  0.5909
 9701TIP3    H150594   3.839   1.344  16.154 -3.0843  0.5237  2.6722
 9701TIP3    H250595   3.915   1.354  16.284  1.9548  0.5066 -0.0301
 9702TIP3   OH250596   3.219   5.758  11.870  0.2304  0.4750  0.3650
 9702TIP3    H150597   3.173   5.805  11.940  1.0886  3.4138 -0.8824
 9702TIP3    H250598   3.292   5.816  11.847 -0.3290 -0.0841 -3.3306
 9703TIP3   OH250599   3.271   6.733   0.431 -0.0954 -0.3040  0.1754
 9703TIP3    H150600   3.248   6.666   0.365  0.0113  1.0956 -1.3441
 9703TIP3    H250601   3.215   6.807   0.409  0.9617  0.6941  0.7923
 9704TIP3   OH250602   0.457   5.374  16.530 -0.3944 -0.1790 -0.3542
 9704TIP3    H150603   0.415   5.303  16.481 -0.4130  0.0973 -0.7521
 9704TIP3    H250604   0.468   5.340  16.618  0.7921 -1.1722 -0.8475
 9705TIP3   OH250605   2.468   2.371   0.299 -0.9608 -0.2208  0.0211
 9705TIP3    H150606   2.404   2.385   0.229 -1.4166  2.6228  0.8883
 9705TIP3    H250607   2.423   2.316   0.362 -3.4239  3.1266  1.4630
 9706TIP3   OH250608   3.801   4.328   3.689  0.1782 -0.1611 -0.2506
 9706TIP3    H150609   3.780   4.398   3.627 -0.6746  2.3469  2.6331
 9706TIP3    H250610   3.717   4.307   3.731  0.4922 -2.7170 -0.7215
 9707TIP3   OH250611   1.494   1.691  16.779  0.0609 -0.3785 -0.4495
 9707TIP3    H150612   1.458   1.679  16.691 -2.2887 -0.7857  0.4982
 9707TIP3    H250613   1.545   1.612  16.795  0.2083 -0.4653 -1.2732
 9708TIP3   OH250614   1.927   3.582   3.283 -0.1307 -0.2150  0.2505
 9708TIP3    H150615   1.931   3.544   3.371  0.7301 -0.8169 -0.0353
 9708TIP3    H250616   1.931   3.506   3.225 -2.8350 -0.0132 -0.3216
 9709TIP3   OH250617   6.447   3.185   2.752  0.3769  0.9326  0.1697
 9709TIP3    H150618   6.516   3.207   2.689 -1.1749  2.7997 -0.9884
 9709TIP3    H250619   6.379   3.142   2.699  0.0887  0.2497  1.0603
 9710TIP3   OH250620   0.568   4.741  12.259 -0.2852  0.8708 -0.0591
 9710TIP3    H150621   0.552   4.695  12.342 -1.4808  1.5849  0.1405
 9710TIP3    H250622   0.653   4.709  12.230 -0.7432 -0.9261  0.4215
 9711TIP3   OH250623   6.463   5.196  15.360 -0.2795 -0.3662  0.3699
 9711TIP3    H150624   6.450   5.267  15.422 -2.1194 -0.8495  0.6047
 9711TIP3    H250625   6.470   5.239  15.275 -0.1045  0.1630  0.6503
 9712TIP3   OH250626   1.061   2.812   1.229 -0.4144 -0.0349  0.1289
 9712TIP3    H150627   1.061   2.822   1.134  0.6945  0.0343  0.1141
 9712TIP3    H250628   0.970   2.797   1.253 -1.2798  3.2756 -0.6022
 9713TIP3   OH250629   3.693   6.280   2.607  0.1516 -0.2879 -0.2836
 9713TIP3    H150630   3.690   6.373   2.582  0.3157 -0.5017 -1.1483
 9713TIP3    H250631   3.707   6.281   2.701  1.5654  0.5719 -0.4716
 9714TIP3   OH250632   4.778   2.967   5.787 -0.0667 -0.0780  0.3433
 9714TIP3    H150633   4.687   2.962   5.756 -0.1470  2.2740  0.0224
 9714TIP3    H250634   4.828   2.919   5.720 -1.0672 -1.8262  0.7721
 9715TIP3   OH250635   0.666   5.285   0.946 -0.1099 -0.4525 -0.2169
 9715TIP3    H150636   0.642   5.310   1.035 -0.5715 -0.1060 -0.4367
 9715TIP3    H250637   0.744   5.338   0.927 -0.7044  0.3580 -0.4459
 9716TIP3   OH250638   5.031   5.986   0.070  0.3515 -0.4422  0.2262
 9716TIP3    H150639   5.085   5.908   0.064  1.7810  0.4721  0.6450
 9716TIP3    H250640   5.093   6.058   0.079 -0.8020  1.0170 -2.2889
 9717TIP3   OH250641   6.222   5.553   1.136  0.6041 -0.0032  0.1805
 9717TIP3    H150642   6.196   5.642   1.159 -0.5251 -0.0310 -0.8721
 9717TIP3    H250643   6.272   5.562   1.055  0.4428 -0.3308  0.0422
 9718TIP3   OH250644   2.969   1.430   0.413  0.3614  0.1362 -0.1894
 9718TIP3    H150645   3.039   1.394   0.468  1.1711 -0.9267 -1.8398
 9718TIP3    H250646   2.945   1.513   0.455  1.8609  0.0103  0.9876
 9719TIP3   OH250647   3.198   3.833   0.844 -0.7153  0.5204  0.5055
 9719TIP3    H150648   3.133   3.894   0.879 -0.5157  1.0325 -0.0067
 9719TIP3    H250649   3.282   3.873   0.864 -0.5340 -0.2816  1.4198
 9720TIP3   OH250650   1.663   2.367  13.017  0.7677 -0.6117  0.1576
 9720TIP3    H150651   1.651   2.406  13.104 -0.7560 -3.5436  1.4268
 9720TIP3    H250652   1.580   2.384  12.972  0.7888 -0.8065  0.0436
 9721TIP3   OH250653   2.563   4.826   6.550 -0.1148  0.5023  0.6723
 9721TIP3    H150654   2.650   4.863   6.563 -0.7939  1.3474  3.4283
 9721TIP3    H250655   2.571   4.736   6.582  0.4988 -0.5987 -2.2407
 9722TIP3   OH250656   3.507   5.813   5.424 -0.2764 -0.4226  0.0718
 9722TIP3    H150657   3.515   5.885   5.486  1.7777 -1.4442  1.1057
 9722TIP3    H250658   3.416   5.814   5.397 -0.5319  1.8911  0.8499
 9723TIP3   OH250659   6.076   5.682  15.721  0.6817 -0.2428 -0.3647
 9723TIP3    H150660   6.021   5.732  15.660  0.8000 -1.1711 -1.2503
 9723TIP3    H250661   6.024   5.679  15.802  0.1260  0.2380 -0.6903
 9724TIP3   OH250662   0.819   0.892   6.504 -0.2458  0.2613 -0.4073
 9724TIP3    H150663   0.874   0.862   6.577  0.2151 -0.3659 -1.0020
 9724TIP3    H250664   0.735   0.912   6.544  0.7385  2.4100  0.7469
 9725TIP3   OH250665   2.487   1.113  15.400 -0.6156  0.1197  0.3484
 9725TIP3    H150666   2.478   1.199  15.442 -0.0426 -0.0626  0.8563
 9725TIP3    H250667   2.414   1.062  15.434  0.1386 -0.1930  1.5655
 9726TIP3   OH250668   2.824   0.808   0.925  0.3482 -0.2492 -0.3421
 9726TIP3    H150669   2.760   0.811   0.996  0.4537  1.0431 -0.2862
 9726TIP3    H250670   2.908   0.825   0.967  0.5707 -0.6827 -0.6006
 9727TIP3   OH250671   4.418   3.190  13.173 -0.4917  0.3978  0.1966
 9727TIP3    H150672   4.404   3.171  13.265 -1.2075 -0.5622 -0.0895
 9727TIP3    H250673   4.513   3.184  13.160 -0.4685 -0.4015  0.6821
 9728TIP3   OH250674   5.724   6.170   4.289 -0.0648 -0.1811  0.3140
 9728TIP3    H150675   5.687   6.153   4.376  0.0133 -2.3900 -0.0151
 9728TIP3    H250676   5.791   6.102   4.279 -1.5543 -1.4031 -2.3160
 9729TIP3   OH250677   0.430   2.033  15.885 -0.2840  0.1469 -0.3657
 9729TIP3    H150678   0.353   2.084  15.910  1.2435  2.4433 -0.0306
 9729TIP3    H250679   0.455   2.068  15.800  0.4633 -0.4825 -0.4093
 9730TIP3   OH250680   1.804   4.913  11.689  0.6925  0.3692  0.0374
 9730TIP3    H150681   1.795   4.833  11.741  1.6326 -0.6307 -1.2477
 9730TIP3    H250682   1.890   4.947  11.712 -0.2289  1.8253  1.5837
 9731TIP3   OH250683   0.425   0.012   3.166 -0.2148  0.2540 -0.4746
 9731TIP3    H150684   0.376   0.011   3.084  0.1375  0.7854 -0.6998
 9731TIP3    H250685   0.456   0.102   3.174 -3.7659  1.4362  2.3935
 9732TIP3   OH250686   0.114   0.018  15.365  0.6307 -0.4636  0.4847
 9732TIP3    H150687   0.119  -0.017  15.276 -1.3772  0.7310 -0.1548
 9732TIP3    H250688   0.023   0.003  15.391  0.3294  2.0679  1.0865
 9733TIP3   OH250689   0.488   3.614  10.719  0.3379  0.1643  0.2489
 9733TIP3    H150690   0.524   3.675  10.654  1.0999 -0.1916  0.3348
 9733TIP3    H250691   0.399   3.598  10.689  0.8727 -0.4813 -1.0638
 9734TIP3   OH250692   4.095   5.213   4.777 -0.6918  0.3721 -0.0420
 9734TIP3    H150693   4.048   5.132   4.755 -2.2344  1.0184  0.6894
 9734TIP3    H250694   4.124   5.248   4.693  0.9669 -1.4578 -0.2976
 9735TIP3   OH250695   1.069   3.116   2.418 -0.6085 -0.3389  0.3539
 9735TIP3    H150696   1.010   3.101   2.491 -0.0403  1.7049  1.3121
 9735TIP3    H250697   1.014   3.155   2.350 -0.3570  2.3329  1.5378
 9736TIP3   OH250698   3.958   6.418  16.071  0.2334 -0.5533 -0.7576
 9736TIP3    H150699   3.901   6.347  16.101  2.1839 -2.2009 -0.8240
 9736TIP3    H250700   4.045   6.394  16.100  0.9671  1.9045 -0.6838
 9737TIP3   OH250701   6.783   1.451   0.475 -0.2628 -0.1550  0.5020
 9737TIP3    H150702   6.776   1.359   0.501  0.4133 -0.0493  1.0833
 9737TIP3    H250703   6.743   1.499   0.547 -0.2519  0.0299  0.3841
 9738TIP3   OH250704   2.731   1.820  12.112 -0.5911  1.0092 -0.0393
 9738TIP3    H150705   2.736   1.843  12.019  0.4030  1.5509  0.1298
 9738TIP3    H250706   2.698   1.730  12.113  0.2525  0.6683 -0.9593
 9739TIP3   OH250707   4.952   0.683   0.616  0.2811 -0.2286  0.3768
 9739TIP3    H150708   4.910   0.631   0.685  1.1896 -2.1003 -0.3883
 9739TIP3    H250709   5.043   0.691   0.645  0.6653 -1.0200 -0.5449
 9740TIP3   OH250710   6.812   1.968  12.180 -0.5069  0.0079 -0.1396
 9740TIP3    H150711   6.874   1.982  12.109  1.9349 -1.6889  1.5122
 9740TIP3    H250712   6.793   2.056  12.213 -0.7310  0.7192 -2.0492
 9741TIP3   OH250713   0.473   2.132   5.743 -0.0311  0.3744 -0.5311
 9741TIP3    H150714   0.521   2.209   5.711 -0.3431  1.2339  0.9804
 9741TIP3    H250715   0.414   2.110   5.671 -0.2035  1.7766 -0.8594
 9742TIP3   OH250716   3.422   4.036  15.653 -0.3303  0.1433  0.2601
 9742TIP3    H150717   3.330   4.050  15.628 -0.2634  0.2424  0.0633
 9742TIP3    H250718   3.437   3.943  15.636 -0.3645  0.1498  0.1926
 9743TIP3   OH250719   5.890   3.695   1.630 -0.4344 -0.1883  0.1340
 9743TIP3    H150720   5.918   3.650   1.551  0.9409  0.0858  0.4524
 9743TIP3    H250721   5.849   3.776   1.598  0.7521  0.2627 -0.2781
 9744TIP3   OH250722   3.722   1.921  13.269  0.4118 -0.1369 -0.1826
 9744TIP3    H150723   3.771   1.918  13.187  0.7282  1.4450 -0.0739
 9744TIP3    H250724   3.781   1.881  13.333 -0.2715 -2.4484 -0.8693
 9745TIP3   OH250725   1.870   5.808  15.137 -0.1365  0.3343 -0.0787
 9745TIP3    H150726   1.943   5.765  15.180 -0.7830 -0.8125 -0.0983
 9745TIP3    H250727   1.871   5.774  15.048 -0.0540  1.1328 -0.3957
 9746TIP3   OH250728   3.766   6.215  15.419 -0.0276  0.0625  0.0202
 9746TIP3    H150729   3.753   6.264  15.500 -1.5381  1.1384 -0.8266
 9746TIP3    H250730   3.848   6.168  15.433 -0.6868 -0.5054  2.5138
 9747TIP3   OH250731   0.466   1.477   0.370 -0.5606  0.0515 -0.1768
 9747TIP3    H150732   0.428   1.401   0.413 -1.9017  0.3911 -0.7150
 9747TIP3    H250733   0.500   1.531   0.442 -0.1625 -0.7343  0.2421
 9748TIP3   OH250734   2.281   3.135   1.377  0.2278  0.0714 -0.1997
 9748TIP3    H150735   2.255   3.190   1.303  0.2026  0.7039  0.2714
 9748TIP3    H250736   2.203   3.132   1.433  1.0681  1.8244  1.1318
 9749TIP3   OH250737   0.746   5.383  11.129 -0.0127 -0.4132  0.3729
 9749TIP3    H150738   0.650   5.387  11.133 -0.1081 -1.5546 -0.3666
 9749TIP3    H250739   0.765   5.352  11.041  1.0012 -1.1992  0.8502
 9750TIP3   OH250740   6.048   3.306   4.713 -0.7073  0.6579 -0.1940
 9750TIP3    H150741   6.010   3.223   4.686 -0.6550  0.3513  0.6610
 9750TIP3    H250742   6.070   3.295   4.805  1.6976  0.7297 -0.6834
 9751TIP3   OH250743   0.512   4.507   4.184  0.0119  0.2684 -0.0538
 9751TIP3    H150744   0.555   4.457   4.115  0.8062  1.3387 -0.3639
 9751TIP3    H250745   0.579   4.516   4.252  0.2837  1.8461 -0.4867
 9752TIP3   OH250746   4.022   3.763  11.083  0.0902  0.7743 -0.2788
 9752TIP3    H150747   4.060   3.803  11.161 -1.1998  0.3270  0.6073
 9752TIP3    H250748   3.955   3.825  11.054 -1.6653 -0.5158  0.8859
 9753TIP3   OH250749   3.701   4.343  16.205 -0.8459  0.6215 -0.2728
 9753TIP3    H150750   3.662   4.289  16.274 -0.2536  1.4317  0.7154
 9753TIP3    H250751   3.648   4.422  16.203  1.0917  2.0741  1.6058
 9754TIP3   OH250752   0.461   0.410   5.248 -0.0078  0.3483  0.1909
 9754TIP3    H150753   0.430   0.430   5.160  0.8768 -1.4673 -0.5824
 9754TIP3    H250754   0.482   0.317   5.246  0.7654  0.4280  2.1062
 9755TIP3   OH250755   3.481   2.526   3.103 -0.1693 -0.1567  0.6219
 9755TIP3    H150756   3.468   2.609   3.058  2.1408  0.0993  0.3205
 9755TIP3    H250757   3.540   2.546   3.175  1.6995 -1.7465 -0.3660
 9756TIP3   OH250758   2.770   4.975  11.801  0.0447  0.2968 -0.0371
 9756TIP3    H150759   2.849   4.994  11.751 -0.6169 -1.3008 -1.8252
 9756TIP3    H250760   2.733   4.897  11.758 -1.7808  0.2010  1.5759
 9757TIP3   OH250761   0.467   0.895  15.567  0.1563  0.3704 -0.4451
 9757TIP3    H150762   0.559   0.901  15.595  0.5110 -4.1400  0.1090
 9757TIP3    H250763   0.467   0.826  15.501 -2.8400  0.2916 -0.4956
 9758TIP3   OH250764   1.132   4.802  13.904  0.7210  0.4751  0.4461
 9758TIP3    H150765   1.197   4.744  13.944 -0.0115  0.3662  1.5074
 9758TIP3    H250766   1.048   4.758  13.918  0.2295  1.4267  0.6107
 9759TIP3   OH250767   0.051   3.681   5.268 -0.0554  0.8902  0.2699
 9759TIP3    H150768   0.096   3.597   5.262 -1.1935  0.0132  2.6242
 9759TIP3    H250769   0.110   3.736   5.320  0.8801  1.7773 -1.6125
 9760TIP3   OH250770   6.283   1.659  13.411 -0.2040 -0.1623 -0.2666
 9760TIP3    H150771   6.321   1.661  13.322 -0.7191  1.1486 -0.4877
 9760TIP3    H250772   6.293   1.749  13.442 -2.3458  0.0249  0.0013
 9761TIP3   OH250773   0.111   0.667   1.844 -0.0882  0.4318 -0.1505
 9761TIP3    H150774   0.200   0.671   1.808  0.2218  0.3874  0.5879
 9761TIP3    H250775   0.070   0.748   1.815 -0.2643 -0.1607 -1.6467
 9762TIP3   OH250776   6.511   0.337   0.711  0.5919 -0.4483 -0.2768
 9762TIP3    H150777   6.434   0.300   0.753 -0.3868  1.7150 -0.0427
 9762TIP3    H250778   6.485   0.350   0.620  0.8068 -0.0779 -0.2877
 9763TIP3   OH250779   5.668   4.571  10.899 -0.1900 -0.3052 -0.3392
 9763TIP3    H150780   5.701   4.649  10.855  1.8693 -0.5486  0.6531
 9763TIP3    H250781   5.697   4.580  10.989 -1.7348 -1.2455  0.2961
 9764TIP3   OH250782   4.763   5.297   2.979  0.0076  0.4251  0.0080
 9764TIP3    H150783   4.698   5.264   2.917 -0.7741  1.4209  0.2539
 9764TIP3    H250784   4.792   5.220   3.027  0.7021 -0.3885 -1.6258
 9765TIP3   OH250785   1.279   4.214  12.703  0.4147  0.3595  0.3611
 9765TIP3    H150786   1.224   4.226  12.626 -1.5537  0.8005  1.7833
 9765TIP3    H250787   1.293   4.119  12.708 -0.7325  0.1782  0.3140
 9766TIP3   OH250788   2.584   5.948   1.990 -0.4678 -0.5360 -0.0670
 9766TIP3    H150789   2.535   6.023   2.021 -0.6700 -1.0356  0.8486
 9766TIP3    H250790   2.564   5.878   2.052 -0.2509 -1.3410 -0.8709
 9767TIP3   OH250791   1.285   4.602  13.692 -0.2031 -0.1791 -0.4358
 9767TIP3    H150792   1.331   4.524  13.662  1.5829  0.8388 -0.5373
 9767TIP3    H250793   1.204   4.605  13.641 -0.3275 -1.9659 -0.3839
 9768TIP3   OH250794   1.441   2.242  14.195 -0.0041  0.5136  0.0073
 9768TIP3    H150795   1.520   2.294  14.212  0.1579  1.0472 -2.1055
 9768TIP3    H250796   1.380   2.268  14.263  1.1221  1.2148  0.7836
 9769TIP3   OH250797   4.847   2.359   2.309 -0.3622  0.5444  0.2103
 9769TIP3    H150798   4.794   2.283   2.288 -1.7069  0.4418  3.4440
 9769TIP3    H250799   4.936   2.325   2.317  0.2418  0.5107 -4.0489
 9770TIP3   OH250800   1.080   5.887   5.488 -0.1921 -0.5186 -0.4476
 9770TIP3    H150801   0.992   5.860   5.513 -0.6672  0.3985 -1.0541
 9770TIP3    H250802   1.128   5.893   5.570 -0.8770 -0.4369 -0.0480
 9771TIP3   OH250803   4.498   4.965  16.270 -0.1986  0.0716 -0.4675
 9771TIP3    H150804   4.544   4.974  16.186  0.4760  2.9386  0.1027
 9771TIP3    H250805   4.567   4.942  16.332 -0.3522 -0.1536 -0.3804
 9772TIP3   OH250806   5.504   4.803  12.892  0.2458 -1.1013  0.3135
 9772TIP3    H150807   5.467   4.867  12.830 -2.1229 -2.6535 -0.0162
 9772TIP3    H250808   5.598   4.807  12.877 -0.0397  0.5147 -1.4720
 9773TIP3   OH250809   2.223   1.608  11.368  0.9916  0.1261  0.3795
 9773TIP3    H150810   2.239   1.527  11.320  2.0732  0.0041  0.9044
 9773TIP3    H250811   2.208   1.674  11.301 -1.3825 -0.7650 -0.0409
 9774TIP3   OH250812   4.182   1.397  11.603  0.0215  0.4049 -0.0466
 9774TIP3    H150813   4.137   1.362  11.680  1.5989  1.0980  1.2568
 9774TIP3    H250814   4.237   1.467  11.637  0.9669  0.5582 -1.7777
 9775TIP3   OH250815   4.862   5.558  11.447 -0.7611 -0.3696 -0.7467
 9775TIP3    H150816   4.777   5.526  11.477 -0.2234 -0.0301  1.2450
 9775TIP3    H250817   4.857   5.653  11.460  0.3686 -0.4752  0.6583
 9776TIP3   OH250818   1.498   6.671   0.393 -0.3839  0.8500  0.3081
 9776TIP3    H150819   1.467   6.592   0.436 -0.5127  1.2088  0.8907
 9776TIP3    H250820   1.577   6.643   0.346 -1.6639 -0.1080 -1.3602
 9777TIP3   OH250821   1.786   2.387   4.493 -0.0609 -0.2906  0.6908
 9777TIP3    H150822   1.791   2.337   4.575 -2.1979 -1.2497  0.2999
 9777TIP3    H250823   1.695   2.415   4.487 -0.1213 -0.8081 -1.6812
 9778TIP3   OH250824   3.974   2.501   1.545  0.7277 -0.1984 -0.2855
 9778TIP3    H150825   3.996   2.536   1.458 -1.3583 -0.7944 -1.1320
 9778TIP3    H250826   3.905   2.437   1.527  0.3579 -0.4399  1.8206
 9779TIP3   OH250827   5.415   3.083  11.877 -0.2665  0.1233 -0.2967
 9779TIP3    H150828   5.431   3.084  11.972  0.9371  0.2264 -0.4814
 9779TIP3    H250829   5.499   3.107  11.839 -0.2180 -1.6573 -1.4472
 9780TIP3   OH250830   4.678   0.494   3.970  0.6313  0.0894  0.1900
 9780TIP3    H150831   4.629   0.419   4.007  0.6144  0.3773  0.7697
 9780TIP3    H250832   4.734   0.523   4.042  1.6076 -0.1782 -0.4418
 9781TIP3   OH250833   3.470   2.197  13.907 -0.1427  0.1754 -0.2984
 9781TIP3    H150834   3.383   2.186  13.946  0.0623  1.9041  0.7960
 9781TIP3    H250835   3.531   2.166  13.974  0.1206  0.3120 -0.4701
 9782TIP3   OH250836   1.532   0.759   2.675 -0.0834 -0.2697 -0.1201
 9782TIP3    H150837   1.614   0.711   2.669  0.0375 -0.2117  0.9374
 9782TIP3    H250838   1.500   0.743   2.764 -1.2374 -0.3163 -0.5155
 9783TIP3   OH250839   4.759   3.611   0.124  0.2032  0.2994 -0.8242
 9783TIP3    H150840   4.741   3.704   0.108  0.8111  0.3351 -1.3209
 9783TIP3    H250841   4.855   3.604   0.123  0.1546 -0.5018 -1.8002
 9784TIP3   OH250842   5.584   1.783  11.895  0.2981 -0.5174  0.0586
 9784TIP3    H150843   5.614   1.698  11.927  0.5013 -0.7004 -0.6009
 9784TIP3    H250844   5.653   1.844  11.919  0.3113 -0.5992  0.2296
 9785TIP3   OH250845   5.987   4.428  16.805 -0.6192  0.0517  0.3926
 9785TIP3    H150846   5.898   4.407  16.831 -0.4265 -0.5482  0.5786
 9785TIP3    H250847   6.033   4.447  16.888 -0.4905  0.0325  0.3273
 9786TIP3   OH250848   2.573   0.757   1.546 -0.0597  0.0660 -0.2934
 9786TIP3    H150849   2.589   0.795   1.633 -2.8018 -0.6128  0.6147
 9786TIP3    H250850   2.544   0.832   1.493 -0.2387  0.1702 -0.0540
 9787TIP3   OH250851   2.555   6.058   3.714  0.0837  0.0971  0.0052
 9787TIP3    H150852   2.565   5.964   3.727 -0.7265  0.1654  1.3683
 9787TIP3    H250853   2.469   6.068   3.674  0.1240  0.2599 -0.0418
 9788TIP3   OH250854   3.390   6.309  12.064 -0.0444  0.1685 -0.5743
 9788TIP3    H150855   3.466   6.257  12.036 -0.6303 -0.1157 -1.6712
 9788TIP3    H250856   3.314   6.263  12.029 -1.1792 -1.9782  4.0201
 9789TIP3   OH250857   6.693   3.077   3.990  0.0973 -0.0875 -0.0648
 9789TIP3    H150858   6.661   3.085   4.080  0.8743 -1.3336  0.3401
 9789TIP3    H250859   6.615   3.060   3.938 -0.1115 -1.4911  0.6795
 9790TIP3   OH250860   1.304   3.336  16.067  0.0082 -0.2418 -0.4348
 9790TIP3    H150861   1.345   3.373  15.989  1.5161  0.2871  0.5537
 9790TIP3    H250862   1.353   3.376  16.140  0.4924 -2.7890  0.7323
 9791TIP3   OH250863   3.566   6.638  15.277 -0.2681 -0.2768  0.1794
 9791TIP3    H150864   3.654   6.608  15.252 -0.7421 -0.6368 -1.1712
 9791TIP3    H250865   3.518   6.558  15.296 -1.6063 -0.6084 -3.6683
 9792TIP3   OH250866   1.249   0.037   0.740  0.1542 -0.3624 -0.3457
 9792TIP3    H150867   1.179  -0.013   0.699  0.2293 -0.0412 -0.8732
 9792TIP3    H250868   1.203   0.107   0.787  0.0197 -1.1801  0.7796
 9793TIP3   OH250869   5.420   2.143   3.829 -0.1876 -0.0021 -0.0465
 9793TIP3    H150870   5.326   2.164   3.829 -0.3959 -0.3865  3.0925
 9793TIP3    H250871   5.427   2.068   3.770 -1.9314 -0.1386 -0.1450
 9794TIP3   OH250872   3.889   1.240   5.224 -0.4089  0.2797  0.2930
 9794TIP3    H150873   3.810   1.250   5.171 -0.0071 -0.1251 -0.4025
 9794TIP3    H250874   3.945   1.181   5.173 -0.5100 -1.1203  1.7425
 9795TIP3   OH250875   0.369   5.395  14.887  0.0927 -0.2222  0.3653
 9795TIP3    H150876   0.454   5.429  14.861  0.1669 -1.0472 -0.5057
 9795TIP3    H250877   0.326   5.370  14.805 -1.0457  0.2899  0.7735
 9796TIP3   OH250878   0.245   4.189  11.032 -0.2432 -0.1581  0.0902
 9796TIP3    H150879   0.266   4.110  10.982  1.9877 -0.8225  1.8860
 9796TIP3    H250880   0.251   4.260  10.968  0.7921 -1.1459 -0.9655
 9797TIP3   OH250881   2.999   1.004  16.205 -0.3768 -0.0148 -0.2232
 9797TIP3    H150882   2.956   0.988  16.121 -2.4210 -1.0372  0.9218
 9797TIP3    H250883   2.991   0.921  16.252  1.1408  0.3851  0.8234
 9798TIP3   OH250884   2.392   0.468  13.466 -0.5592  0.4082 -0.1483
 9798TIP3    H150885   2.482   0.476  13.496 -0.0249  0.9257 -1.7883
 9798TIP3    H250886   2.339   0.502  13.538  0.4928 -0.5691  1.1157
 9799TIP3   OH250887   5.308   4.287  14.541 -0.0683 -0.2661 -0.1705
 9799TIP3    H150888   5.359   4.324  14.613 -2.6651  3.7417 -0.0552
 9799TIP3    H250889   5.220   4.278  14.577 -0.7239 -1.4817 -1.9340
 9800TIP3   OH250890   4.327   1.284   4.220 -0.6601  0.1174  0.2567
 9800TIP3    H150891   4.233   1.274   4.230 -0.7288 -0.8093 -0.9670
 9800TIP3    H250892   4.360   1.194   4.219  0.2456  0.4303  0.7187
 9801TIP3   OH250893   0.709   3.310  11.351 -0.5900  0.6335  0.0602
 9801TIP3    H150894   0.674   3.331  11.438 -0.9181  0.1238  0.0534
 9801TIP3    H250895   0.633   3.286  11.299 -0.4681  1.5717 -0.5638
 9802TIP3   OH250896   2.148   1.653   3.547 -0.1023 -0.5820 -0.0752
 9802TIP3    H150897   2.182   1.606   3.624  0.6538 -2.2093 -1.3314
 9802TIP3    H250898   2.059   1.619   3.536  0.6715 -2.3332 -1.3737
 9803TIP3   OH250899   4.605   0.860   3.111 -0.0608  0.3094 -0.2413
 9803TIP3    H150900   4.570   0.917   3.179 -0.1403 -1.0816  0.9263
 9803TIP3    H250901   4.655   0.918   3.054 -1.2019  1.7347  0.1538
 9804TIP3   OH250902   2.851   3.690   4.632  0.1805 -0.0512 -0.1641
 9804TIP3    H150903   2.907   3.688   4.710  1.2783 -0.9424 -0.9574
 9804TIP3    H250904   2.870   3.608   4.587 -0.3624  0.5089 -1.4395
 9805TIP3   OH250905   4.806   0.694  12.700 -0.0686  0.1125  0.0323
 9805TIP3    H150906   4.893   0.730  12.718  0.1646 -0.3826 -0.0962
 9805TIP3    H250907   4.808   0.607  12.739 -0.5927  0.1905  0.2405
 9806TIP3   OH250908   4.743   1.955   5.124  0.0222  0.2081 -0.3366
 9806TIP3    H150909   4.779   1.916   5.204 -1.4715 -0.2121  0.1596
 9806TIP3    H250910   4.688   2.028   5.155  0.0544  0.5433 -1.0405
 9807TIP3   OH250911   1.666   5.220  14.307  0.3844  0.6625  0.7397
 9807TIP3    H150912   1.607   5.180  14.372  0.7947  0.3845  0.9431
 9807TIP3    H250913   1.748   5.172  14.317 -0.5021 -1.8883 -2.4015
 9808TIP3   OH250914   6.542   1.755  14.133  0.3052 -0.1595  0.3648
 9808TIP3    H150915   6.468   1.697  14.116 -0.4940  0.8563  0.2965
 9808TIP3    H250916   6.607   1.699  14.176 -0.4373 -1.0982  0.2990
 9809TIP3   OH250917   2.032   4.480  13.182 -0.4056  0.3257  0.3981
 9809TIP3    H150918   2.127   4.467  13.173 -0.2615  0.4463  1.5940
 9809TIP3    H250919   2.015   4.465  13.275 -1.5134  0.6618  0.2568
 9810TIP3   OH250920   0.531   0.854   1.126  0.1896 -0.6470 -0.0721
 9810TIP3    H150921   0.544   0.850   1.221 -1.3190  1.5869  0.3144
 9810TIP3    H250922   0.481   0.776   1.105 -1.8084  0.1345  1.4823
 9811TIP3   OH250923   4.483   3.198  16.725  0.2480  0.4037  0.1568
 9811TIP3    H150924   4.555   3.241  16.772 -1.5532  2.0304  1.5628
 9811TIP3    H250925   4.416   3.265  16.716 -1.3904 -1.2392 -0.5289
 9812TIP3   OH250926   3.335   5.379  12.696 -0.5069 -0.5207  0.4606
 9812TIP3    H150927   3.300   5.456  12.740 -0.1092 -0.2975  0.3979
 9812TIP3    H250928   3.346   5.406  12.605  2.9782  0.5818  1.0523
 9813TIP3   OH250929   0.217   2.453  11.912  0.1989  0.4540 -0.0213
 9813TIP3    H150930   0.194   2.538  11.876  0.8535  0.0381 -1.4949
 9813TIP3    H250931   0.159   2.442  11.987  0.8918  2.6814  0.9145
 9814TIP3   OH250932   1.722   4.589   1.294 -0.1266  0.1258 -0.1429
 9814TIP3    H150933   1.727   4.658   1.228  0.8431 -0.6068 -0.8754
 9814TIP3    H250934   1.755   4.511   1.249  0.7711 -0.3490  1.2687
 9815TIP3   OH250935   5.712   4.227  15.681  0.5165  0.0004  0.2475
 9815TIP3    H150936   5.739   4.173  15.607  0.9572  0.9760 -0.3287
 9815TIP3    H250937   5.784   4.220  15.743 -0.4978 -2.0287  1.3083
 9816TIP3   OH250938   6.113   6.091   4.127 -0.1162 -0.1047  0.3004
 9816TIP3    H150939   6.167   6.147   4.072 -0.3333 -0.2071 -0.0216
 9816TIP3    H250940   6.175   6.046   4.184  0.2002 -0.7126 -0.5083
 9817TIP3   OH250941   5.870   4.543  15.671  0.2230 -0.1313 -0.1069
 9817TIP3    H150942   5.787   4.588  15.686 -1.0615 -1.5588 -2.2839
 9817TIP3    H250943   5.867   4.467  15.730  0.6516  0.5727  0.8345
 9818TIP3   OH250944   6.753   5.086   3.233 -0.0348  1.5320 -0.0046
 9818TIP3    H150945   6.686   5.024   3.207  1.5611 -0.4619  0.3643
 9818TIP3    H250946   6.823   5.073   3.169  1.1163  1.5290  1.2126
 9819TIP3   OH250947   3.490   4.914   0.416 -0.2034 -0.2627  0.7647
 9819TIP3    H150948   3.528   4.943   0.333 -1.3506 -2.0385 -0.4632
 9819TIP3    H250949   3.467   4.995   0.461  2.2122  0.7971  0.2578
 9820TIP3   OH250950   5.702   5.338  17.122  0.1256  0.4854  0.0377
 9820TIP3    H150951   5.788   5.360  17.087  0.3786  0.3797  0.5941
 9820TIP3    H250952   5.712   5.343  17.217 -0.9930  2.4067  0.1048
 9821TIP3   OH250953   5.930   0.605   3.454 -0.4932  1.0817  0.2276
 9821TIP3    H150954   5.885   0.581   3.373 -0.7144  2.5771 -0.1325
 9821TIP3    H250955   5.860   0.615   3.518 -0.1414 -2.7121  1.4132
 9822TIP3   OH250956   1.359   3.298   2.583 -0.3956 -0.0934  0.7043
 9822TIP3    H150957   1.304   3.263   2.653  0.9235  0.3162  1.9958
 9822TIP3    H250958   1.379   3.222   2.528 -2.1963 -0.2484  0.1910
 9823TIP3   OH250959   2.506   3.822  11.592  0.1524 -0.0067  0.2046
 9823TIP3    H150960   2.493   3.915  11.610 -1.1680  0.0955 -1.1871
 9823TIP3    H250961   2.453   3.778  11.658  0.9462  0.1873  1.0036
 9824TIP3   OH250962   6.377   1.944   5.750  0.7907  0.2759 -0.1943
 9824TIP3    H150963   6.345   1.943   5.660  1.4351 -0.4075 -0.4289
 9824TIP3    H250964   6.319   1.883   5.796  0.9245  0.0425 -0.3266
 9825TIP3   OH250965   0.334   3.276  11.924  0.1641 -0.2448  0.2424
 9825TIP3    H150966   0.385   3.196  11.909  1.1468  0.2949  0.6368
 9825TIP3    H250967   0.307   3.304  11.837  0.9885 -0.2574 -0.0218
 9826TIP3   OH250968   1.977   1.675  10.976  0.4466  0.1311 -0.4870
 9826TIP3    H150969   1.915   1.656  11.047  0.0347  1.0721 -0.5765
 9826TIP3    H250970   1.924   1.668  10.897  0.4153  1.0669 -0.5568
 9827TIP3   OH250971   2.376   0.757   0.496 -0.0615  0.7627 -0.4415
 9827TIP3    H150972   2.367   0.850   0.478  0.0935  0.7213 -0.7488
 9827TIP3    H250973   2.459   0.750   0.544 -0.1498  0.7988 -0.2817
 9828TIP3   OH250974   4.908   2.712   1.807  0.8095 -0.1512  0.6734
 9828TIP3    H150975   4.924   2.649   1.877 -1.8133 -0.1770  1.3688
 9828TIP3    H250976   4.988   2.712   1.755  2.3976 -1.0135  2.9777
 9829TIP3   OH250977   0.621   4.693   2.349  0.3732  0.2205 -0.0005
 9829TIP3    H150978   0.592   4.780   2.322 -2.6662 -0.0699  1.8693
 9829TIP3    H250979   0.688   4.668   2.285 -0.5553  2.8185 -2.1233
 9830TIP3   OH250980   3.444   4.152   0.607 -0.2144 -0.2684  0.0642
 9830TIP3    H150981   3.433   4.083   0.542 -1.0672 -0.3131  0.2424
 9830TIP3    H250982   3.411   4.231   0.564 -3.6619 -0.8141  1.3815
 9831TIP3   OH250983   4.168   5.093  14.866  0.0742  0.1708 -0.1775
 9831TIP3    H150984   4.238   5.103  14.802 -0.5150  2.5143 -0.5562
 9831TIP3    H250985   4.206   5.123  14.949  0.3171 -1.1886  0.2152
 9832TIP3   OH250986   4.559   4.965   0.537 -0.1753  0.3768  0.3069
 9832TIP3    H150987   4.589   4.995   0.623  1.8714 -1.4698  0.3322
 9832TIP3    H250988   4.634   4.982   0.479 -0.6071 -0.6232 -0.5662
 9833TIP3   OH250989   0.397   5.832   5.074 -0.2636  0.2003  0.1317
 9833TIP3    H150990   0.441   5.848   4.991  0.9675  2.7573  1.1598
 9833TIP3    H250991   0.430   5.747   5.104  2.4075  1.0548 -0.1653
 9834TIP3   OH250992   3.255   4.174   5.918 -0.1780  0.1498  0.3635
 9834TIP3    H150993   3.237   4.236   5.848 -0.4442 -0.7138 -0.3430
 9834TIP3    H250994   3.214   4.092   5.890  1.3412 -0.7440  0.6082
 9835TIP3   OH250995   5.049   4.746  14.850 -0.7262  0.1246 -0.4294
 9835TIP3    H150996   5.062   4.817  14.788 -0.6953  1.4353  1.0168
 9835TIP3    H250997   5.110   4.765  14.921 -2.6075  0.1878  1.2617
 9836TIP3   OH250998   0.501   2.831  12.813 -0.2751 -0.2962 -0.6488
 9836TIP3    H150999   0.571   2.766  12.810 -0.0076  0.0253 -1.8987
 9836TIP3    H251000   0.432   2.794  12.759 -1.0112 -0.5172  0.4123
 9837TIP3   OH251001   2.957   6.695  11.976  0.0312  0.2863 -0.6366
 9837TIP3    H151002   2.935   6.780  11.939  1.8900  0.8954 -0.3988
 9837TIP3    H251003   3.036   6.667  11.930  0.8142 -0.2027  0.9175
 9838TIP3   OH251004   5.508   5.332  12.390  0.3685  0.2598 -0.3875
 9838TIP3    H151005   5.437   5.268  12.384 -1.0429  1.6947  0.3395
 9838TIP3    H251006   5.513   5.352  12.483  1.3468  0.6233 -0.5133
 9839TIP3   OH251007   3.842   0.329  11.005 -0.6583  0.2180 -0.2540
 9839TIP3    H151008   3.819   0.323  10.912 -1.2296 -1.7023 -0.0291
 9839TIP3    H251009   3.922   0.278  11.013  0.1088  1.4330  0.1203
 9840TIP3   OH251010   4.372   5.468   4.808  0.2125  0.5194  0.2296
 9840TIP3    H151011   4.304   5.500   4.749  0.7094 -1.0005 -1.2411
 9840TIP3    H251012   4.450   5.457   4.753  0.9346 -0.1612  1.3228
 9841TIP3   OH251013   5.412   1.061   6.765 -0.2512 -0.8223  0.4993
 9841TIP3    H151014   5.465   1.101   6.834 -1.3594  0.3865  0.6872
 9841TIP3    H251015   5.474   1.011   6.713  1.2613  1.2897  0.1487
 9842TIP3   OH251016   3.243   0.924   1.559 -0.0697 -0.8936 -0.3216
 9842TIP3    H151017   3.164   0.957   1.602 -0.8018 -3.3822  0.4415
 9842TIP3    H251018   3.315   0.966   1.606 -0.9076 -0.2597  0.4429
 9843TIP3   OH251019   2.422   4.971   0.331 -0.1183 -0.2858  0.0237
 9843TIP3    H151020   2.460   4.964   0.244 -0.7668  0.4754 -0.3388
 9843TIP3    H251021   2.436   4.885   0.370  0.2310 -0.6222 -0.8091
 9844TIP3   OH251022   4.165   2.166  11.564  0.3162 -0.1279  0.2274
 9844TIP3    H151023   4.127   2.169  11.652 -0.9723  1.0095 -0.3189
 9844TIP3    H251024   4.257   2.147  11.578  0.0041 -0.6809  1.7747
 9845TIP3   OH251025   5.806   2.981  11.239  0.3928  0.2849  0.0218
 9845TIP3    H151026   5.831   3.065  11.199 -1.3831  0.7514 -0.2179
 9845TIP3    H251027   5.751   2.939  11.173 -0.5611 -0.0565  1.0120
 9846TIP3   OH251028   5.479   3.531   0.451 -0.2422  0.6203 -0.7390
 9846TIP3    H151029   5.445   3.559   0.536 -0.7890 -0.8616 -0.4348
 9846TIP3    H251030   5.560   3.582   0.439  0.0456  0.5862  0.8471
 9847TIP3   OH251031   5.077   1.900   0.766  0.2117 -0.7760 -0.1587
 9847TIP3    H151032   5.148   1.837   0.757  0.9036 -0.0488  0.0817
 9847TIP3    H251033   5.079   1.926   0.859  0.9042  0.6913 -0.5579
 9848TIP3   OH251034   0.924   3.584  11.024 -0.2922  0.5328  0.8158
 9848TIP3    H151035   1.007   3.630  11.013  0.8156 -1.4991  0.1667
 9848TIP3    H251036   0.940   3.525  11.098 -0.6988 -0.7484 -0.0792
 9849TIP3   OH251037   0.685   2.117   0.236  0.2227 -1.0525  0.2348
 9849TIP3    H151038   0.708   2.104   0.144 -0.1338 -0.7981  0.1046
 9849TIP3    H251039   0.608   2.062   0.250  0.9212 -1.9552  0.6865
 9850TIP3   OH251040   3.281   3.916  16.952  0.7352 -0.1232  0.1508
 9850TIP3    H151041   3.203   3.906  16.898  1.2114  0.3774 -0.6436
 9850TIP3    H251042   3.289   3.833  16.999 -1.0066  0.2779  1.2458
 9851TIP3   OH251043   5.254   1.391  16.036  0.0542  0.0867 -0.4605
 9851TIP3    H151044   5.342   1.391  15.998  0.4091 -1.0782  0.2871
 9851TIP3    H251045   5.264   1.344  16.119 -1.2809 -0.0947 -0.3764
 9852TIP3   OH251046   2.540   0.824  17.229 -0.1749 -0.0934  0.4654
 9852TIP3    H151047   2.515   0.831  17.321 -0.4853 -2.0477  0.5732
 9852TIP3    H251048   2.634   0.845  17.228  0.0962 -1.1760  1.4245
 9853TIP3   OH251049   2.167   1.682   4.336  0.2380 -0.0215  0.1586
 9853TIP3    H151050   2.107   1.711   4.405  1.3709  0.7782  0.8295
 9853TIP3    H251051   2.215   1.609   4.376  1.3921  0.9018  0.4767
 9854TIP3   OH251052   1.428   2.890  11.806 -0.2512  0.2101  0.5354
 9854TIP3    H151053   1.523   2.900  11.795 -0.2837 -0.6334 -0.8725
 9854TIP3    H251054   1.403   2.958  11.867  1.7071 -1.4342  3.4068
 9855TIP3   OH251055   4.134   2.936  13.189 -0.2002 -0.0894  0.1838
 9855TIP3    H151056   4.171   2.947  13.277  2.8510 -1.9321 -0.7206
 9855TIP3    H251057   4.184   2.864  13.151 -1.4402  0.6037 -3.0734
 9856TIP3   OH251058   4.868   2.338   0.240  0.6434 -0.0888 -0.7131
 9856TIP3    H151059   4.913   2.376   0.316  0.2606 -0.7461 -0.1386
 9856TIP3    H251060   4.800   2.282   0.278 -0.5960  0.7920 -1.5604
 9857TIP3   OH251061   4.374   0.873  17.134  0.0367  0.5733 -0.2661
 9857TIP3    H151062   4.422   0.794  17.109 -0.5841  0.4217 -0.9800
 9857TIP3    H251063   4.417   0.901  17.215 -0.4015 -1.0829  0.5899
 9858TIP3   OH251064   5.102   1.451  14.594 -0.1131  0.1466  0.2737
 9858TIP3    H151065   5.169   1.495  14.646  1.9688 -0.5437 -1.6424
 9858TIP3    H251066   5.038   1.519  14.575  0.9926  1.3345  0.6410
 9859TIP3   OH251067   0.367   4.632   6.770  0.4865 -0.2329 -0.2644
 9859TIP3    H151068   0.376   4.572   6.696 -1.7780 -2.3598  1.0322
 9859TIP3    H251069   0.427   4.598   6.836 -0.3295 -0.7059  0.2443
 9860TIP3   OH251070   6.574   3.029   1.380 -0.3213 -0.1089  1.0769
 9860TIP3    H151071   6.641   2.975   1.338  0.4844  1.7073 -0.0968
 9860TIP3    H251072   6.491   2.996   1.344  0.2429  0.3055 -0.7165
 9861TIP3   OH251073   4.002   4.582   5.822  0.4335  0.1897  0.2044
 9861TIP3    H151074   4.097   4.587   5.832  0.6271 -2.4776  0.2501
 9861TIP3    H251075   3.988   4.562   5.729 -0.0350 -0.3486  0.3841
 9862TIP3   OH251076   4.671   3.683   0.352 -0.0088  0.6055 -0.2836
 9862TIP3    H151077   4.578   3.704   0.341 -0.2118  0.1983  0.5378
 9862TIP3    H251078   4.697   3.644   0.269 -0.3360  1.5364 -0.8377
 9863TIP3   OH251079   3.205   2.405  14.277  0.1492 -0.2421  0.7868
 9863TIP3    H151080   3.240   2.359  14.353  0.6879  1.6092  1.7144
 9863TIP3    H251081   3.161   2.482  14.313 -3.2006 -1.3711 -0.4681
 9864TIP3   OH251082   2.925   5.591   4.145  0.4144  0.6183 -0.1136
 9864TIP3    H151083   2.880   5.523   4.195 -0.4957  0.1788 -1.4786
 9864TIP3    H251084   2.961   5.546   4.069  0.2539  1.5572 -0.7651
 9865TIP3   OH251085   5.908   6.010  11.449  0.0413  0.2175  0.0141
 9865TIP3    H151086   5.940   6.059  11.525 -0.8985  1.5726 -0.4283
 9865TIP3    H251087   5.925   6.068  11.375  1.6494 -1.3947 -0.9509
 9866TIP3   OH251088   6.589   5.059  14.736  0.2496 -0.3836 -0.0572
 9866TIP3    H151089   6.588   4.984  14.796  0.8437 -1.5893 -1.4694
 9866TIP3    H251090   6.513   5.044  14.679  0.2400  0.2180 -0.2071
 9867TIP3   OH251091   4.026   3.820   3.634  0.4015 -0.1664 -0.0770
 9867TIP3    H151092   4.047   3.909   3.607  1.0308 -0.1595  0.4133
 9867TIP3    H251093   4.105   3.788   3.676  1.5446 -2.2539 -3.3735
 9868TIP3   OH251094   3.644   3.696  12.046 -0.0155 -0.0006 -0.0420
 9868TIP3    H151095   3.726   3.746  12.048  1.3864 -2.0834 -1.0873
 9868TIP3    H251096   3.610   3.703  12.135  1.6730  0.3600  0.6279
 9869TIP3   OH251097   0.001   3.317   1.609  0.5355 -0.2415  0.3175
 9869TIP3    H151098   0.081   3.364   1.633 -0.3411  2.3457 -1.3065
 9869TIP3    H251099   0.026   3.263   1.534  0.5219  1.7594 -1.2075
 9870TIP3   OH251100   2.106   5.018  12.222 -1.0830 -0.0437  0.4056
 9870TIP3    H151101   2.026   5.023  12.169  0.0044  1.1121 -1.2177
 9870TIP3    H251102   2.078   4.976  12.304 -3.1234 -0.5868 -0.5097
 9871TIP3   OH251103   5.638   5.927  11.376  0.4170 -0.7358  0.4832
 9871TIP3    H151104   5.730   5.938  11.402  0.4480 -1.0009  0.4934
 9871TIP3    H251105   5.636   5.956  11.285  0.6917 -1.4960  0.2188
 9872TIP3   OH251106   0.695   6.308   2.529 -0.0837  0.1398 -0.1145
 9872TIP3    H151107   0.756   6.382   2.527  0.1504  0.0235  1.2943
 9872TIP3    H251108   0.752   6.231   2.534 -0.3229 -0.0006  0.6085
 9873TIP3   OH251109   0.797   1.489  12.093 -0.4735 -0.2742  0.0531
 9873TIP3    H151110   0.820   1.434  12.018 -2.1937  0.3418 -0.9836
 9873TIP3    H251111   0.707   1.516  12.076  0.2261  2.7468  0.5817
 9874TIP3   OH251112   3.306   3.162   5.291  0.1587 -0.2836 -0.0754
 9874TIP3    H151113   3.255   3.240   5.267  1.7070  0.4480 -1.1999
 9874TIP3    H251114   3.378   3.196   5.344 -0.3379 -1.2643  1.2803
 9875TIP3   OH251115   3.846   1.458   3.068 -0.4071  0.6222  0.4158
 9875TIP3    H151116   3.860   1.399   3.142 -2.1314  1.2353  1.2749
 9875TIP3    H251117   3.889   1.414   2.994  1.1459 -0.1210  1.6839
 9876TIP3   OH251118   0.395   5.440  14.057  0.6058  0.6264 -0.0805
 9876TIP3    H151119   0.336   5.481  13.993  1.0087  1.4233  0.0420
 9876TIP3    H251120   0.381   5.490  14.138 -0.5846 -0.9598  0.7490
 9877TIP3   OH251121   0.178   0.202   2.538  0.5809 -0.1724  0.2514
 9877TIP3    H151122   0.213   0.202   2.449  0.6328 -0.5883  0.2673
 9877TIP3    H251123   0.132   0.119   2.545 -1.2869  0.7945 -0.0895
 9878TIP3   OH251124   4.288   1.520  13.823  0.1041  0.3735  0.0313
 9878TIP3    H151125   4.326   1.455  13.763  1.0664  0.7732  0.1767
 9878TIP3    H251126   4.303   1.604  13.779 -0.8619  0.5233 -0.0161
 9879TIP3   OH251127   4.244   0.657   3.205  0.1288  0.2887  0.2514
 9879TIP3    H151128   4.233   0.576   3.256 -0.5280  0.0585 -0.2438
 9879TIP3    H251129   4.257   0.725   3.271  0.2629 -0.1507  0.6900
 9880TIP3   OH251130   5.810   1.350   0.079 -0.3876 -0.7178  0.1270
 9880TIP3    H151131   5.721   1.356   0.115 -0.3127  0.0753  0.1973
 9880TIP3    H251132   5.798   1.312  -0.008 -0.9832  0.7970 -0.4869
 9881TIP3   OH251133   1.714   4.589  13.841 -0.1752  0.5051  0.1827
 9881TIP3    H151134   1.784   4.653  13.832  1.3809 -1.2654 -0.8200
 9881TIP3    H251135   1.735   4.520  13.779 -2.9196 -0.0392 -0.2972
 9882TIP3   OH251136   6.045   0.170  16.617  0.3859 -0.3756  0.0812
 9882TIP3    H151137   6.102   0.117  16.561 -0.7600 -1.5169 -0.0426
 9882TIP3    H251138   6.052   0.129  16.703  1.6506  0.9958  0.6799
 9883TIP3   OH251139   6.139   5.029   2.576 -0.1726  0.0159 -0.1184
 9883TIP3    H151140   6.152   4.954   2.635  2.0698  2.2525  2.5212
 9883TIP3    H251141   6.203   5.017   2.507 -1.2215 -1.4416 -0.9073
 9884TIP3   OH251142   1.964   2.168   4.376 -0.2271 -0.0856 -0.0375
 9884TIP3    H151143   2.055   2.183   4.400 -0.3452  0.9729 -0.2006
 9884TIP3    H251144   1.915   2.239   4.419 -1.0069 -0.8011  0.2800
 9885TIP3   OH251145   3.977   6.444  12.690 -0.0302 -0.2263  0.0685
 9885TIP3    H151146   3.976   6.461  12.596 -2.3460 -0.5174 -0.0109
 9885TIP3    H251147   3.953   6.527  12.730 -2.9833 -1.0034  0.1228
 9886TIP3   OH251148   1.390   1.361  16.334 -0.0356 -0.1095  0.1191
 9886TIP3    H151149   1.477   1.390  16.307  0.2272 -0.0230  1.0164
 9886TIP3    H251150   1.329   1.413  16.281  0.4552 -0.7896 -1.1318
 9887TIP3   OH251151   6.288   1.306  14.281 -0.7656 -0.3626  0.1530
 9887TIP3    H151152   6.360   1.251  14.312  0.4442 -1.1178 -3.4926
 9887TIP3    H251153   6.315   1.395  14.302 -0.3284 -0.8163  1.6486
 9888TIP3   OH251154   4.277   3.201   5.128 -0.1060  0.3661  0.6064
 9888TIP3    H151155   4.356   3.147   5.134 -0.5231 -0.2706  0.5483
 9888TIP3    H251156   4.248   3.190   5.037 -0.0497  0.9039  0.5221
 9889TIP3   OH251157   2.105   2.248   0.764 -0.1224  0.0210  0.0323
 9889TIP3    H151158   2.156   2.171   0.737 -0.5043 -0.3457  0.3323
 9889TIP3    H251159   2.155   2.285   0.837  0.4630  0.5134 -0.6084
 9890TIP3   OH251160   4.002   0.914   0.428  0.0113 -0.0815 -0.6031
 9890TIP3    H151161   4.083   0.908   0.378  0.7476  0.1996  0.5264
 9890TIP3    H251162   4.000   0.833   0.479  0.7903  0.9535  1.1251
 9891TIP3   OH251163   2.199   1.550  14.896  0.4102  0.2761  0.3197
 9891TIP3    H151164   2.142   1.588  14.963  0.5579 -0.5007  0.9000
 9891TIP3    H251165   2.139   1.512  14.832  0.2695 -0.8121  1.0863
 9892TIP3   OH251166   6.378   1.244   1.222 -0.3025 -0.0511 -0.5750
 9892TIP3    H151167   6.371   1.247   1.126  0.6631  0.0297 -0.6532
 9892TIP3    H251168   6.317   1.312   1.252  0.8968  1.3777 -1.2311
 9893TIP3   OH251169   6.166   3.664   4.884 -0.5365 -0.2429 -0.1013
 9893TIP3    H151170   6.232   3.710   4.936 -0.5506  1.7067 -1.7074
 9893TIP3    H251171   6.090   3.659   4.940  0.7643 -2.1399  1.6335
 9894TIP3   OH251172   6.294   2.846  16.146  0.3500  0.1031 -0.1706
 9894TIP3    H151173   6.303   2.843  16.050 -0.3118 -1.0512 -0.2166
 9894TIP3    H251174   6.384   2.842  16.178  0.5538 -0.1214 -0.7500
 9895TIP3   OH251175   5.701   4.673   4.490 -0.3255 -0.2187  0.3545
 9895TIP3    H151176   5.788   4.649   4.460 -0.6424  1.3999 -2.1454
 9895TIP3    H251177   5.642   4.617   4.440 -0.7827  0.3373  0.2539
 9896TIP3   OH251178   4.362   0.371  16.314 -0.3381  0.1934  0.3947
 9896TIP3    H151179   4.442   0.323  16.291  0.3276  1.2490  0.4129
 9896TIP3    H251180   4.337   0.415  16.233 -0.4121  0.5426  0.6061
 9897TIP3   OH251181   5.671   4.019   2.484  0.5950 -0.6377 -0.2912
 9897TIP3    H151182   5.681   4.114   2.477 -1.1632 -0.1823  2.2353
 9897TIP3    H251183   5.728   3.994   2.556  0.0951 -1.3078 -0.1180
 9898TIP3   OH251184   4.777   4.092  14.505 -0.0426  0.0232 -0.2209
 9898TIP3    H151185   4.872   4.093  14.496 -0.0376  0.3649 -0.1422
 9898TIP3    H251186   4.761   4.050  14.590  0.0121 -0.6457 -0.5400
 9899TIP3   OH251187   4.866   0.677  14.215  0.2688  0.5588 -0.0066
 9899TIP3    H151188   4.925   0.616  14.260 -1.5202 -0.0761  1.5795
 9899TIP3    H251189   4.778   0.649  14.239 -0.6751  2.7871 -0.5525
 9900TIP3   OH251190   6.319   0.981  17.163  0.3665  0.2092 -0.7058
 9900TIP3    H151191   6.323   1.015  17.252 -0.0474  1.9872 -1.3345
 9900TIP3    H251192   6.237   1.015  17.127  1.7677  1.8111 -2.6185
 9901TIP3   OH251193   5.586   2.429   4.428 -0.0234  0.3253 -0.3102
 9901TIP3    H151194   5.588   2.382   4.511 -0.8017  0.2006 -0.3531
 9901TIP3    H251195   5.600   2.360   4.362  1.6282  0.5694 -0.2493
 9902TIP3   OH251196   4.717   4.352  14.448  0.4237 -0.4920  0.3815
 9902TIP3    H151197   4.716   4.256  14.455 -0.4970 -0.6638 -1.4301
 9902TIP3    H251198   4.732   4.382  14.537  0.0184 -2.3135  1.1224
 9903TIP3   OH251199   3.587   4.106  15.109 -0.6715 -0.3614  0.4082
 9903TIP3    H151200   3.587   4.023  15.157  0.2729 -0.1817  0.7295
 9903TIP3    H251201   3.602   4.172  15.176 -1.5204  0.0853  0.1653
 9904TIP3   OH251202   0.937   1.518  13.904  0.3771  0.7110 -0.1202
 9904TIP3    H151203   0.943   1.549  13.814 -1.1152  0.1380 -0.4497
 9904TIP3    H251204   0.854   1.470  13.907 -0.8484  2.7277  2.1228
 9905TIP3   OH251205   5.809   5.019   4.391  0.6081  0.0950  0.1447
 9905TIP3    H151206   5.842   5.109   4.388  1.8843 -0.3871 -1.3010
 9905TIP3    H251207   5.886   4.964   4.378 -0.0417 -1.2675  1.6799
 9906TIP3   OH251208   6.653   1.024  13.399  0.1890  1.4864  0.0098
 9906TIP3    H151209   6.596   0.948  13.410  0.9849  0.5484 -1.7936
 9906TIP3    H251210   6.694   1.036  13.484 -0.9979  0.7668  0.7026
 9907TIP3   OH251211   1.069   2.693  11.267 -0.0275 -0.9088 -0.0003
 9907TIP3    H151212   1.005   2.622  11.273  0.8174 -1.5845  2.8512
 9907TIP3    H251213   1.145   2.660  11.315  0.2218  2.0734  1.9446
 9908TIP3   OH251214   4.623   2.987   4.593  0.0813 -0.3049  0.2699
 9908TIP3    H151215   4.578   2.958   4.513  1.3569 -1.0927 -0.1880
 9908TIP3    H251216   4.646   2.906   4.638 -0.1997  0.1287  1.2109
 9909TIP3   OH251217   1.824   4.221  16.305  0.1111 -0.4776 -0.5138
 9909TIP3    H151218   1.743   4.271  16.319 -0.3013 -0.9941 -0.9905
 9909TIP3    H251219   1.837   4.174  16.387  0.3712  0.2101 -0.1485
 9910TIP3   OH251220   0.139   0.287  15.687  0.0737  0.3040  0.3900
 9910TIP3    H151221   0.111   0.325  15.770  2.1775  2.0708  0.3826
 9910TIP3    H251222   0.067   0.305  15.627  0.1388  2.5172  0.9082
 9911TIP3   OH251223   2.539   6.786  11.919  0.4276 -0.0343  0.2784
 9911TIP3    H151224   2.473   6.847  11.951 -2.2434 -3.1363  1.2357
 9911TIP3    H251225   2.520   6.704  11.964  3.5201 -1.7648 -1.2097
 9912TIP3   OH251226   5.453   3.897  15.127 -0.4479  0.1578 -0.3256
 9912TIP3    H151227   5.475   3.854  15.210 -0.9553 -0.2054 -0.3716
 9912TIP3    H251228   5.395   3.968  15.153 -0.2990  0.2804 -0.3312
 9913TIP3   OH251229   4.467   1.560  14.679 -0.2144 -0.5618 -0.6579
 9913TIP3    H151230   4.556   1.595  14.676  0.4206 -2.0890 -0.8076
 9913TIP3    H251231   4.427   1.602  14.755  0.7290 -0.0786 -0.4108
 9914TIP3   OH251232   3.220   0.754  11.728  1.2123 -0.2359  0.1346
 9914TIP3    H151233   3.193   0.788  11.814  0.2246  1.2054 -0.6965
 9914TIP3    H251234   3.266   0.827  11.687 -0.9621  0.2171 -1.7137
 9915TIP3   OH251235   1.557   2.863  14.745  0.0522  0.0863 -0.1457
 9915TIP3    H151236   1.501   2.896  14.816 -1.1019 -1.9167 -0.0216
 9915TIP3    H251237   1.625   2.813  14.790  0.3750  0.3013 -0.3949
 9916TIP3   OH251238   3.355   5.603  14.638  0.1894  0.2721  0.0231
 9916TIP3    H151239   3.337   5.517  14.676  0.6013 -0.0972 -0.6091
 9916TIP3    H251240   3.363   5.661  14.714  2.0746 -0.6600  0.6105
 9917TIP3   OH251241   2.775   5.568  11.644  0.1985 -0.1318  0.1018
 9917TIP3    H151242   2.868   5.591  11.640  0.6006 -1.6067  0.4594
 9917TIP3    H251243   2.737   5.631  11.705  0.7077  1.2366 -0.9369
 9918TIP3   OH251244   6.475   3.800  16.035  0.1667  0.3933 -0.2656
 9918TIP3    H151245   6.520   3.781  16.117 -0.4709 -1.2260 -0.2475
 9918TIP3    H251246   6.520   3.876  16.000  2.4928 -0.7466  0.0621
 9919TIP3   OH251247   2.305   4.242   2.880 -0.6143 -0.6753  0.4886
 9919TIP3    H151248   2.294   4.174   2.814 -2.0240 -2.0997  2.0834
 9919TIP3    H251249   2.216   4.266   2.906 -0.1226 -0.8192  2.4880
 9920TIP3   OH251250   0.627   3.634   4.987  0.1704 -0.1441  0.1529
 9920TIP3    H151251   0.698   3.630   4.923  0.0225 -0.6285  0.0131
 9920TIP3    H251252   0.547   3.628   4.935  0.0360  0.0077  0.3405
 9921TIP3   OH251253   2.806   0.015   2.466 -0.3934  0.3398  0.3938
 9921TIP3    H151254   2.878  -0.020   2.413 -0.6423  0.5219 -0.0675
 9921TIP3    H251255   2.782   0.097   2.423 -2.4553 -0.8582 -0.8826
 9922TIP3   OH251256   3.422   0.714  13.176  0.1782  0.5895 -0.2475
 9922TIP3    H151257   3.394   0.682  13.262  0.1789 -3.5517 -1.5921
 9922TIP3    H251258   3.516   0.730  13.185 -0.2539  2.8030  1.1000
 9923TIP3   OH251259   4.589   2.736  16.761 -0.0601  0.3637 -0.2027
 9923TIP3    H151260   4.504   2.772  16.789 -0.6212 -0.6463 -0.5395
 9923TIP3    H251261   4.654   2.788  16.808 -0.9293 -0.5355  2.1432
 9924TIP3   OH251262   5.809   3.318   4.892 -0.3343  0.0885  0.4000
 9924TIP3    H151263   5.886   3.369   4.867 -0.7519  0.5662  0.0667
 9924TIP3    H251264   5.830   3.229   4.866  1.2456 -0.3238  2.8485
 9925TIP3   OH251265   4.806   6.433  13.949 -0.1805  0.4715  0.1549
 9925TIP3    H151266   4.844   6.383  13.877  2.2792  1.9964  0.2865
 9925TIP3    H251267   4.846   6.395  14.028  0.8980  1.8386  0.3215
 9926TIP3   OH251268   1.584   1.610  12.175 -0.0463 -1.0040 -0.0872
 9926TIP3    H151269   1.600   1.572  12.262  0.9464  0.4964  0.4226
 9926TIP3    H251270   1.668   1.648  12.150 -1.0587  1.1612 -0.3990
 9927TIP3   OH251271   1.844   0.533   1.583 -0.2361 -0.2276  0.0039
 9927TIP3    H151272   1.757   0.571   1.581  0.1407  0.7031  0.6724
 9927TIP3    H251273   1.896   0.589   1.525  0.4625  0.6929  1.4695
 9928TIP3   OH251274   5.393   2.520   0.784  0.0074 -0.5208  0.2450
 9928TIP3    H151275   5.377   2.523   0.879 -2.4802 -0.9968 -0.0907
 9928TIP3    H251276   5.457   2.449   0.773 -0.0765 -0.8261  1.5271
 9929TIP3   OH251277   5.850   1.046  16.129  0.2101  0.1875 -0.4396
 9929TIP3    H151278   5.886   0.971  16.177 -0.1487  0.7433  0.7385
 9929TIP3    H251279   5.920   1.111  16.132  0.0001  0.4071 -0.2091
 9930TIP3   OH251280   6.147   2.704  16.630 -0.4680  0.0913  0.2929
 9930TIP3    H151281   6.186   2.676  16.547 -0.6403  0.3380  0.1265
 9930TIP3    H251282   6.066   2.655  16.637 -0.3397 -0.1022  0.4290
 9931TIP3   OH251283   4.065   3.277  16.508  0.4076  0.5924  0.1228
 9931TIP3    H151284   3.975   3.251  16.530  0.0828  0.9707 -0.7182
 9931TIP3    H251285   4.103   3.304  16.592  0.5646 -1.9148  0.9532
 9932TIP3   OH251286   5.054   2.634  16.115 -0.5077 -0.1216  0.2505
 9932TIP3    H151287   5.115   2.594  16.177 -0.9025 -0.8251  0.1903
 9932TIP3    H251288   4.969   2.600  16.140 -0.7288 -0.0464 -0.3974
 9933TIP3   OH251289   3.036   0.293  13.888  0.7139 -0.0799 -0.0539
 9933TIP3    H151290   3.087   0.272  13.966  1.8612 -1.1203 -1.0386
 9933TIP3    H251291   2.945   0.275  13.913  0.9061  0.8000  1.4018
 9934TIP3   OH251292   6.033   0.935  15.057  0.3833 -0.0807 -0.1569
 9934TIP3    H151293   6.051   0.872  15.126  1.2469  0.0229 -0.2730
 9934TIP3    H251294   6.109   0.993  15.057  0.9435 -0.7606 -1.9434
 9935TIP3   OH251295   1.054   2.687   4.218 -0.6105  0.0492 -0.2737
 9935TIP3    H151296   1.062   2.600   4.177  1.6340  0.2651 -0.4357
 9935TIP3    H251297   1.087   2.674   4.307 -0.6627  0.6576 -0.1615
 9936TIP3   OH251298   2.477   2.698  13.790 -0.2105 -0.0432  0.1190
 9936TIP3    H151299   2.404   2.645  13.822 -1.0445  1.0143  0.0201
 9936TIP3    H251300   2.435   2.765  13.736  0.9376 -0.1015 -0.8702
 9937TIP3   OH251301   4.576   2.260   1.011 -0.3698 -0.0555 -0.3223
 9937TIP3    H151302   4.535   2.344   1.029 -1.0135 -0.1209 -1.3711
 9937TIP3    H251303   4.542   2.235   0.925 -0.0524 -1.2978 -0.1075
 9938TIP3   OH251304   5.757   2.734   3.720  0.6639 -0.3118  0.7430
 9938TIP3    H151305   5.775   2.797   3.790  0.5949 -1.3010  1.6683
 9938TIP3    H251306   5.833   2.741   3.662 -0.2702  2.1035 -0.3311
 9939TIP3   OH251307   4.770   1.878   1.316  0.3763 -0.0248  0.1516
 9939TIP3    H151308   4.760   1.884   1.221 -0.1118 -2.2952  0.0103
 9939TIP3    H251309   4.680   1.885   1.350  0.6251  1.7062  0.5637
 9940TIP3   OH251310   2.848   5.416  12.252 -0.2790 -0.4298  0.1210
 9940TIP3    H151311   2.767   5.456  12.284 -0.0218 -0.3680  0.7066
 9940TIP3    H251312   2.911   5.488  12.249 -0.5044 -0.2472 -1.3375
 9941TIP3   OH251313   1.603   4.078  14.696 -0.5337  0.2180  0.6674
 9941TIP3    H151314   1.577   4.162  14.659 -1.7802  0.2298  1.5021
 9941TIP3    H251315   1.671   4.099  14.760  0.9727  0.2908 -0.8982
 9942TIP3   OH251316   1.579   6.649  17.227  0.4660 -0.4061 -0.5434
 9942TIP3    H151317   1.601   6.556  17.232 -1.6029 -0.8909  0.3818
 9942TIP3    H251318   1.640   6.691  17.288  1.3776 -1.1407 -0.9255
 9943TIP3   OH251319   0.837   3.252  16.900  0.0226  0.2707  0.2692
 9943TIP3    H151320   0.916   3.203  16.878 -0.0153  0.8030 -1.1401
 9943TIP3    H251321   0.800   3.278  16.816 -1.9794 -0.4510  0.8721
 9944TIP3   OH251322   5.308   1.824   6.423 -0.2497 -0.1903 -0.3800
 9944TIP3    H151323   5.387   1.810   6.371  0.1518  1.9211 -0.4058
 9944TIP3    H251324   5.321   1.770   6.501  1.4901  0.5439 -0.1232
 9945TIP3   OH251325   6.639   5.695  16.658 -0.5877 -0.4245 -0.4914
 9945TIP3    H151326   6.710   5.746  16.698 -0.9525  0.5963 -1.1082
 9945TIP3    H251327   6.627   5.620  16.716  0.0468  0.1307  0.3711
 9946TIP3   OH251328   4.371   0.892   6.181 -0.1432  0.5696 -0.2639
 9946TIP3    H151329   4.408   0.804   6.189  0.2089  0.7837  0.6260
 9946TIP3    H251330   4.364   0.907   6.087  0.0339 -0.3126 -0.4228
 9947TIP3   OH251331   2.361   1.318  15.792 -0.1304  0.1430 -0.2715
 9947TIP3    H151332   2.324   1.291  15.876 -3.0205  0.4330 -1.3309
 9947TIP3    H251333   2.333   1.409  15.782  0.7725  0.3302 -1.2347
 9948TIP3   OH251334   3.718   0.108  12.878 -0.0634 -0.0683  0.0580
 9948TIP3    H151335   3.791   0.065  12.921 -0.5117 -1.5191 -0.5571
 9948TIP3    H251336   3.641   0.058  12.905 -0.7148  0.8209 -0.0779
 9949TIP3   OH251337   2.497   3.387  15.138  0.0918 -0.0882  0.2317
 9949TIP3    H151338   2.433   3.448  15.103  1.0781 -0.2911 -2.1800
 9949TIP3    H251339   2.562   3.442  15.181  0.6808  0.5691 -1.4270
 9950TIP3   OH251340   6.086   3.794  13.908  0.2549 -0.5282  0.2102
 9950TIP3    H151341   6.055   3.796  13.818 -0.1615 -0.2624  0.3563
 9950TIP3    H251342   6.078   3.885  13.938 -1.3695 -0.9248  1.0962
 9951TIP3   OH251343   4.881   4.392  14.949  0.5384  0.4444  0.1933
 9951TIP3    H151344   4.973   4.403  14.970  0.6159 -1.0953  0.7908
 9951TIP3    H251345   4.835   4.449  15.011  1.0105 -0.3092  1.2708
 9952TIP3   OH251346   0.268   1.580  16.357 -0.1819  0.2755 -0.3637
 9952TIP3    H151347   0.212   1.592  16.433  1.1293 -2.0559  1.0672
 9952TIP3    H251348   0.211   1.541  16.291 -0.5869 -0.7241  0.5602
 9953TIP3   OH251349   3.501   3.015   4.958 -0.4234 -0.0001 -0.4783
 9953TIP3    H151350   3.559   3.045   5.028 -0.0562  0.8170 -1.1034
 9953TIP3    H251351   3.415   3.050   4.980 -0.3560  0.0559 -0.3084
 9954TIP3   OH251352   1.625   0.282  14.454  0.1321 -0.1398 -1.0884
 9954TIP3    H151353   1.558   0.216  14.467  0.0415  0.0370 -0.6282
 9954TIP3    H251354   1.590   0.339  14.385 -0.8546  0.7933  0.1360
 9955TIP3   OH251355   1.615   5.284   3.592  0.6573  0.6762 -0.5843
 9955TIP3    H151356   1.679   5.213   3.594 -2.3335 -2.3448 -1.4760
 9955TIP3    H251357   1.608   5.308   3.500 -0.1543  0.2153 -0.6594
 9956TIP3   OH251358   1.170   5.646   1.284 -0.2381 -0.2608 -0.0838
 9956TIP3    H151359   1.150   5.717   1.223 -1.4267 -0.0980  0.4716
 9956TIP3    H251360   1.232   5.590   1.236  0.2916  0.8468 -0.7262
 9957TIP3   OH251361   5.843   3.390  16.520 -0.2908 -0.1194  0.0518
 9957TIP3    H151362   5.749   3.378  16.538 -0.6788  0.9701 -1.1149
 9957TIP3    H251363   5.882   3.406  16.606 -1.5184  1.5213  0.3564
 9958TIP3   OH251364   5.348   0.504   3.929 -0.0035 -0.2104  0.3697
 9958TIP3    H151365   5.362   0.549   3.845  0.2197  0.0931  0.5675
 9958TIP3    H251366   5.276   0.553   3.970 -0.1227 -0.3676  0.3513
 9959TIP3   OH251367   4.989   1.629  13.947 -0.4977  0.0093  0.0035
 9959TIP3    H151368   4.996   1.688  14.022  1.0651 -0.1057 -0.0234
 9959TIP3    H251369   5.073   1.636  13.903 -0.4594 -1.8397 -0.3019
 9960TIP3   OH251370   5.546   5.396   6.195  0.1315  0.2447 -0.1450
 9960TIP3    H151371   5.554   5.317   6.248 -0.1869  1.6702  2.1287
 9960TIP3    H251372   5.634   5.435   6.197  0.8732 -1.0262 -3.0186
 9961TIP3   OH251373   3.264   5.719  15.550  0.1536 -1.0478  0.0997
 9961TIP3    H151374   3.262   5.814  15.561 -0.3558 -1.2874  2.8071
 9961TIP3    H251375   3.192   5.701  15.489  0.2688  0.2692 -0.4798
 9962TIP3   OH251376   1.616   6.325   3.183  0.0296  0.4792  0.1511
 9962TIP3    H151377   1.571   6.243   3.163 -0.2156  0.8625 -0.9507
 9962TIP3    H251378   1.656   6.351   3.100 -0.3496  1.7406  0.3466
 9963TIP3   OH251379   6.358   3.459   5.794 -0.5209 -0.4793  0.0356
 9963TIP3    H151380   6.325   3.458   5.884 -1.4140  0.0777 -0.2724
 9963TIP3    H251381   6.285   3.491   5.742 -0.2446 -1.4423 -0.9900
 9964TIP3   OH251382   5.957   0.563   6.349  0.2205  0.0123  0.2491
 9964TIP3    H151383   6.045   0.582   6.317 -0.4056  2.1250 -0.3512
 9964TIP3    H251384   5.899   0.614   6.293 -1.2331  0.5088  2.0970
 9965TIP3   OH251385   0.235   3.928   3.440 -0.1674  0.2364  0.3668
 9965TIP3    H151386   0.262   3.903   3.352  1.2557 -0.4756  0.9550
 9965TIP3    H251387   0.216   4.022   3.435 -0.7425  0.0666 -0.8200
 9966TIP3   OH251388   0.951   2.349  16.790  0.0530  0.4029 -0.1069
 9966TIP3    H151389   0.898   2.426  16.767  0.1808  0.3924 -0.4424
 9966TIP3    H251390   1.016   2.383  16.852  0.5382  0.7158 -0.7674
 9967TIP3   OH251391   4.123   0.365  13.160 -0.4743 -0.2077  0.4155
 9967TIP3    H151392   4.144   0.458  13.152 -0.2299 -0.2212  0.8795
 9967TIP3    H251393   4.208   0.322  13.167 -0.6259 -0.2537  2.3964
 9968TIP3   OH251394   0.949   4.494   4.694 -0.2540  0.5947 -0.0289
 9968TIP3    H151395   0.942   4.418   4.637  0.2578  0.3556  0.2205
 9968TIP3    H251396   1.031   4.482   4.740  0.8576  2.2898 -1.4279
 9969TIP3   OH251397   2.288   6.420   1.271 -0.4870 -0.0560  0.1721
 9969TIP3    H151398   2.380   6.418   1.244 -0.2362  0.8567  0.9025
 9969TIP3    H251399   2.240   6.433   1.190 -0.2517 -3.4271 -0.6868
 9970TIP3   OH251400   5.178   4.822   1.023 -0.6171 -0.2563  0.0648
 9970TIP3    H151401   5.189   4.766   1.100 -0.1442 -1.1325 -0.6218
 9970TIP3    H251402   5.194   4.911   1.054 -0.1147 -0.6386  0.9024
 9971TIP3   OH251403   4.602   6.467  12.168  0.0962 -0.4605 -0.4750
 9971TIP3    H151404   4.581   6.396  12.108 -3.2147  2.0590 -2.5939
 9971TIP3    H251405   4.657   6.526  12.118 -1.4973  0.9622 -0.6254
 9972TIP3   OH251406   4.195   5.143   3.056 -0.6080 -1.0699 -0.8117
 9972TIP3    H151407   4.226   5.233   3.061 -0.4489 -1.0940 -1.2790
 9972TIP3    H251408   4.272   5.090   3.073 -0.3317 -1.1311 -2.1081
 9973TIP3   OH251409   0.983   5.039  11.547  0.1352  0.2838 -0.2076
 9973TIP3    H151410   0.913   5.036  11.612  1.7621 -1.0046  1.5940
 9973TIP3    H251411   0.974   4.957  11.499 -0.0305  0.4702 -0.5020
 9974TIP3   OH251412   2.263   2.352   0.993 -0.1042  0.5019  0.0132
 9974TIP3    H151413   2.282   2.406   0.917 -0.0619  1.9010  0.9850
 9974TIP3    H251414   2.340   2.361   1.049  0.4372 -1.5516 -0.3093
 9975TIP3   OH251415   5.502   4.883  14.162  0.4972 -0.1442 -0.5505
 9975TIP3    H151416   5.548   4.834  14.094 -1.9952 -1.3104 -1.5341
 9975TIP3    H251417   5.520   4.975  14.143 -0.1118 -0.4368 -2.8060
 9976TIP3   OH251418   4.176   0.791   3.731  0.0392  0.1661 -0.2522
 9976TIP3    H151419   4.111   0.845   3.775 -1.1777 -1.3918 -0.0294
 9976TIP3    H251420   4.134   0.705   3.723  1.0569 -0.1856 -2.5225
 9977TIP3   OH251421   4.732   0.243  12.858 -0.0455  0.4430  0.0103
 9977TIP3    H151422   4.724   0.278  12.946 -0.3639 -0.2428  0.2600
 9977TIP3    H251423   4.684   0.160  12.860 -0.4689  0.6472 -0.9353
 9978TIP3   OH251424   6.794   2.490  12.858 -0.0575 -0.5433 -0.7216
 9978TIP3    H151425   6.737   2.414  12.873 -0.0538 -0.1894  1.3150
 9978TIP3    H251426   6.755   2.560  12.910  1.6927 -0.0262 -0.0356
 9979TIP3   OH251427   3.198   2.527   4.237  0.1653  0.5646 -0.3443
 9979TIP3    H151428   3.274   2.497   4.287  0.4696 -0.0116 -1.1332
 9979TIP3    H251429   3.135   2.553   4.304  0.8456  0.5393  0.3307
 9980TIP3   OH251430   3.265   2.911  12.011  0.1794  0.0648  0.3710
 9980TIP3    H151431   3.242   2.882  11.923  0.7116  1.5997 -0.3259
 9980TIP3    H251432   3.355   2.881  12.024  0.5802  0.9719 -0.1779
 9981TIP3   OH251433   0.920   4.756  10.672  0.1707  0.1620 -0.2415
 9981TIP3    H151434   0.845   4.759  10.731  1.0307 -0.4712  0.9246
 9981TIP3    H251435   0.919   4.840  10.627  0.6927  1.5954  2.2467
 9982TIP3   OH251436   1.792   0.751   3.715  0.3439 -0.0442 -0.3883
 9982TIP3    H151437   1.873   0.726   3.759  0.2373  2.2216  1.2526
 9982TIP3    H251438   1.819   0.777   3.627  1.4284  0.7380  0.1510
 9983TIP3   OH251439   3.297   2.107   0.660 -0.8942  0.7306  0.2953
 9983TIP3    H151440   3.287   2.026   0.611  1.0133  0.7206 -0.1559
 9983TIP3    H251441   3.259   2.174   0.603  0.5897  0.6056 -0.9195
 9984TIP3   OH251442   0.142   5.675   1.121 -0.1728  0.0424  0.5475
 9984TIP3    H151443   0.080   5.746   1.135  0.4706  0.1822  3.2407
 9984TIP3    H251444   0.227   5.711   1.146  0.9274 -0.4214 -2.1828
 9985TIP3   OH251445   4.818   4.981   4.820 -0.2154 -0.2087 -0.1956
 9985TIP3    H151446   4.798   5.025   4.903 -0.1611 -1.2365  0.3716
 9985TIP3    H251447   4.766   5.029   4.755 -1.2614 -0.1950  0.6240
 9986TIP3   OH251448   2.556   1.958  10.457 -0.2537  0.7967 -0.0281
 9986TIP3    H151449   2.575   1.917  10.373  3.5749  0.2632  0.9388
 9986TIP3    H251450   2.594   2.046  10.451 -2.5164  1.8653  0.2208
 9987TIP3   OH251451   5.292   4.296   1.111  0.2230 -0.4480  0.0398
 9987TIP3    H151452   5.248   4.380   1.122  1.2815  0.1686 -0.3140
 9987TIP3    H251453   5.240   4.235   1.164 -1.2965  0.1524 -0.6954
 9988TIP3   OH251454   5.178   2.379  11.238  0.2214  0.3262  0.9242
 9988TIP3    H151455   5.234   2.340  11.170 -1.2842 -0.4374  0.0556
 9988TIP3    H251456   5.105   2.318  11.246  1.1139 -0.5045  4.4699
 9989TIP3   OH251457   3.710   5.747  11.374 -0.2382  0.9590 -0.6533
 9989TIP3    H151458   3.641   5.713  11.317 -0.9738  0.9837  0.1969
 9989TIP3    H251459   3.757   5.670  11.404  0.2358  0.9537 -1.3697
 9990TIP3   OH251460   3.185   6.325  11.606 -0.1219  0.2816  0.1608
 9990TIP3    H151461   3.128   6.399  11.628 -0.3514  0.6197 -1.3995
 9990TIP3    H251462   3.128   6.264  11.559  0.7539  0.6400 -1.4533
 9991TIP3   OH251463   4.089   5.142   0.794  0.1708  0.2659  0.5310
 9991TIP3    H151464   4.130   5.217   0.752  2.0542 -1.8980 -1.7681
 9991TIP3    H251465   4.130   5.138   0.881  3.5558 -0.6368 -0.9601
 9992TIP3   OH251466   4.378   5.117   4.878  0.2882 -0.8472 -0.3658
 9992TIP3    H151467   4.408   5.149   4.963 -0.8142  0.9540 -0.5919
 9992TIP3    H251468   4.283   5.129   4.880  0.3410  0.5671 -2.3006
 9993TIP3   OH251469   0.095   4.423   0.638  0.2125  0.1606  0.5343
 9993TIP3    H151470   0.082   4.354   0.703  0.8374  1.9940  2.7322
 9993TIP3    H251471   0.007   4.448   0.611 -0.0230 -1.9765 -0.9502
 9994TIP3   OH251472   2.859   0.864   4.404 -0.5850  0.5137 -0.2485
 9994TIP3    H151473   2.868   0.952   4.369 -1.1664  0.4696 -0.5312
 9994TIP3    H251474   2.870   0.807   4.328 -1.4905  0.4016 -0.3062
 9995TIP3   OH251475   6.160   4.915   3.943  0.1830 -0.1166  0.3920
 9995TIP3    H151476   6.125   4.976   4.009  0.5359  0.3708  0.1375
 9995TIP3    H251477   6.251   4.902   3.968  0.7497  1.2355 -0.8115
 9996TIP3   OH251478   1.191   1.973   1.682 -0.0892 -0.1610  0.0024
 9996TIP3    H151479   1.156   1.999   1.767 -0.0285 -1.2412  0.3670
 9996TIP3    H251480   1.214   2.056   1.639 -0.3715  0.4026  0.9232
 9997TIP3   OH251481   1.753   4.613   4.157 -0.1323  0.4118 -0.0544
 9997TIP3    H151482   1.688   4.562   4.110 -1.7849  0.8647  1.6171
 9997TIP3    H251483   1.732   4.600   4.250  1.6109  1.2876  0.5264
 9998TIP3   OH251484   2.253   6.174  15.210  0.6911 -0.0687 -1.0997
 9998TIP3    H151485   2.191   6.245  15.228 -0.0246 -1.2382  1.4224
 9998TIP3    H251486   2.205   6.116  15.150  0.5507  0.5878 -1.6382
 9999TIP3   OH251487   3.014   4.175  12.349 -0.3584 -0.7207 -0.0898
 9999TIP3    H151488   3.001   4.161  12.255 -2.5792 -0.6052  0.1347
 9999TIP3    H251489   3.084   4.115  12.372 -0.2273 -1.2545 -1.7043
10000TIP3   OH251490   4.568   4.259   1.706 -0.1056  0.2025 -0.8060
10000TIP3    H151491   4.493   4.303   1.745  0.3761 -0.0606  0.4675
10000TIP3    H251492   4.642   4.283   1.762  1.1925  2.0618 -3.1145
10001TIP3   OH251493   2.363   5.274  16.189 -0.5695  0.0397 -0.3554
10001TIP3    H151494   2.341   5.196  16.138 -0.5846 -0.6233  0.6441
10001TIP3    H251495   2.396   5.336  16.124  0.0526 -1.0232 -1.0887
10002TIP3   OH251496   0.027   3.541  12.984 -0.2376 -0.1292  0.5938
10002TIP3    H151497   0.014   3.553  13.078 -0.6006 -0.7908  0.6385
10002TIP3    H251498   0.065   3.623  12.954  0.4087 -0.1154  1.4143
10003TIP3   OH251499   2.960   0.294  13.458  0.1651  1.1111 -0.1119
10003TIP3    H151500   2.947   0.361  13.524 -0.8539 -0.1899  1.0656
10003TIP3    H251501   2.962   0.342  13.375 -1.1737  2.5361  0.6400
10004TIP3   OH251502   2.709   1.179  11.846  0.0228  0.6272 -0.1571
10004TIP3    H151503   2.677   1.179  11.756  0.6236 -0.8877 -0.4035
10004TIP3    H251504   2.775   1.110  11.848 -1.0878 -0.4696  1.8321
10005TIP3   OH251505   6.625   3.796  14.838  0.5155  0.0003  0.1611
10005TIP3    H151506   6.647   3.743  14.762  4.1779 -1.2779  1.9100
10005TIP3    H251507   6.622   3.734  14.911  0.7359  1.6533  1.6462
10006TIP3   OH251508   4.196   6.719  13.835  0.4108 -0.7047 -0.3184
10006TIP3    H151509   4.179   6.625  13.828  2.6468 -1.4694  2.6588
10006TIP3    H251510   4.125   6.752  13.890  0.6481 -1.0521  0.2086
10007TIP3   OH251511   1.239   0.595  12.669  0.4811  0.2828  0.0035
10007TIP3    H151512   1.163   0.652  12.678  1.3786  1.3483  1.1854
10007TIP3    H251513   1.306   0.634  12.725  2.5934  0.5453 -2.4738
10008TIP3   OH251514   2.326   0.602  16.051 -0.0695 -0.1421 -0.4326
10008TIP3    H151515   2.255   0.561  16.101  0.0204 -2.3205 -1.9759
10008TIP3    H251516   2.406   0.574  16.094 -0.0189 -1.3771 -1.3035
10009TIP3   OH251517   0.238   3.120   4.429 -0.0333 -0.0681 -0.0960
10009TIP3    H151518   0.247   3.151   4.520 -0.6364  0.1368 -0.1020
10009TIP3    H251519   0.163   3.168   4.395 -0.8994 -1.4022 -0.1627
10010TIP3   OH251520   4.026   0.835  15.502 -0.7805  0.3640 -0.1432
10010TIP3    H151521   3.968   0.771  15.463 -0.2017 -0.1132 -0.2419
10010TIP3    H251522   3.974   0.915  15.508 -1.2996  0.0667 -0.6293
10011TIP3   OH251523   1.387   5.707  14.422 -0.3790  0.3784  0.0925
10011TIP3    H151524   1.331   5.646  14.374 -0.9595 -0.0559  1.3013
10011TIP3    H251525   1.451   5.651  14.467 -0.3360  0.7265  0.4709
10012TIP3   OH251526   5.408   5.569  11.850 -0.1075 -0.1753  0.1504
10012TIP3    H151527   5.468   5.498  11.871  0.0914 -1.0625 -2.8731
10012TIP3    H251528   5.464   5.646  11.839  0.2084 -0.4671 -0.3284
10013TIP3   OH251529   1.813   6.343  13.254 -0.0629 -0.3125  0.1545
10013TIP3    H151530   1.871   6.362  13.181  0.4488 -0.1938  0.5864
10013TIP3    H251531   1.725   6.347  13.216  0.1906 -0.1520 -0.4288
10014TIP3   OH251532   3.568   6.425  11.049 -0.2289 -0.3992 -0.3404
10014TIP3    H151533   3.643   6.366  11.047  0.4632  0.4306  0.3698
10014TIP3    H251534   3.605   6.511  11.029 -0.4873  0.5056  2.6032
10015TIP3   OH251535   1.660   2.132  16.899  0.6248  0.0059  0.5304
10015TIP3    H151536   1.670   2.186  16.821 -0.0754 -1.7609 -0.8672
10015TIP3    H251537   1.748   2.126  16.936  1.0783  0.4068 -0.4433
10016TIP3   OH251538   3.859   5.281   6.147  0.5121  0.1414 -0.1117
10016TIP3    H151539   3.864   5.198   6.099  0.7155  0.1499 -0.1038
10016TIP3    H251540   3.937   5.329   6.120  0.9844 -0.1307  0.7643
10017TIP3   OH251541   2.065   3.891  15.944  0.1332  0.6857  0.2726
10017TIP3    H151542   2.010   3.820  15.977 -0.3114  0.2714 -1.2655
10017TIP3    H251543   2.027   3.913  15.859  0.3979  2.6262  0.5953
10018TIP3   OH251544   6.245   6.345  17.120  0.4104 -0.3195  0.2286
10018TIP3    H151545   6.169   6.287  17.113  1.0097 -1.1784  0.6047
10018TIP3    H251546   6.254   6.383  17.032  0.1022 -0.9232 -0.0744
10019TIP3   OH251547   0.152   6.277   6.480 -0.2163  0.6678 -0.1535
10019TIP3    H151548   0.193   6.269   6.566  1.0925 -0.3260 -0.8389
10019TIP3    H251549   0.105   6.195   6.468  1.9436 -0.4690 -1.5107
10020TIP3   OH251550   4.894   2.059  16.052  0.0284 -0.3254  0.5215
10020TIP3    H151551   4.831   2.050  15.979 -1.7583  0.6287  1.8688
10020TIP3    H251552   4.896   2.153  16.070  0.9933 -0.4768  1.2500
10021TIP3   OH251553   5.402   3.564  16.452  0.4426 -0.1342 -0.4568
10021TIP3    H151554   5.376   3.656  16.461 -3.8732 -0.8620 -2.6391
10021TIP3    H251555   5.455   3.562  16.372 -0.8378  0.3270 -1.3534
10022TIP3   OH251556   5.232   4.112   3.484  0.3297  0.1052 -0.0095
10022TIP3    H151557   5.266   4.092   3.397  0.1019 -2.0483  0.3461
10022TIP3    H251558   5.274   4.048   3.542 -0.8296  0.3532  1.1702
10023TIP3   OH251559   6.343   1.660   6.396  0.3793  0.3694  0.0337
10023TIP3    H151560   6.258   1.646   6.436  0.4724  0.3703  0.2342
10023TIP3    H251561   6.402   1.603   6.444  0.4584  0.2297 -0.2270
10024TIP3   OH251562   0.778   5.106  15.600 -0.2757  0.1835  0.6385
10024TIP3    H151563   0.785   5.169  15.672  3.3443  0.5832  0.0844
10024TIP3    H251564   0.811   5.152  15.524 -0.5625 -1.4015 -0.4980
10025TIP3   OH251565   5.066   5.549   2.649 -0.3771  0.0401 -0.4272
10025TIP3    H151566   5.113   5.474   2.686 -0.2336  0.0660 -0.5573
10025TIP3    H251567   5.133   5.598   2.602 -1.0622 -1.5828 -3.3150
10026TIP3   OH251568   3.828   2.760  11.618 -0.0360 -0.4653  0.2906
10026TIP3    H151569   3.902   2.700  11.631  0.2591 -0.2823 -0.4971
10026TIP3    H251570   3.869   2.842  11.589 -0.3031  0.6067  2.7124
10027TIP3   OH251571   4.370   0.445  10.752 -0.0693  0.0559  0.7914
10027TIP3    H151572   4.424   0.411  10.680  1.0882  2.0778  0.6443
10027TIP3    H251573   4.433   0.474  10.818 -1.0830 -0.1772  1.8985
10028TIP3   OH251574   6.797   3.601   6.767  0.0154 -0.6299  0.2794
10028TIP3    H151575   6.861   3.586   6.697 -0.3439  2.9884 -1.0169
10028TIP3    H251576   6.849   3.594   6.848  0.7968 -3.1468 -0.3319
10029TIP3   OH251577   0.989   6.711  13.276  0.6359 -0.1651  0.7687
10029TIP3    H151578   1.068   6.681  13.232  1.7462  1.1551  1.7760
10029TIP3    H251579   0.917   6.671  13.227  1.6952  1.9268 -2.8721
10030TIP3   OH251580   6.098   0.699   5.213  0.3875  0.0292  0.0847
10030TIP3    H151581   6.073   0.628   5.154 -2.2033 -1.0683  2.3043
10030TIP3    H251582   6.050   0.776   5.181  0.2061 -0.1764 -0.1382
10031TIP3   OH251583   3.597   1.607   5.533  0.2344 -0.4254 -0.5560
10031TIP3    H151584   3.673   1.579   5.480  1.8856  1.6265  0.5754
10031TIP3    H251585   3.541   1.652   5.471  1.5567  0.8878 -0.8595
10032TIP3   OH251586   0.245   3.593   4.069 -0.1631  0.0648  0.1210
10032TIP3    H151587   0.330   3.627   4.096 -0.4257 -0.1570  1.2805
10032TIP3    H251588   0.183   3.630   4.132 -0.6748 -1.2261  0.4148
10033TIP3   OH251589   6.292   2.841  11.193 -0.0131 -0.4104 -0.0567
10033TIP3    H151590   6.200   2.840  11.168 -0.4911 -1.3160  1.5789
10033TIP3    H251591   6.338   2.815  11.113 -0.8760  2.5853 -1.6739
10034TIP3   OH251592   1.668   5.549  14.249 -0.7530 -0.4094 -0.3516
10034TIP3    H151593   1.742   5.590  14.204  0.5455 -0.2495  1.7650
10034TIP3    H251594   1.602   5.619  14.254 -0.0337  0.2721 -0.0566
10035TIP3   OH251595   2.340   0.706  16.811  0.2161  0.2630  0.8290
10035TIP3    H151596   2.389   0.753  16.878  0.9676  0.1833  0.3477
10035TIP3    H251597   2.266   0.764  16.790  0.5634  0.7590  0.9734
10036TIP3   OH251598   0.367   4.267   4.375  0.2578  0.2464 -0.2214
10036TIP3    H151599   0.289   4.222   4.407 -0.9512  1.9283 -0.6506
10036TIP3    H251600   0.438   4.233   4.429 -0.3059 -3.0689 -1.3702
10037TIP3   OH251601   2.244   3.911   4.976 -0.1828 -0.4110  0.4218
10037TIP3    H151602   2.326   3.863   4.964  0.0901  0.0166  0.5949
10037TIP3    H251603   2.265   3.982   5.036 -0.6850 -0.3092  0.4842
10038TIP3   OH251604   0.484   0.406   4.087 -0.0833  0.2946  1.0364
10038TIP3    H151605   0.473   0.316   4.120 -1.4915  0.9009  2.3405
10038TIP3    H251606   0.575   0.427   4.106  0.8017 -1.4191 -0.8618
10039TIP3   OH251607   6.319   0.123  14.745  0.0033  0.0892 -0.0842
10039TIP3    H151608   6.276   0.180  14.810 -0.6102 -1.9535  1.3972
10039TIP3    H251609   6.247   0.085  14.696  0.4326  0.8520 -1.3481
10040TIP3   OH251610   6.707   0.632  16.478  0.7411 -0.0438  0.6884
10040TIP3    H151611   6.751   0.717  16.480  2.5571 -0.9320  0.2315
10040TIP3    H251612   6.641   0.641  16.409  2.0191  0.5200 -0.5289
10041TIP3   OH251613   6.125   2.452  14.034  0.3533  0.0755 -0.0689
10041TIP3    H151614   6.064   2.379  14.041  1.2958 -1.1759 -3.0181
10041TIP3    H251615   6.205   2.413  13.998  1.3866  2.3348 -0.4382
10042TIP3   OH251616   3.926   1.816   3.722 -0.6285 -0.2095  0.1893
10042TIP3    H151617   3.937   1.793   3.630 -0.2450  1.3110 -0.1732
10042TIP3    H251618   4.012   1.846   3.750 -0.6970 -0.8274  1.1067
10043TIP3   OH251619   2.351   3.793  12.115 -0.1314  0.7262 -0.0065
10043TIP3    H151620   2.392   3.869  12.157  1.0854 -0.3485  0.8042
10043TIP3    H251621   2.395   3.785  12.031  0.6065  0.2259  0.4113
10044TIP3   OH251622   0.719   2.770   4.325 -0.3739  0.3305  0.1796
10044TIP3    H151623   0.628   2.752   4.346 -0.6081 -0.4954 -1.4559
10044TIP3    H251624   0.722   2.776   4.230  1.0921  1.4507  0.2549
10045TIP3   OH251625   3.147   5.495   4.001 -0.3381 -0.3022 -0.2551
10045TIP3    H151626   3.221   5.554   3.983 -0.1881 -0.7152 -1.0472
10045TIP3    H251627   3.170   5.453   4.084 -0.1257  0.2522 -0.0281
10046TIP3   OH251628   2.227   2.085  10.968 -0.3884  0.2841  0.0540
10046TIP3    H151629   2.268   2.167  10.994  0.4403 -0.3034  0.6444
10046TIP3    H251630   2.284   2.050  10.899 -0.0644 -0.3771  0.6473
10047TIP3   OH251631   2.760   6.015  14.536  0.3391 -0.0155  0.1037
10047TIP3    H151632   2.762   5.972  14.451  0.9380  0.6219 -0.2152
10047TIP3    H251633   2.843   5.992  14.577  0.6007  0.6971 -0.0075
10048TIP3   OH251634   5.875   6.601  16.965 -0.3070  0.4192  0.6046
10048TIP3    H151635   5.813   6.547  17.013 -0.9965  0.8578  0.2248
10048TIP3    H251636   5.866   6.574  16.874  1.3863 -0.7859  0.7516
10049TIP3   OH251637   0.959   1.623   4.828 -0.2518  0.6020  0.0533
10049TIP3    H151638   0.865   1.603   4.831 -0.1015 -2.9745 -5.0319
10049TIP3    H251639   0.997   1.571   4.898 -1.8767 -0.0384  0.5123
10050TIP3   OH251640   2.131   4.996  13.515  0.4039 -0.5640 -0.3416
10050TIP3    H151641   2.215   4.971  13.477  0.6679  0.1739 -0.2483
10050TIP3    H251642   2.095   5.060  13.454  0.1233 -0.5270 -0.1395
10051TIP3   OH251643   1.420   0.348   2.822  0.1733  0.3286  0.5195
10051TIP3    H151644   1.379   0.301   2.894  0.3278 -0.0082  0.3913
10051TIP3    H251645   1.497   0.389   2.860  1.9000 -2.1827 -0.0025
10052TIP3   OH251646   3.446   0.842  15.066 -0.0617  0.6474 -0.2423
10052TIP3    H151647   3.419   0.757  15.031 -0.2699  1.0945 -1.1968
10052TIP3    H251648   3.365   0.882  15.097  0.0685  0.4132  0.4173
10053TIP3   OH251649   0.275   1.800   1.222 -0.1926  0.0851  0.1303
10053TIP3    H151650   0.240   1.880   1.184  0.9308  2.0605  2.8958
10053TIP3    H251651   0.361   1.789   1.180 -1.1326 -0.8216 -1.6313
10054TIP3   OH251652   5.339   6.791   0.091 -0.2067  0.6466 -0.0347
10054TIP3    H151653   5.273   6.821   0.029  1.4381  1.5168 -1.4574
10054TIP3    H251654   5.325   6.696   0.097 -1.4322  0.7877 -0.4629
10055TIP3   OH251655   5.902   6.528  14.695  0.0734 -0.2511 -1.0551
10055TIP3    H151656   5.912   6.557  14.604  0.5163 -2.3330 -1.7219
10055TIP3    H251657   5.990   6.502  14.722 -0.5138 -2.5746 -1.1335
10056TIP3   OH251658   5.550   4.841  15.923 -0.2577 -0.1815  0.0208
10056TIP3    H151659   5.505   4.813  16.003 -1.3452 -0.1775 -0.5779
10056TIP3    H251660   5.489   4.820  15.852  0.4811  0.2798 -0.7689
10057TIP3   OH251661   5.877   4.994  15.903 -0.6408 -0.2545  0.0419
10057TIP3    H151662   5.913   4.918  15.948  1.2538  1.8439  2.3351
10057TIP3    H251663   5.953   5.036  15.862 -1.2644  1.5379  0.6347
10058TIP3   OH251664   5.599   0.940   4.033  0.1654  0.0808 -0.2862
10058TIP3    H151665   5.543   1.003   3.988 -1.3240 -1.7166 -1.0999
10058TIP3    H251666   5.651   0.993   4.093  0.6486  2.3337 -2.5226
10059TIP3   OH251667   3.440   6.243   0.055  0.3113 -0.3675 -0.4796
10059TIP3    H151668   3.417   6.302  -0.017 -0.4359  1.7835  1.3960
10059TIP3    H251669   3.356   6.203   0.081 -0.2446  1.9851  1.7183
10060TIP3   OH251670   4.428   0.639   2.994  0.2951 -0.4380  0.0802
10060TIP3    H151671   4.351   0.656   3.049  0.0434 -2.4825  0.4249
10060TIP3    H251672   4.485   0.715   3.010 -1.5907  1.1149 -0.1582
10061TIP3   OH251673   2.427   4.395  17.145  0.0489  0.5438 -0.2867
10061TIP3    H151674   2.470   4.480  17.134  0.8099  0.6648  2.8421
10061TIP3    H251675   2.337   4.409  17.116 -0.4013  3.0556  1.9924
10062TIP3   OH251676   5.058   0.486  14.775 -0.0050  0.2454  0.3491
10062TIP3    H151677   5.080   0.578  14.761 -1.8037  0.6381 -0.0456
10062TIP3    H251678   5.060   0.476  14.870  0.5214  0.5912  0.3818
10063TIP3   OH251679   4.278   5.030  13.015 -0.0177 -0.1993 -0.4866
10063TIP3    H151680   4.188   4.998  13.011 -0.2844  0.5920 -0.9328
10063TIP3    H251681   4.278   5.110  12.963  1.0197 -0.3574 -0.7547
10064TIP3   OH251682   3.506   1.661   0.263 -0.1265  0.9799  0.1148
10064TIP3    H151683   3.424   1.612   0.269 -0.1975  1.1820  0.9233
10064TIP3    H251684   3.554   1.618   0.192  0.1552 -0.7962  1.3220
10065TIP3   OH251685   0.852   1.618   3.019  0.0875  0.5119  0.1130
10065TIP3    H151686   0.795   1.575   2.955  2.5505  0.0033 -1.9124
10065TIP3    H251687   0.823   1.709   3.019 -1.5486  0.0258  0.1807
10066TIP3   OH251688   5.050   0.801  12.785 -0.3280 -0.3150 -0.0922
10066TIP3    H151689   5.069   0.859  12.859 -0.4164 -1.6062  0.9807
10066TIP3    H251690   5.133   0.797  12.736  0.0709 -0.3205  0.5706
10067TIP3   OH251691   4.234   6.405  14.050  0.4138  0.5441 -0.1875
10067TIP3    H151692   4.278   6.406  14.135 -0.3783  1.1239  0.2424
10067TIP3    H251693   4.151   6.451  14.067  0.7839  1.7788 -1.5608
10068TIP3   OH251694   2.455   3.367   5.234  0.3538 -0.5439 -0.3018
10068TIP3    H151695   2.459   3.361   5.138 -2.3043  0.7105 -0.5759
10068TIP3    H251696   2.445   3.276   5.262  0.2463 -0.8505 -1.2657
10069TIP3   OH251697   3.723   5.841   0.049 -0.3049  0.3638  0.4261
10069TIP3    H151698   3.706   5.931   0.022 -0.5064  0.1162 -0.2796
10069TIP3    H251699   3.730   5.846   0.144 -0.7785  1.0521  0.4320
10070TIP3   OH251700   0.725   1.431   5.872 -0.6589 -0.7279 -0.0851
10070TIP3    H151701   0.649   1.488   5.884 -0.9822 -0.7058 -1.9389
10070TIP3    H251702   0.794   1.471   5.925 -1.4308  0.2512  0.2101
10071TIP3   OH251703   5.960   4.853  11.965  0.4795  0.8684 -0.3999
10071TIP3    H151704   5.945   4.945  11.985  0.1885  0.5655  0.8862
10071TIP3    H251705   6.048   4.835  11.999 -0.0432  0.3311  0.7500
10072TIP3   OH251706   2.234   3.996   0.177 -0.4156  0.2392 -0.4169
10072TIP3    H151707   2.243   4.071   0.117  1.4990 -1.8224 -2.9179
10072TIP3    H251708   2.308   4.005   0.237  0.3538 -0.0814 -1.2930
10073TIP3   OH251709   4.691   0.794  13.764 -0.2799  0.0982  0.3614
10073TIP3    H151710   4.637   0.846  13.705 -1.1649 -0.0836  0.9737
10073TIP3    H251711   4.760   0.758  13.710 -1.7498 -1.0665 -0.8535
10074TIP3   OH251712   0.819   2.856  11.408  0.4452  0.3095  0.2958
10074TIP3    H151713   0.754   2.787  11.420  0.7138  0.1883  1.1661
10074TIP3    H251714   0.769   2.932  11.379 -0.2190  0.4392  1.6978
10075TIP3   OH251715   0.704   4.529   5.111 -0.6668  0.2759 -0.4949
10075TIP3    H151716   0.688   4.620   5.134 -0.2316  0.5174 -1.1316
10075TIP3    H251717   0.760   4.533   5.033 -0.1175 -0.5320 -0.1572
10076TIP3   OH251718   1.697   5.567  12.101 -0.2519 -0.5674 -0.1745
10076TIP3    H151719   1.663   5.560  12.190 -1.0138 -1.3620 -0.5110
10076TIP3    H251720   1.758   5.493  12.093  2.4320  1.3666  0.7412
10077TIP3   OH251721   3.029   0.945   1.764 -0.0863  0.3949 -0.1631
10077TIP3    H151722   3.041   0.850   1.767 -0.7376  0.3249  0.7302
10077TIP3    H251723   2.934   0.957   1.756 -0.0329  0.9677  0.0072
10078TIP3   OH251724   4.381   2.945  16.876  0.5696  0.2391 -0.3798
10078TIP3    H151725   4.329   2.981  16.948 -1.0980 -1.4480 -0.6701
10078TIP3    H251726   4.416   3.022  16.831 -0.9805  1.4405  0.3622
10079TIP3   OH251727   2.843   3.204  12.882 -0.3512  0.2080  0.2559
10079TIP3    H151728   2.847   3.295  12.909 -0.6872  0.1345  0.5704
10079TIP3    H251729   2.899   3.157  12.945 -1.1368  0.0363  0.8454
10080TIP3   OH251730   6.775   5.515   0.773  0.1421 -0.2312  0.0696
10080TIP3    H151731   6.701   5.574   0.759  0.0928 -0.4539 -0.6183
10080TIP3    H251732   6.846   5.574   0.800 -0.7038 -0.1858  2.4606
10081TIP3   OH251733   3.776   5.691   2.866  0.1242  0.2268  0.6301
10081TIP3    H151734   3.786   5.597   2.851 -0.1797  0.0061  1.7317
10081TIP3    H251735   3.690   5.699   2.908 -0.6850  1.1920 -1.0751
10082TIP3   OH251736   1.965   3.210  12.271 -0.4048 -0.0842 -0.1523
10082TIP3    H151737   2.022   3.146  12.228  1.2801  1.7398 -0.8246
10082TIP3    H251738   2.026   3.265  12.321 -2.0116 -0.2718  2.1547
10083TIP3   OH251739   5.850   1.581  15.711 -0.4339  0.2320  0.6672
10083TIP3    H151740   5.851   1.491  15.745  1.3533  0.5409  1.5256
10083TIP3    H251741   5.836   1.570  15.616  1.7891 -1.1030  0.4257
10084TIP3   OH251742   3.444   6.540   3.915  0.0821 -0.2374  0.0848
10084TIP3    H151743   3.472   6.623   3.876  0.1996 -0.7939 -1.0731
10084TIP3    H251744   3.495   6.531   3.995 -0.3002  1.0443  0.4930
10085TIP3   OH251745   0.311   6.438   3.185 -0.6161 -0.2029  0.6157
10085TIP3    H151746   0.341   6.352   3.215 -1.6528 -0.4243  1.0747
10085TIP3    H251747   0.383   6.497   3.205  0.9211 -1.2499 -1.4501
10086TIP3   OH251748   5.481   5.653  16.754 -0.0598  0.0814  0.1728
10086TIP3    H151749   5.459   5.632  16.663  1.1346  0.0791 -0.1393
10086TIP3    H251750   5.493   5.748  16.754  2.9521 -0.2039 -0.4344
10087TIP3   OH251751   5.282   6.516   0.039 -0.5546 -0.2153  0.5094
10087TIP3    H151752   5.236   6.481  -0.037 -1.2924 -0.6982  1.1555
10087TIP3    H251753   5.335   6.443   0.071  0.4189  0.2440 -0.0401
10088TIP3   OH251754   0.323   0.775   6.540 -0.0680 -0.4985  0.3126
10088TIP3    H151755   0.227   0.774   6.549  0.0049 -0.1006  1.1855
10088TIP3    H251756   0.338   0.746   6.450 -0.9978 -0.8420  0.2532
10089TIP3   OH251757   6.296   5.911   0.647  0.6508  0.1611 -0.0901
10089TIP3    H151758   6.341   5.996   0.648 -0.4638  0.7756  1.7710
10089TIP3    H251759   6.365   5.847   0.658  1.7280  0.6361 -3.0537
10090TIP3   OH251760   3.803   4.019  13.982 -0.2355 -0.2481 -0.6668
10090TIP3    H151761   3.708   4.012  13.991  0.0432 -1.5174  1.9243
10090TIP3    H251762   3.821   4.113  13.991 -0.9931 -0.3280  2.7983
10091TIP3   OH251763   6.688   4.801  12.479  0.6728 -0.0478 -0.0301
10091TIP3    H151764   6.671   4.785  12.572 -1.3995  0.5893 -0.2599
10091TIP3    H251765   6.609   4.771  12.435  0.7973  1.5069 -1.3922
10092TIP3   OH251766   0.135   6.412  16.353 -0.2551 -0.2747 -0.6579
10092TIP3    H151767   0.105   6.495  16.314  1.8705  0.1031 -1.6199
10092TIP3    H251768   0.208   6.385  16.298  0.8707 -1.3695  1.2850
10093TIP3   OH251769   6.578   4.640  10.991  0.2092  0.0004  0.4333
10093TIP3    H151770   6.616   4.639  10.903 -1.0666  1.3849 -0.1790
10093TIP3    H251771   6.550   4.731  11.004 -0.2534 -0.3256  2.0105
10094TIP3   OH251772   3.606   0.479   6.410  0.3962 -0.0346 -0.7435
10094TIP3    H151773   3.635   0.390   6.396  0.2084 -0.3320  0.5754
10094TIP3    H251774   3.511   0.472   6.420  0.3884  0.2921 -0.5512
10095TIP3   OH251775   4.244   0.667  14.871 -0.1005 -0.0129 -0.1366
10095TIP3    H151776   4.308   0.666  14.942  0.9515 -1.3500 -1.0388
10095TIP3    H251777   4.257   0.751  14.828  0.6857 -0.0408  0.0227
10096TIP3   OH251778   4.293   2.751  16.634  0.4260  0.0041  0.0244
10096TIP3    H151779   4.266   2.672  16.680 -0.1464 -0.2926 -0.7924
10096TIP3    H251780   4.296   2.818  16.702  0.7444 -0.6722  0.6974
10097TIP3   OH251781   5.352   6.452  15.986 -0.0262 -0.1979 -0.2793
10097TIP3    H151782   5.398   6.535  15.995  1.0163 -0.8917  1.3323
10097TIP3    H251783   5.333   6.425  16.076 -1.9391 -0.8647 -0.8240
10098TIP3   OH251784   2.122   5.342   5.421 -0.0775  0.2753  0.4873
10098TIP3    H151785   2.154   5.430   5.437  0.7800 -0.0496  0.5830
10098TIP3    H251786   2.200   5.290   5.403 -0.3796 -0.8497  2.1804
10099TIP3   OH251787   0.293   3.826  14.493  0.5032 -0.3160 -0.7285
10099TIP3    H151788   0.324   3.737  14.477  1.4393 -0.0321 -0.5627
10099TIP3    H251789   0.247   3.821  14.577  1.0564 -0.5250 -0.4399
10100TIP3   OH251790   5.791   6.277   0.192  0.1493 -0.0898  0.2922
10100TIP3    H151791   5.873   6.320   0.167  0.3117  0.3311  1.4887
10100TIP3    H251792   5.758   6.328   0.266 -0.7956 -0.7135  0.3192
10101TIP3   OH251793   2.922   3.881  14.166  0.0061 -0.1872 -0.1041
10101TIP3    H151794   2.953   3.798  14.129  0.2063  0.1884 -0.7929
10101TIP3    H251795   2.995   3.942  14.151 -0.6333  0.4324 -0.7529
10102TIP3   OH251796   2.949   0.709   1.267  0.2568  0.8906 -0.6358
10102TIP3    H151797   3.028   0.662   1.241 -0.9508 -1.4528 -0.4186
10102TIP3    H251798   2.928   0.674   1.353 -0.6785  1.9443 -0.4120
10103TIP3   OH251799   3.203   0.276   0.928 -0.1231 -0.3815  0.7261
10103TIP3    H151800   3.149   0.346   0.891  0.0141  0.0247  1.2863
10103TIP3    H251801   3.287   0.317   0.946  0.4248 -1.0398 -0.2360
10104TIP3   OH251802   4.212   2.406  15.384 -0.1237 -0.2801 -0.2529
10104TIP3    H151803   4.180   2.417  15.473  0.4027 -0.5810 -0.0243
10104TIP3    H251804   4.223   2.495  15.350 -1.4465 -0.1607 -0.4314
10105TIP3   OH251805   1.364   0.251   3.069 -0.0987 -0.8238 -0.1069
10105TIP3    H151806   1.418   0.308   3.123  0.3890 -0.5880 -0.8241
10105TIP3    H251807   1.278   0.292   3.069  0.7838  1.3655 -2.5744
10106TIP3   OH251808   1.185   4.794   3.159 -0.3387  0.0271  0.4044
10106TIP3    H151809   1.273   4.828   3.176 -1.2147  2.2351  0.8591
10106TIP3    H251810   1.176   4.796   3.064  0.9054 -2.5832  0.1258
10107TIP3   OH251811   3.556   3.766  12.307  0.0127  0.3141  0.2272
10107TIP3    H151812   3.490   3.747  12.374  0.8257 -1.5217  0.5730
10107TIP3    H251813   3.553   3.861  12.297 -0.4812  0.6127  2.5284
10108TIP3   OH251814   5.591   6.255   5.712  0.8096 -0.3692 -0.0474
10108TIP3    H151815   5.531   6.328   5.731 -1.1359 -2.0530  0.5766
10108TIP3    H251816   5.656   6.294   5.653 -0.1858  1.8497  0.1864
10109TIP3   OH251817   6.815   0.965  12.728 -0.1198 -0.1134  0.0098
10109TIP3    H151818   6.745   0.910  12.762  1.7329 -1.9142  1.1172
10109TIP3    H251819   6.877   0.904  12.687  0.0186  1.5660 -2.5342
10110TIP3   OH251820   5.272   4.410  11.868  0.6733 -0.2828 -0.3775
10110TIP3    H151821   5.355   4.448  11.840 -0.3873  1.3599 -1.5237
10110TIP3    H251822   5.239   4.470  11.935 -0.0833 -0.2950 -0.7234
10111TIP3   OH251823   1.565   6.498   2.653  0.6660 -0.6123 -0.1369
10111TIP3    H151824   1.545   6.524   2.743  2.9232 -1.6422  0.7392
10111TIP3    H251825   1.561   6.402   2.655  1.6363 -0.6788 -0.8915
10112TIP3   OH251826   4.620   6.548   4.674 -0.2812  0.2232  0.6307
10112TIP3    H151827   4.526   6.548   4.660 -0.0472  1.0783 -1.3189
10112TIP3    H251828   4.655   6.491   4.605  0.8956  3.5001 -1.7389
10113TIP3   OH251829   1.705   1.111   4.841 -0.6930 -0.0981 -0.4866
10113TIP3    H151830   1.774   1.054   4.808 -2.2178 -0.1639 -4.0492
10113TIP3    H251831   1.634   1.050   4.863 -0.5822  0.1395  0.5548
10114TIP3   OH251832   5.303   3.087   4.411 -0.2159  0.4970  0.1533
10114TIP3    H151833   5.259   3.150   4.468 -1.0336  0.5994 -0.5707
10114TIP3    H251834   5.240   3.015   4.401 -0.3374  0.7494 -1.0857
10115TIP3   OH251835   1.782   6.802   4.268 -0.8103  0.6191  0.4566
10115TIP3    H151836   1.687   6.812   4.280 -1.0512  0.5483 -1.0715
10115TIP3    H251837   1.797   6.832   4.178  0.7740  1.4754  0.9855
10116TIP3   OH251838   6.358   0.215   3.144 -0.1388 -0.3704  0.0793
10116TIP3    H151839   6.344   0.146   3.079  0.0766 -0.5245  0.1951
10116TIP3    H251840   6.302   0.287   3.115  1.7383  0.4975 -1.6160
10117TIP3   OH251841   2.826   1.909  11.343 -0.1137  0.2518 -0.5247
10117TIP3    H151842   2.833   1.947  11.430 -0.5283 -0.5467 -0.1350
10117TIP3    H251843   2.734   1.887  11.333  0.0232 -0.1509 -0.9622
10118TIP3   OH251844   5.086   5.805  11.303 -0.3859  0.1219 -0.8046
10118TIP3    H151845   5.087   5.709  11.302  1.2724  0.0093  1.7083
10118TIP3    H251846   5.165   5.830  11.255  0.5331  0.0876  0.6348
10119TIP3   OH251847   6.622   4.058   4.717 -0.0343 -0.2226  0.4870
10119TIP3    H151848   6.567   4.129   4.749 -0.0196 -0.2645  0.6065
10119TIP3    H251849   6.686   4.043   4.787  0.6694  0.3928 -0.0017
10120TIP3   OH251850   1.175   3.895   2.741  0.2248 -0.3655  0.2809
10120TIP3    H151851   1.147   3.847   2.663 -0.4344  0.2798  0.0994
10120TIP3    H251852   1.157   3.987   2.719 -0.1818 -0.2010  1.2834
10121TIP3   OH251853   2.411   0.053   2.458 -0.0723  0.2821  0.0982
10121TIP3    H151854   2.484   0.115   2.464 -0.8602  1.1266  1.3714
10121TIP3    H251855   2.371   0.071   2.373  3.1155 -2.4776 -2.2772
10122TIP3   OH251856   3.467   0.310  13.701  0.5892 -0.3087  0.1958
10122TIP3    H151857   3.390   0.365  13.685  0.9396 -0.0856 -0.7806
10122TIP3    H251858   3.436   0.220  13.689  0.2281 -0.2892  0.9109
10123TIP3   OH251859   4.620   3.969   5.068 -0.2759 -0.4130 -0.3541
10123TIP3    H151860   4.524   3.967   5.062 -0.3502  0.2830  0.4239
10123TIP3    H251861   4.637   3.996   5.158  0.6618 -0.7723 -0.4175
10124TIP3   OH251862   0.951   1.868   2.084  0.3154 -0.1182  0.1706
10124TIP3    H151863   0.940   1.815   2.006 -0.9385  0.6618 -0.2267
10124TIP3    H251864   1.045   1.867   2.102  0.3011 -2.7303  0.3977
10125TIP3   OH251865   4.962   5.071   5.182 -0.6121  0.2779  0.1807
10125TIP3    H151866   5.039   5.106   5.136 -0.1064  0.5575  1.1988
10125TIP3    H251867   4.889   5.089   5.124 -0.0572  1.0826 -0.2875
10126TIP3   OH251868   1.742   0.661   0.229  0.3945 -0.2423  0.5532
10126TIP3    H151869   1.735   0.586   0.288  1.1568  2.1940  4.0600
10126TIP3    H251870   1.727   0.624   0.142  0.6890 -4.4003  2.0224
10127TIP3   OH251871   2.786   5.840   3.543  0.0997  0.2067  0.0680
10127TIP3    H151872   2.845   5.892   3.596  0.3996  0.8691 -0.8963
10127TIP3    H251873   2.842   5.798   3.478 -0.2581 -0.5907  0.2569
10128TIP3   OH251874   6.810   1.786   5.445 -0.2299  0.7026 -0.3309
10128TIP3    H151875   6.734   1.804   5.390  0.1472  1.6558 -0.5517
10128TIP3    H251876   6.793   1.699   5.482 -2.6489  1.8797  1.6050
10129TIP3   OH251877   0.872   2.744   4.741  0.4009  0.0207  0.3829
10129TIP3    H151878   0.817   2.669   4.722  0.3685 -0.2084  1.3520
10129TIP3    H251879   0.812   2.818   4.743  0.5273  0.2147 -1.2825
10130TIP3   OH251880   4.906   1.027  10.969  0.4949 -0.3962  0.0113
10130TIP3    H151881   4.998   1.005  10.955  0.3750 -1.2477  0.4438
10130TIP3    H251882   4.872   1.048  10.882  1.0125 -0.4293 -0.2012
10131TIP3   OH251883   5.550   4.288  12.021  0.2140  0.2528  0.0399
10131TIP3    H151884   5.502   4.370  12.011  0.5458  0.4417 -0.0339
10131TIP3    H251885   5.625   4.311  12.076  0.2048 -0.0449  0.1801
10132TIP3   OH251886   6.307   3.708  15.158  0.0683 -0.5798 -0.4823
10132TIP3    H151887   6.393   3.691  15.121 -0.2403 -1.0793 -0.9896
10132TIP3    H251888   6.324   3.733  15.249  0.6444 -2.1269 -0.1359
10133TIP3   OH251889   3.188   4.608  15.195  0.2549  0.1467 -0.2340
10133TIP3    H151890   3.128   4.550  15.240  0.9008  0.2665  0.8038
10133TIP3    H251891   3.150   4.695  15.207  0.9161  0.2912  0.9214
10134TIP3   OH251892   3.063   0.545  16.754 -0.3695  0.2658  0.5752
10134TIP3    H151893   2.983   0.495  16.763  0.6428 -1.5239  0.1405
10134TIP3    H251894   3.071   0.562  16.661 -0.0897  0.1424  0.5739
10135TIP3   OH251895   4.927   3.792   5.275  0.7721 -0.2054  0.2707
10135TIP3    H151896   4.942   3.831   5.189  1.0022 -0.6489  0.1059
10135TIP3    H251897   4.834   3.771   5.276  0.7037  0.0928  0.2560
10136TIP3   OH251898   1.691   2.040   5.963  0.0841 -0.0326  0.0918
10136TIP3    H151899   1.782   2.053   5.988  0.0501 -0.2651  0.3476
10136TIP3    H251900   1.688   1.950   5.930  0.0744  0.1850 -0.5052
10137TIP3   OH251901   2.755   2.529   4.288 -0.5473  0.0202  0.3605
10137TIP3    H151902   2.755   2.596   4.219 -1.0161  0.2347  0.5636
10137TIP3    H251903   2.796   2.453   4.247 -0.4079  0.2908 -0.0142
10138TIP3   OH251904   3.336   0.709  16.420  0.1039  0.8301 -0.9754
10138TIP3    H151905   3.358   0.737  16.331  0.8833  0.8132 -0.7918
10138TIP3    H251906   3.378   0.772  16.477 -0.2246  0.7238 -0.6057
10139TIP3   OH251907   1.346   2.521   3.478  0.4418 -0.1222  0.2529
10139TIP3    H151908   1.353   2.554   3.568  0.1472  1.1623 -0.1781
10139TIP3    H251909   1.252   2.522   3.459  0.4176 -1.2869  0.2378
10140TIP3   OH251910   5.280   0.238  11.874 -0.1523  0.0303 -0.6633
10140TIP3    H151911   5.279   0.247  11.969  1.2553  0.1437 -0.6454
10140TIP3    H251912   5.367   0.266  11.848 -1.1167  1.8552 -2.1970
10141TIP3   OH251913   6.473   6.434  14.661 -0.2553  0.3478  0.7770
10141TIP3    H151914   6.509   6.503  14.718  0.1877  0.3926  0.4507
10141TIP3    H251915   6.522   6.443  14.579  0.5707 -1.0481  1.0830
10142TIP3   OH251916   3.477   0.321   3.976 -0.1388 -0.2379  0.2431
10142TIP3    H151917   3.527   0.402   3.986  1.6728 -1.4255  1.3472
10142TIP3    H251918   3.467   0.311   3.881  1.6579  0.1462 -0.0343
10143TIP3   OH251919   1.370   2.659   0.402 -0.1057 -0.0968  0.9069
10143TIP3    H151920   1.318   2.729   0.363  2.1404  2.4358  2.1152
10143TIP3    H251921   1.339   2.579   0.360 -1.7962  1.7759 -1.6725
10144TIP3   OH251922   3.972   2.252  14.716 -0.4703 -0.5371  0.2262
10144TIP3    H151923   3.893   2.215  14.754  0.1485 -1.4089  0.6987
10144TIP3    H251924   3.998   2.191  14.647 -1.3066  0.7767 -1.3313
10145TIP3   OH251925   4.852   2.610   4.899 -0.1759  0.1770 -0.4719
10145TIP3    H151926   4.819   2.659   4.975  0.5734 -1.7568  1.2117
10145TIP3    H251927   4.924   2.664   4.866 -2.7370  2.8284 -2.1670
10146TIP3   OH251928   5.581   2.296  12.475  0.0208 -0.3576 -0.4129
10146TIP3    H151929   5.654   2.320  12.531 -0.2547  0.1499 -0.2602
10146TIP3    H251930   5.613   2.310  12.386  0.0026  0.1828 -0.3359
10147TIP3   OH251931   3.925   1.525  10.870 -0.9336  1.0249 -0.3474
10147TIP3    H151932   3.911   1.555  10.781 -3.1684  1.6245  0.1406
10147TIP3    H251933   3.929   1.605  10.922  0.2513  0.6802  0.1162
10148TIP3   OH251934   1.012   2.596   3.628  1.0384  0.1541 -0.3504
10148TIP3    H151935   1.001   2.688   3.603 -1.2559  0.0400 -0.0019
10148TIP3    H251936   0.953   2.548   3.570 -0.3050 -0.6967  1.6121
10149TIP3   OH251937   0.088   6.721  15.107  0.0434 -0.3287  0.4353
10149TIP3    H151938   0.163   6.686  15.061 -1.0054  0.5317 -2.1161
10149TIP3    H251939   0.036   6.644  15.132  0.6371 -0.8199  0.1654
10150TIP3   OH251940   2.946   0.665   1.876 -0.2915 -0.3004 -0.0105
10150TIP3    H151941   2.861   0.626   1.855 -0.6049  0.3292  0.0864
10150TIP3    H251942   3.008   0.592   1.866 -0.9333 -0.9575  0.6594
10151TIP3   OH251943   6.538   3.224  13.413  0.2519  0.0582  0.3161
10151TIP3    H151944   6.480   3.152  13.435  0.7133 -0.3066  0.3448
10151TIP3    H251945   6.551   3.218  13.318 -1.3936  1.3756 -0.0419
10152TIP3   OH251946   0.509   1.917  17.134 -0.0669  0.1780 -0.3618
10152TIP3    H151947   0.417   1.891  17.140 -0.5336  1.8478  0.2089
10152TIP3    H251948   0.535   1.893  17.045 -0.2714 -2.6219  0.2587
10153TIP3   OH251949   3.115   1.434   4.342 -0.7612 -0.1611  0.1262
10153TIP3    H151950   3.085   1.491   4.413  1.1404 -0.5797  1.3330
10153TIP3    H251951   3.133   1.350   4.386 -2.0447 -1.2467 -1.3379
10154TIP3   OH251952   5.301   2.298   5.145  0.1010  0.5806  0.5211
10154TIP3    H151953   5.276   2.365   5.082  0.0140  0.6573  0.6374
10154TIP3    H251954   5.254   2.220   5.116 -0.5262  0.8009  0.9148
10155TIP3   OH251955   6.507   6.686  14.167 -0.4289  0.5515  0.2049
10155TIP3    H151956   6.444   6.704  14.097  0.7270 -0.9795 -1.3050
10155TIP3    H251957   6.469   6.613  14.215 -1.1629  1.5241  1.1660
10156TIP3   OH251958   4.546   6.357  16.191 -0.4975 -0.2077 -0.1852
10156TIP3    H151959   4.632   6.315  16.189 -0.2354  0.2674  0.6323
10156TIP3    H251960   4.520   6.361  16.099  0.4670 -0.1235 -0.4708
10157TIP3   OH251961   1.838   1.726  11.941 -0.4894  0.4303 -0.5253
10157TIP3    H151962   1.782   1.695  11.870  0.9730 -3.1428 -0.3326
10157TIP3    H251963   1.909   1.772  11.897 -1.3973  1.3607 -1.0619
10158TIP3   OH251964   4.883   4.577   5.639 -0.3554 -0.6448  0.1089
10158TIP3    H151965   4.909   4.555   5.550  0.8504  1.0582 -0.0053
10158TIP3    H251966   4.952   4.635   5.671 -1.7961  0.4381  1.4173
10159TIP3   OH251967   3.011   6.057   1.357 -0.2706  0.3661 -0.0357
10159TIP3    H151968   2.977   6.050   1.446 -0.6868  0.5019 -0.1809
10159TIP3    H251969   2.946   6.110   1.311 -0.3621 -0.2045 -0.5759
10160TIP3   OH251970   0.953   6.498   3.595 -0.1022 -0.2431  0.2661
10160TIP3    H151971   1.028   6.541   3.635 -0.3649  0.8273 -0.3670
10160TIP3    H251972   0.958   6.520   3.502 -0.8586 -0.6687  0.1092
10161TIP3   OH251973   1.542   0.435  13.012 -0.1368  0.3716  0.0877
10161TIP3    H151974   1.589   0.517  13.025  0.0433  0.6314 -1.9517
10161TIP3    H251975   1.597   0.384  12.953 -1.0239 -0.5475  0.0233
10162TIP3   OH251976   1.259   4.642  13.173  0.8759 -0.8194  0.3618
10162TIP3    H151977   1.335   4.683  13.215  1.5439 -2.5468  0.9096
10162TIP3    H251978   1.183   4.685  13.214  1.5363 -0.9787  1.8079
10163TIP3   OH251979   2.153   6.810  13.867  0.0626  1.0521  0.4676
10163TIP3    H151980   2.196   6.832  13.784  0.4865 -1.6921 -0.1084
10163TIP3    H251981   2.060   6.805  13.845  0.4192 -2.8869 -0.7596
10164TIP3   OH251982   4.665   1.571   1.096 -0.5865  0.4089 -0.0795
10164TIP3    H151983   4.655   1.569   1.192  0.5102 -1.4374  0.0373
10164TIP3    H251984   4.750   1.612   1.081 -0.4577  0.0923 -0.2252
10165TIP3   OH251985   4.380   1.833  14.545  0.2779 -0.2676  0.3136
10165TIP3    H151986   4.415   1.745  14.561 -0.1029 -0.3080  0.9487
10165TIP3    H251987   4.423   1.888  14.610  0.0032 -0.1105  0.3629
10166TIP3   OH251988   1.363   6.148   1.624 -0.3995 -0.3013 -0.5261
10166TIP3    H151989   1.418   6.226   1.633 -1.0129  0.1357 -0.4906
10166TIP3    H251990   1.398   6.103   1.547  1.0005 -0.8642  0.4000
10167TIP3   OH251991   5.129   1.857  14.813  0.1850 -0.0400  0.2734
10167TIP3    H151992   5.138   1.788  14.747 -1.9465 -0.2659  0.1622
10167TIP3    H251993   5.089   1.930  14.766  0.0694  0.3567  0.9798
10168TIP3   OH251994   1.079   5.879  11.081 -0.8703 -0.3828 -0.2772
10168TIP3    H151995   1.047   5.848  10.996  1.0554  0.3558 -1.3209
10168TIP3    H251996   1.160   5.925  11.061  0.1155 -0.9683  2.0823
10169TIP3   OH251997   0.502   4.721   1.014  0.5055 -0.2981  0.2959
10169TIP3    H151998   0.574   4.783   1.017 -0.2173  0.5698  0.1602
10169TIP3    H251999   0.507   4.682   0.927  1.2109 -0.7376  0.5295
10170TIP3   OH252000   1.070   2.139  16.603 -0.2051 -1.0195  0.2164
10170TIP3    H152001   1.160   2.159  16.628 -0.0489  0.0869 -1.1342
10170TIP3    H252002   1.016   2.178  16.672  0.3329 -1.6667  1.0197
10171TIP3   OH252003   1.251   4.021  12.943 -0.3716  0.0496  0.6553
10171TIP3    H152004   1.329   4.073  12.930  0.6231 -1.0076  2.0031
10171TIP3    H252005   1.224   3.994  12.856  1.1537 -0.0866  0.2007
10172TIP3   OH252006   3.701   1.900   5.677  0.2708 -0.4236 -0.2831
10172TIP3    H152007   3.701   1.804   5.669  2.3850 -0.8361  2.8415
10172TIP3    H252008   3.792   1.923   5.693 -0.3865  1.9480  0.5331
10173TIP3   OH252009   0.234   1.264  13.919  0.4000 -0.8606 -0.4777
10173TIP3    H152010   0.202   1.246  14.007  0.2181 -1.5119 -0.6714
10173TIP3    H252011   0.319   1.220  13.914  0.4367 -0.7779 -0.6139
10174TIP3   OH252012   1.897   5.946  14.513  0.3078 -0.1518 -0.1643
10174TIP3    H152013   1.813   5.935  14.557  0.8167  0.2706  0.9626
10174TIP3    H252014   1.879   5.926  14.421 -0.5698 -2.1546  0.3843
10175TIP3   OH252015   1.882   3.814   3.127  0.0197  0.0312  0.1963
10175TIP3    H152016   1.931   3.883   3.172 -0.1940 -1.1075  2.3281
10175TIP3    H252017   1.898   3.736   3.180 -0.2044 -1.4419 -1.8223
10176TIP3   OH252018   3.542   5.447  15.277  0.4945 -0.7700  0.3874
10176TIP3    H152019   3.468   5.506  15.262  0.5410 -0.8329 -0.0915
10176TIP3    H252020   3.509   5.383  15.340  0.3481 -0.4147  0.6760
10177TIP3   OH252021   0.299   5.811  14.850 -0.0265 -0.7460 -0.9466
10177TIP3    H152022   0.375   5.858  14.884  0.9767 -1.3674 -2.2422
10177TIP3    H252023   0.232   5.879  14.840  0.8513  0.1045 -1.2264
10178TIP3   OH252024   0.720   4.138   4.290  0.0354  0.6975  0.0960
10178TIP3    H152025   0.694   4.187   4.368 -0.0308 -1.0317  1.2218
10178TIP3    H252026   0.813   4.158   4.278  0.8178 -1.2169  2.3840
10179TIP3   OH252027   2.268   6.247   1.536  0.6871 -0.3521  0.2932
10179TIP3    H152028   2.218   6.170   1.509 -2.3093  0.9569  1.7021
10179TIP3    H252029   2.255   6.309   1.464 -0.5885  0.3296  1.0898
10180TIP3   OH252030   1.785   1.585   2.013 -0.8142  0.2791 -0.1675
10180TIP3    H152031   1.761   1.587   1.920 -2.4407  2.4225  0.2087
10180TIP3    H252032   1.880   1.589   2.014 -0.8307  2.0531 -1.7666
10181TIP3   OH252033   5.976   1.243   5.897 -0.5591  0.4445 -0.2179
10181TIP3    H152034   6.024   1.287   5.968 -1.2002  0.5720  0.1378
10181TIP3    H252035   5.913   1.307   5.866 -0.2568  0.4036 -0.9454
10182TIP3   OH252036   3.304   3.111  12.505  0.1259  0.3158  0.6076
10182TIP3    H152037   3.300   3.021  12.536  1.2262  0.2675  0.6386
10182TIP3    H252038   3.274   3.107  12.414  1.1569 -0.2627  0.2762
10183TIP3   OH252039   0.022   0.446  15.878 -0.4387 -0.4134 -1.0371
10183TIP3    H152040   0.078   0.523  15.883  0.1350 -0.9059  1.0205
10183TIP3    H252041  -0.067   0.481  15.887 -0.1668  0.0102  0.2124
10184TIP3   OH252042   1.702   0.393  16.564 -0.3779 -0.2149 -0.9471
10184TIP3    H152043   1.735   0.384  16.475  0.5259  1.4219 -0.8256
10184TIP3    H252044   1.716   0.485  16.585 -1.9947 -0.2137  0.3479
10185TIP3   OH252045   1.578   0.682   1.682  0.1419  0.2845 -0.2267
10185TIP3    H152046   1.548   0.772   1.674 -0.4751 -0.0513 -2.3833
10185TIP3    H252047   1.658   0.687   1.734 -0.6254  1.8766  0.8790
10186TIP3   OH252048   3.845   4.148  16.062 -0.3432 -0.1071  0.4504
10186TIP3    H152049   3.888   4.181  15.983 -3.0052  0.6207 -0.8438
10186TIP3    H252050   3.804   4.226  16.101 -1.2887 -0.8683  1.0298
10187TIP3   OH252051   6.653   1.117  14.995  0.6247  0.3386  0.3473
10187TIP3    H152052   6.604   1.039  14.970  2.8257 -1.6054  1.6274
10187TIP3    H252053   6.681   1.155  14.912 -1.5286  0.5509 -0.3320
10188TIP3   OH252054   5.572   1.004   2.212 -0.0361 -0.2453 -0.4737
10188TIP3    H152055   5.493   1.044   2.247  0.0335 -0.4400 -0.0899
10188TIP3    H252056   5.624   1.078   2.179 -1.1375 -0.2501 -2.3310
10189TIP3   OH252057   3.596   6.449   0.936  0.1839  0.2125 -0.0403
10189TIP3    H152058   3.631   6.537   0.923  0.0342  0.2752 -0.0190
10189TIP3    H252059   3.673   6.393   0.938  0.3011  0.3801  0.2610
10190TIP3   OH252060   2.020   3.150   4.246  0.2389  0.4819  0.5437
10190TIP3    H152061   2.048   3.232   4.205  2.0039 -0.4128 -0.1666
10190TIP3    H252062   1.999   3.093   4.172 -2.2138  0.6368  1.0452
10191TIP3   OH252063   0.072   5.349   0.163 -0.5079 -0.3526  0.0912
10191TIP3    H152064   0.131   5.306   0.225 -1.5843 -1.0074  0.6969
10191TIP3    H252065   0.029   5.277   0.117 -0.6837  0.1134 -0.4895
10192TIP3   OH252066   1.908   3.718  16.654 -0.3679 -0.5848  0.3536
10192TIP3    H152067   2.003   3.706  16.659 -0.4633 -1.3116  0.4589
10192TIP3    H252068   1.888   3.779  16.726  0.0603 -0.1307  0.0987
10193TIP3   OH252069   5.956   3.202   1.489  0.2624 -0.2184  0.3884
10193TIP3    H152070   5.963   3.137   1.558 -0.6713 -1.3609 -0.5501
10193TIP3    H252071   5.904   3.273   1.528 -0.4210 -0.9338  0.7987
10194TIP3   OH252072   6.713   0.174   4.174  0.6719 -0.7165  0.0188
10194TIP3    H152073   6.695   0.080   4.178 -0.2607 -0.6160 -1.1397
10194TIP3    H252074   6.627   0.214   4.158  0.5475  0.6018  3.1935
10195TIP3   OH252075   3.595   6.707   5.460 -0.2837 -0.4905  0.3896
10195TIP3    H152076   3.518   6.665   5.422 -1.5004 -1.0590  3.2744
10195TIP3    H252077   3.647   6.635   5.494  0.8419  0.0003 -0.2368
10196TIP3   OH252078   1.136   2.597   5.952  0.0471  0.1811  0.0254
10196TIP3    H152079   1.192   2.542   6.007 -0.5243  0.8433  1.3176
10196TIP3    H252080   1.050   2.592   5.993 -0.3216  0.9466 -0.6284
10197TIP3   OH252081   1.012   1.887   0.649  0.0881 -0.3704  0.6897
10197TIP3    H152082   1.072   1.853   0.716  0.5494  0.5437  0.7580
10197TIP3    H252083   0.935   1.916   0.698  0.0992 -0.4222  0.7382
10198TIP3   OH252084   3.262   4.582  14.040 -0.1612  0.0221  0.1842
10198TIP3    H152085   3.213   4.517  13.990  2.0643 -0.0428 -2.1118
10198TIP3    H252086   3.290   4.537  14.119 -0.5347 -1.1013 -0.3109
10199TIP3   OH252087   3.134   5.317  15.061 -0.2690 -0.1959 -0.3178
10199TIP3    H152088   3.181   5.265  14.995  0.7079 -0.5229  0.6103
10199TIP3    H252089   3.054   5.344  15.016  0.2491 -0.6114 -1.5633
10200TIP3   OH252090   5.957   2.002  15.468  0.5681 -0.2242  0.5575
10200TIP3    H152091   5.886   2.005  15.404 -0.1033 -0.5003  1.2684
10200TIP3    H252092   5.913   2.003  15.553  1.4354  0.0352  1.0239
10201TIP3   OH252093   3.540   2.850  12.005 -0.2054  0.0362 -0.0314
10201TIP3    H152094   3.614   2.903  12.033 -0.8893  0.7769  0.4001
10201TIP3    H252095   3.574   2.797  11.932  0.9514 -0.2090  0.6679
10202TIP3   OH252096   0.474   4.006  16.142  0.1764  0.1607  0.1282
10202TIP3    H152097   0.425   4.018  16.061  0.5286  0.2722 -0.0736
10202TIP3    H252098   0.474   4.092  16.183 -0.3774  0.0002  0.4643
10203TIP3   OH252099   6.325   2.057   1.705  0.2330 -0.3707  0.7210
10203TIP3    H152100   6.302   2.143   1.738  0.9361  0.0066  0.2523
10203TIP3    H252101   6.421   2.059   1.696  0.6721 -2.1940  3.4864
10204TIP3   OH252102   2.510   3.719  11.910  0.4612  0.6321  0.1985
10204TIP3    H152103   2.591   3.703  11.861  1.1756 -0.0979  1.5504
10204TIP3    H252104   2.442   3.676  11.858  1.2588 -0.4897  0.0389
10205TIP3   OH252105   2.612   5.547  16.962 -0.1675 -0.0987  0.3104
10205TIP3    H152106   2.614   5.462  16.917 -1.0770 -0.3176  0.6697
10205TIP3    H252107   2.682   5.597  16.920 -1.0541 -0.2551 -1.4658
10206TIP3   OH252108   5.830   2.361  13.146  0.3392  0.1183 -0.2739
10206TIP3    H152109   5.812   2.442  13.098 -0.5592  1.4558  2.1155
10206TIP3    H252110   5.852   2.391  13.235 -1.0476 -2.2770  0.9617
10207TIP3   OH252111   5.731   3.055   6.705  0.1329  0.0660 -0.1802
10207TIP3    H152112   5.652   3.039   6.653  1.6503 -0.9823 -2.3351
10207TIP3    H252113   5.700   3.061   6.796 -2.4911  0.6326 -1.0378
10208TIP3   OH252114   5.667   3.310   4.184  0.0162  0.0280  0.2885
10208TIP3    H152115   5.608   3.317   4.258 -0.4034  0.1341 -0.0504
10208TIP3    H252116   5.690   3.217   4.180 -1.3611 -0.3152 -0.5058
10209TIP3   OH252117   5.827   5.050   2.020 -0.1382  0.1126 -0.2985
10209TIP3    H152118   5.902   5.000   2.052  0.7756  0.3437 -1.9485
10209TIP3    H252119   5.754   4.988   2.022  0.7156 -0.9591 -1.2294
10210TIP3   OH252120   4.267   1.961  15.123 -0.0415  0.5613  0.4987
10210TIP3    H152121   4.315   2.032  15.165  2.1740 -1.0615  0.9202
10210TIP3    H252122   4.268   1.890  15.188 -1.4365 -0.1467 -0.2179
10211TIP3   OH252123   4.160   4.434   2.786 -0.3770  0.2773 -0.4233
10211TIP3    H152124   4.164   4.339   2.772 -0.3823  0.4580 -1.8497
10211TIP3    H252125   4.067   4.455   2.778 -0.2611  0.5301 -1.2233
10212TIP3   OH252126   1.416   4.956   4.051 -0.3460 -0.1309 -0.8737
10212TIP3    H152127   1.447   4.958   3.961  0.3946  0.6441 -0.6161
10212TIP3    H252128   1.453   4.876   4.088  2.5157  1.3626 -0.2141
10213TIP3   OH252129   3.158   0.279  12.573 -0.5730  0.1795 -0.2593
10213TIP3    H152130   3.177   0.234  12.490  0.5529 -0.8446  0.5066
10213TIP3    H252131   3.244   0.304  12.606 -0.8289 -1.0311  1.4447
10214TIP3   OH252132   2.499   0.750   0.784 -1.0025 -0.0923  0.7860
10214TIP3    H152133   2.409   0.782   0.774 -0.0579  2.4293 -0.4512
10214TIP3    H252134   2.543   0.819   0.833  0.4227 -1.0120  0.8402
10215TIP3   OH252135   4.652   0.128   1.854  0.7776 -0.0845  0.2558
10215TIP3    H152136   4.633   0.074   1.777  2.6972 -0.0009 -0.3532
10215TIP3    H252137   4.673   0.065   1.923  2.5624 -0.2019 -0.3281
10216TIP3   OH252138   2.618   0.985   0.978 -0.3957  0.3056  0.0520
10216TIP3    H152139   2.699   0.954   0.940  0.5517 -0.4296  2.4729
10216TIP3    H252140   2.613   1.077   0.953 -0.1378 -0.2491 -2.1886
10217TIP3   OH252141   3.870   2.272   5.530 -0.3414 -0.2583 -0.5226
10217TIP3    H152142   3.932   2.324   5.579 -0.4705 -2.0746  1.7374
10217TIP3    H252143   3.843   2.328   5.457  2.4982  1.2461 -0.5376
10218TIP3   OH252144   1.204   1.309   3.357  0.0069 -0.1317 -0.3058
10218TIP3    H152145   1.118   1.269   3.366 -0.3265  0.5080 -0.6062
10218TIP3    H252146   1.201   1.388   3.411  0.0192  0.4931 -1.1917
10219TIP3   OH252147   6.721   1.887  13.563 -0.2757 -0.1752  0.3501
10219TIP3    H152148   6.642   1.862  13.611 -0.0853 -0.4494  0.5270
10219TIP3    H252149   6.729   1.981  13.578 -0.5770 -0.1417  0.3176
10220TIP3   OH252150   5.821   6.226   2.244 -0.5190  0.0917 -0.0861
10220TIP3    H152151   5.737   6.244   2.202 -2.0045 -1.5704  1.9720
10220TIP3    H252152   5.807   6.249   2.336  0.4350 -2.5064  0.7878
10221TIP3   OH252153   6.664   4.828   0.627 -0.0809 -0.5221 -0.5624
10221TIP3    H152154   6.700   4.766   0.691 -0.8800 -2.2518 -1.7322
10221TIP3    H252155   6.571   4.809   0.625 -0.4263  1.0713 -0.6151
10222TIP3   OH252156   4.338   2.896  15.686 -0.2731 -0.0667 -0.1955
10222TIP3    H152157   4.256   2.926  15.725 -1.0228 -1.7334 -0.3966
10222TIP3    H252158   4.312   2.830  15.622  1.2882 -1.7391  0.7960
10223TIP3   OH252159   5.892   4.795  15.410  0.3108 -0.2167  0.2512
10223TIP3    H152160   5.815   4.783  15.465 -0.4988 -0.9950 -1.0044
10223TIP3    H252161   5.962   4.819  15.471 -1.3335  2.5590  1.1929
10224TIP3   OH252162   5.821   6.770   2.816  0.3442 -0.0355 -0.4415
10224TIP3    H152163   5.774   6.763   2.732  1.1358 -0.8249 -0.8363
10224TIP3    H252164   5.822   6.680   2.850  0.2390  0.2438  0.3036
10225TIP3   OH252165   6.085   4.631   2.089  0.2146 -0.5857 -0.1470
10225TIP3    H152166   6.082   4.607   1.997  0.6427 -0.6023 -0.1625
10225TIP3    H252167   6.069   4.549   2.136 -2.4380 -0.1522 -0.1950
10226TIP3   OH252168   2.280   5.646  12.322  0.0281  0.7041  0.4220
10226TIP3    H152169   2.224   5.705  12.372  0.3282  1.9598 -0.6522
10226TIP3    H252170   2.226   5.622  12.246 -0.4088 -1.1385  1.2561
10227TIP3   OH252171   5.142   6.481   4.156  0.2245 -0.2155 -0.2817
10227TIP3    H152172   5.107   6.392   4.170  0.8391 -0.1595  1.8281
10227TIP3    H252173   5.083   6.538   4.206 -1.1745  0.8620 -2.9284
10228TIP3   OH252174   2.988   5.735  14.128  0.0110 -0.0115  0.0547
10228TIP3    H152175   3.003   5.695  14.214  1.7751  1.5601  0.5409
10228TIP3    H252176   2.975   5.828  14.145 -1.8900  0.0204 -1.2310
10229TIP3   OH252177   3.512   2.489   6.342  0.8206  0.2792  0.2256
10229TIP3    H152178   3.428   2.464   6.381  0.5837 -0.4734 -0.7262
10229TIP3    H252179   3.531   2.575   6.378 -0.7401  0.7895 -0.1042
10230TIP3   OH252180   0.974   4.798   3.904 -0.1780 -0.4958  0.3121
10230TIP3    H152181   1.025   4.731   3.858  1.6607  1.6133 -0.9577
10230TIP3    H252182   1.031   4.824   3.977 -1.2057 -0.7917  1.2475
10231TIP3   OH252183   6.285   0.499  11.751 -0.0568 -0.0578  0.0720
10231TIP3    H152184   6.342   0.575  11.763 -1.3896  0.8676  0.9046
10231TIP3    H252185   6.198   0.530  11.778 -0.5029 -2.1164  1.2274
10232TIP3   OH252186   6.298   4.835  16.785 -0.3893 -0.1534  0.6450
10232TIP3    H152187   6.383   4.840  16.830  0.2467 -0.6556 -0.4650
10232TIP3    H252188   6.268   4.925  16.782  0.4864  0.1410  0.3495
10233TIP3   OH252189   1.822   2.189   2.069  0.0152 -0.5831 -0.2346
10233TIP3    H152190   1.774   2.256   2.020  0.9502 -0.1764 -0.6088
10233TIP3    H252191   1.758   2.119   2.082 -1.3006  0.7827  1.0587
10234TIP3   OH252192   5.479   3.774   3.045 -0.5759  0.1923  0.3463
10234TIP3    H152193   5.506   3.704   3.105  1.8905 -1.6531 -2.6126
10234TIP3    H252194   5.552   3.836   3.046  0.3566 -0.7702 -1.9015
10235TIP3   OH252195   4.878   5.080   3.096  0.3280  0.0620 -0.3616
10235TIP3    H152196   4.966   5.094   3.130  0.1388  0.1788  0.0902
10235TIP3    H252197   4.882   4.993   3.055  0.3727 -0.4147  0.6162
10236TIP3   OH252198   2.263   5.247  11.490  0.0739 -0.8001 -0.6744
10236TIP3    H152199   2.188   5.209  11.444  0.9995 -1.1149 -1.9821
10236TIP3    H252200   2.288   5.180  11.553 -1.0516 -0.4757  0.1445
10237TIP3   OH252201   2.483   3.872   2.554 -0.2135  0.4266  0.5313
10237TIP3    H152202   2.565   3.894   2.598  1.5889 -0.6738 -2.0348
10237TIP3    H252203   2.462   3.950   2.502  0.0571  0.1727  0.0324
10238TIP3   OH252204   5.386   2.198   1.779  0.6555 -0.1546 -0.4651
10238TIP3    H152205   5.373   2.106   1.806 -2.3618 -0.0594 -1.1887
10238TIP3    H252206   5.335   2.206   1.698  1.2651  2.0444 -0.6719
10239TIP3   OH252207   0.524   6.523   2.562 -0.1273  0.1893 -0.0585
10239TIP3    H152208   0.599   6.581   2.576 -1.0638  1.5419 -0.4792
10239TIP3    H252209   0.558   6.436   2.582  1.1433  0.9287  1.2344
10240TIP3   OH252210   4.294   6.491   5.024 -0.0817 -0.2471 -0.1129
10240TIP3    H152211   4.288   6.506   5.118  0.0139 -0.5227 -0.0613
10240TIP3    H252212   4.253   6.568   4.984 -0.9431 -0.5479  0.1717
10241TIP3   OH252213   2.527   5.480   6.032  0.1728  0.4864 -0.1701
10241TIP3    H152214   2.590   5.413   6.057  1.1361  1.9749  1.7134
10241TIP3    H252215   2.453   5.467   6.092  0.1315  0.7635 -0.1583
10242TIP3   OH252216   1.317   3.723  12.063 -0.0760  0.8292  0.4382
10242TIP3    H152217   1.356   3.639  12.039  0.7693  1.5003 -0.7158
10242TIP3    H252218   1.392   3.776  12.092 -0.8261  0.6714  2.8476
10243TIP3   OH252219   0.361   2.155  10.567  0.2291  0.1625  0.3695
10243TIP3    H152220   0.392   2.089  10.505  1.0467  0.3346  0.5762
10243TIP3    H252221   0.438   2.210  10.583 -0.6846  1.8464 -0.6385
10244TIP3   OH252222   6.787   0.373  16.350 -0.2046  0.1500  0.3270
10244TIP3    H152223   6.731   0.300  16.376  0.7819 -0.3094  1.2446
10244TIP3    H252224   6.741   0.451  16.382 -0.4025 -0.2122  0.9511
10245TIP3   OH252225   1.045   5.339   5.824  0.4752  0.2050 -0.3701
10245TIP3    H152226   1.109   5.349   5.894  0.8937 -2.8962 -0.2060
10245TIP3    H252227   0.981   5.277   5.858 -1.0054  0.9353 -1.6707
10246TIP3   OH252228   1.162   2.881   4.003 -0.2741 -0.0790  0.4136
10246TIP3    H152229   1.107   2.881   3.925  1.6211 -2.0791 -1.0264
10246TIP3    H252230   1.127   2.810   4.057  0.0319 -0.4448  0.1357
10247TIP3   OH252231   1.861   3.180   2.687 -0.2913 -0.1600 -0.3271
10247TIP3    H152232   1.799   3.224   2.629 -1.7691  0.6872  1.7529
10247TIP3    H252233   1.947   3.208   2.656 -1.0643  0.9597 -1.5566
10248TIP3   OH252234   3.867   6.163   6.444 -0.5866 -0.4173  0.1766
10248TIP3    H152235   3.794   6.103   6.452  0.3541 -1.6639 -0.2643
10248TIP3    H252236   3.856   6.202   6.356 -0.8076 -0.4653  0.1823
10249TIP3   OH252237   0.047   2.753  16.800  0.3813 -0.0379 -0.0698
10249TIP3    H152238   0.087   2.837  16.778  0.5842  0.3732  1.6915
10249TIP3    H252239  -0.045   2.763  16.777  0.5769  0.3352 -0.7042
10250TIP3   OH252240   0.154   3.741  11.580  0.2830  0.3000 -0.1715
10250TIP3    H152241   0.070   3.729  11.537  0.9799 -1.5998 -1.1547
10250TIP3    H252242   0.200   3.805  11.526  0.0298  0.1703 -0.5453
10251TIP3   OH252243   3.629   5.529   1.559  0.0029  0.3603 -0.3215
10251TIP3    H152244   3.711   5.488   1.584  0.9565  1.1725 -1.9408
10251TIP3    H252245   3.653   5.592   1.491 -1.9711  0.5580 -0.9103
10252TIP3   OH252246   6.475   0.466  15.445  0.1910  0.0163  0.4955
10252TIP3    H152247   6.519   0.549  15.423  0.7782  0.1180  1.9533
10252TIP3    H252248   6.492   0.454  15.538  1.0873 -2.3408  0.0857
10253TIP3   OH252249   0.730   3.663  15.882  0.0235 -0.1578 -0.1788
10253TIP3    H152250   0.679   3.720  15.825 -0.6661 -0.9458 -0.3740
10253TIP3    H252251   0.754   3.717  15.957  1.1807  0.9888 -1.3197
10254TIP3   OH252252   3.689   2.727  12.934  0.5136  0.1242  0.1465
10254TIP3    H152253   3.779   2.754  12.915 -0.1219  1.6614 -0.9099
10254TIP3    H252254   3.659   2.684  12.854 -0.1542  0.9610 -0.0690
10255TIP3   OH252255   1.368   4.482  12.612  0.5861 -0.2424 -0.4065
10255TIP3    H152256   1.327   4.452  12.531 -0.0043 -2.5257  0.6521
10255TIP3    H252257   1.328   4.567  12.629  1.5858  0.8755 -3.0495
10256TIP3   OH252258   4.646   1.644   2.800  0.4999  0.6630 -0.6260
10256TIP3    H152259   4.657   1.682   2.888  0.7771  0.5129 -0.5941
10256TIP3    H252260   4.721   1.676   2.751  2.6432 -2.4486  0.3183
10257TIP3   OH252261   4.817   6.269   1.253 -0.7548  0.0748  1.0005
10257TIP3    H152262   4.781   6.283   1.165 -0.6058  0.7921  1.0474
10257TIP3    H252263   4.839   6.176   1.255 -1.1349 -0.0369  0.4199
10258TIP3   OH252264   4.928   2.540   5.639  0.0567  0.6048 -0.0312
10258TIP3    H152265   4.971   2.485   5.704 -1.8806  1.4294  2.0865
10258TIP3    H252266   4.942   2.494   5.556  2.0510 -0.8572  1.0305
10259TIP3   OH252267   2.810   6.460   5.921 -0.2697  0.0519 -0.5125
10259TIP3    H152268   2.847   6.394   5.979  1.8806  1.0983 -0.6193
10259TIP3    H252269   2.756   6.409   5.859 -0.8666 -1.2791  1.0242
10260TIP3   OH252270   5.124   0.898  14.106  0.3558 -0.2866  0.4451
10260TIP3    H152271   5.038   0.920  14.141 -0.3908  1.1963 -2.0712
10260TIP3    H252272   5.183   0.963  14.145 -0.2811  0.7249 -0.2241
10261TIP3   OH252273   2.626   5.714   0.984 -0.0412  0.6167  0.3892
10261TIP3    H152274   2.634   5.775   1.057 -0.1760  2.1816 -0.8511
10261TIP3    H252275   2.676   5.755   0.913 -0.0356 -0.7861 -0.4569
10262TIP3   OH252276   4.119   2.086   1.504  0.7005  0.5290  0.0906
10262TIP3    H152277   4.068   2.123   1.577  1.1271  2.7698 -0.6529
10262TIP3    H252278   4.200   2.055   1.544  0.3857  0.5395  0.7442
10263TIP3   OH252279   1.779   1.396  15.902 -0.0676 -0.0218 -0.7471
10263TIP3    H152280   1.838   1.365  15.834  0.3864  0.9961 -0.8305
10263TIP3    H252281   1.691   1.383  15.865  0.0179 -2.3003 -0.2961
10264TIP3   OH252282   6.147   6.258   2.766 -0.3915 -0.8245 -0.9658
10264TIP3    H152283   6.236   6.223   2.763  0.7253  1.6317  0.4265
10264TIP3    H252284   6.145   6.323   2.695 -0.8452 -0.4329 -0.6006
10265TIP3   OH252285   0.702   3.193  14.738  0.0131  0.0524 -0.4057
10265TIP3    H152286   0.694   3.104  14.772 -0.8942  1.0773  2.3080
10265TIP3    H252287   0.796   3.207  14.729  0.2010 -0.8632  0.0267
10266TIP3   OH252288   4.299   3.126   4.856 -0.3629 -0.0024 -0.2815
10266TIP3    H152289   4.371   3.066   4.833  0.6240  0.4079  1.4928
10266TIP3    H252290   4.328   3.211   4.823 -0.3404  0.0380 -0.1584
10267TIP3   OH252291   6.542   5.953   2.647  0.3141 -0.2245  0.1951
10267TIP3    H152292   6.547   5.913   2.560 -0.6274  0.0336  0.0108
10267TIP3    H252293   6.632   5.979   2.667  0.4816  0.0457 -0.8631
10268TIP3   OH252294   4.092   1.952   4.259  0.0987 -0.1835  0.5994
10268TIP3    H152295   4.061   2.032   4.217 -0.9623 -0.6255  0.5268
10268TIP3    H252296   4.025   1.931   4.324  0.4769 -0.8929  0.7720
10269TIP3   OH252297   4.555   3.716  14.273  0.0859  0.0174  0.4860
10269TIP3    H152298   4.469   3.726  14.232  1.0656 -0.4440 -1.8269
10269TIP3    H252299   4.548   3.765  14.355 -2.5420 -0.4965  0.6553
10270TIP3   OH252300   1.187   2.999   0.016 -0.2560  0.1189  0.4929
10270TIP3    H152301   1.099   3.032  -0.000 -0.7816 -0.1812  2.4939
10270TIP3    H252302   1.245   3.068  -0.017 -1.2456  0.6920 -0.0903
10271TIP3   OH252303   1.725   5.510   3.022 -0.8124  0.0624  0.1561
10271TIP3    H152304   1.775   5.438   3.058  0.9420  1.6999  1.1707
10271TIP3    H252305   1.711   5.486   2.930  1.9346 -0.4684 -0.1997
10272TIP3   OH252306   3.519   6.314  16.006 -0.4910  0.2660  0.2125
10272TIP3    H152307   3.514   6.367  16.085 -0.5196  0.8000 -0.1415
10272TIP3    H252308   3.600   6.264  16.015 -0.9619 -0.3743  0.9998
10273TIP3   OH252309   3.502   3.701   1.570  0.0550 -0.1472  0.6242
10273TIP3    H152310   3.490   3.619   1.522 -0.5121 -0.5224  1.3911
10273TIP3    H252311   3.592   3.697   1.602  0.0624 -0.4194  0.5729
10274TIP3   OH252312   5.260   0.872  15.093  0.3449 -0.9594  0.4799
10274TIP3    H152313   5.275   0.948  15.037  1.1622 -0.1522  1.7628
10274TIP3    H252314   5.306   0.800  15.049 -0.0496 -0.6365 -0.4965
10275TIP3   OH252315   0.599   1.578  11.132 -0.3978 -0.0459 -0.3745
10275TIP3    H152316   0.512   1.615  11.120 -0.3310 -0.1800 -1.3303
10275TIP3    H252317   0.629   1.615  11.215 -0.7322  1.2494 -0.8071
10276TIP3   OH252318   4.963   2.892  11.209  0.7550 -0.4068  0.1970
10276TIP3    H152319   4.944   2.799  11.220  2.1443 -0.6148  1.0021
10276TIP3    H252320   5.026   2.895  11.137 -0.1570  0.0411 -0.6163
10277TIP3   OH252321   4.476   2.068  15.500  0.1292 -0.4758  0.1209
10277TIP3    H152322   4.431   2.105  15.576 -0.9860 -1.5126 -0.0033
10277TIP3    H252323   4.416   2.001  15.466  0.4040  0.2155 -1.9100
10278TIP3   OH252324   0.162   3.090  11.666  0.3616 -0.2803  0.4856
10278TIP3    H152325   0.104   3.081  11.741  1.1416 -0.8545  1.0412
10278TIP3    H252326   0.202   3.176  11.675  1.0944 -0.6808  1.2216
10279TIP3   OH252327   0.488   3.365   0.791 -0.3981 -0.1418 -0.1339
10279TIP3    H152328   0.517   3.274   0.784  0.5659 -0.0754  2.0554
10279TIP3    H252329   0.569   3.414   0.807 -1.2536  0.5257  2.6587
10280TIP3   OH252330   0.988   1.900  13.257  0.1419  0.6232  0.1806
10280TIP3    H152331   1.012   1.922  13.166 -1.8377  0.1184 -0.5151
10280TIP3    H252332   0.980   1.985  13.300 -0.1091  0.9328 -0.4522
10281TIP3   OH252333   2.242   5.164   3.721 -0.3156 -0.4135  0.0041
10281TIP3    H152334   2.252   5.069   3.714  1.2862 -0.1855 -1.4012
10281TIP3    H252335   2.307   5.199   3.661  0.3142  1.6353  1.7789
10282TIP3   OH252336   5.185   6.036  12.812  0.0648  0.1268  0.4642
10282TIP3    H152337   5.166   5.946  12.787  0.1383  0.2238  0.0384
10282TIP3    H252338   5.162   6.042  12.904  1.8884 -0.8476  1.0228
10283TIP3   OH252339   4.786   1.193  10.272  0.2599  0.1799 -0.3640
10283TIP3    H152340   4.773   1.194  10.367  1.8782 -1.0747 -0.0925
10283TIP3    H252341   4.699   1.208  10.236 -0.5958 -0.5308  1.3079
10284TIP3   OH252342   5.244   0.644   2.986  0.5561  0.4488 -0.4754
10284TIP3    H152343   5.217   0.736   2.992 -1.3295 -0.0202 -1.1834
10284TIP3    H252344   5.168   0.599   2.950  1.4578 -1.4033 -0.1704
10285TIP3   OH252345   6.556   0.758  13.437 -0.2386 -0.8609  0.8327
10285TIP3    H152346   6.537   0.669  13.467  1.1541 -0.7723  2.1683
10285TIP3    H252347   6.534   0.758  13.344  0.0544 -2.7122  0.7194
10286TIP3   OH252348   3.334   0.674   1.490  0.4220 -0.3160  0.3843
10286TIP3    H152349   3.399   0.697   1.423 -0.9181 -1.1425 -1.2909
10286TIP3    H252350   3.283   0.754   1.502  0.8524 -0.0766  0.6707
10287TIP3   OH252351   6.232   1.773  13.923 -0.3554  0.3981 -0.1456
10287TIP3    H152352   6.312   1.824  13.916 -0.3284  0.1955 -1.4214
10287TIP3    H252353   6.211   1.747  13.834 -0.3704 -1.8213  0.4309
10288TIP3   OH252354   5.567   3.939  16.466 -0.2014 -0.2461  0.8265
10288TIP3    H152355   5.630   3.928  16.538  0.3144 -1.4516  0.2292
10288TIP3    H252356   5.481   3.938  16.508  0.1518  0.7204  1.5860
10289TIP3   OH252357   1.542   6.009   5.837  0.3638 -0.3701 -0.4273
10289TIP3    H152358   1.496   5.938   5.883  0.2046  0.0053  0.0024
10289TIP3    H252359   1.600   5.964   5.775 -0.7001 -0.8486 -1.0965
10290TIP3   OH252360   3.276   5.167  11.658 -0.5633 -0.7118  0.3666
10290TIP3    H152361   3.325   5.140  11.735  0.4972 -1.8029 -0.6568
10290TIP3    H252362   3.198   5.211  11.693  1.4183  1.7460  2.0657
10291TIP3   OH252363   1.862   5.131   0.229 -0.5646  0.0825 -0.0433
10291TIP3    H152364   1.927   5.185   0.274 -1.4231  0.2144  1.0851
10291TIP3    H252365   1.848   5.057   0.288 -0.8037 -0.3874 -0.6822
10292TIP3   OH252366   4.527   0.165  14.066  0.1288 -0.1441 -0.2761
10292TIP3    H152367   4.552   0.250  14.030  1.9366 -0.4604  0.1278
10292TIP3    H252368   4.608   0.131  14.105 -0.9069 -1.4100  0.8606
10293TIP3   OH252369   3.110   2.831   5.384  0.1751  0.5620  0.4074
10293TIP3    H152370   3.131   2.872   5.299 -0.1770  3.2480  1.5035
10293TIP3    H252371   3.187   2.850   5.438  0.8731 -2.0855  0.4643
10294TIP3   OH252372   3.507   3.728   1.278 -0.4305 -0.6948  0.3818
10294TIP3    H152373   3.512   3.823   1.288  0.1918 -0.8105  1.2090
10294TIP3    H252374   3.521   3.693   1.366 -0.4014 -1.5612  0.0439
10295TIP3   OH252375   3.654   4.714   3.770 -0.1216  0.0559 -0.4938
10295TIP3    H152376   3.683   4.805   3.769  0.7673 -0.2156 -0.0486
10295TIP3    H252377   3.633   4.695   3.678  0.0851  0.5791 -0.6528
10296TIP3   OH252378   4.872   4.791   3.898  0.1883 -0.7236 -0.5092
10296TIP3    H152379   4.913   4.791   3.985 -0.0624 -1.5874 -0.3762
10296TIP3    H252380   4.928   4.848   3.845 -1.1310  2.0640  0.8673
10297TIP3   OH252381   5.436   6.295   5.465 -0.0027  0.3591 -0.3378
10297TIP3    H152382   5.351   6.265   5.497 -0.9312 -0.5546 -3.3391
10297TIP3    H252383   5.499   6.234   5.504 -0.9797 -0.4002  0.1051
10298TIP3   OH252384   0.048   5.230   0.744  0.6904 -0.7812 -0.0455
10298TIP3    H152385   0.039   5.318   0.779 -1.2617 -1.1349  0.4762
10298TIP3    H252386   0.068   5.176   0.821  0.7839 -0.9361 -0.1786
10299TIP3   OH252387   6.767   6.410  15.842  0.1218 -0.0538 -0.2842
10299TIP3    H152388   6.815   6.454  15.772 -0.4958 -1.4352 -1.6268
10299TIP3    H252389   6.816   6.329  15.857 -0.9980 -0.8317 -0.7199
10300TIP3   OH252390   2.777   2.845  17.115 -0.2520  0.3002 -0.7160
10300TIP3    H152391   2.753   2.930  17.079 -0.3685  1.0130  0.9408
10300TIP3    H252392   2.795   2.863  17.208 -0.3748 -1.4945 -0.3143
10301TIP3   OH252393   1.622   4.777  10.611  0.2415 -0.2666  0.2907
10301TIP3    H152394   1.702   4.782  10.560  1.7140  0.0387  2.5122
10301TIP3    H252395   1.588   4.867  10.609 -1.6929 -0.8835 -2.9314
10302TIP3   OH252396   0.606   5.188  12.477 -0.8803  0.1975 -0.3130
10302TIP3    H152397   0.511   5.182  12.485 -0.8564  0.9933  0.6973
10302TIP3    H252398   0.626   5.143  12.395 -2.2578  1.1152 -1.1898
10303TIP3   OH252399   2.697   6.053  14.037 -0.3963 -0.5193 -0.2325
10303TIP3    H152400   2.657   6.092  14.115 -0.6776  0.4502 -0.8412
10303TIP3    H252401   2.629   6.059  13.969  0.8893  1.6712 -1.4524
10304TIP3   OH252402   1.415   2.262   4.846 -0.2745  0.2495  0.4153
10304TIP3    H152403   1.411   2.336   4.908 -2.1281 -0.4466  1.1833
10304TIP3    H252404   1.368   2.192   4.890  0.6651 -1.1333 -0.7046
10305TIP3   OH252405   1.825   3.599   1.160  0.5064 -0.3978  0.3096
10305TIP3    H152406   1.769   3.582   1.085  0.7996 -1.0590  0.2358
10305TIP3    H252407   1.782   3.671   1.206  0.9414  0.8388 -1.1314
10306TIP3   OH252408   5.288   3.742  13.338 -0.2524  0.1464  0.0107
10306TIP3    H152409   5.247   3.733  13.424  0.7942  0.1814  0.5289
10306TIP3    H252410   5.382   3.745  13.356 -0.0696  1.9454 -0.9669
10307TIP3   OH252411   5.866   4.261   4.339 -0.2055 -0.1796  0.1770
10307TIP3    H152412   5.822   4.179   4.358  1.1484 -0.6147  1.5553
10307TIP3    H252413   5.800   4.313   4.292 -1.1495 -1.9355 -0.5386
10308TIP3   OH252414   5.248   3.949   1.186  0.6933 -0.4116 -0.4131
10308TIP3    H152415   5.312   3.946   1.115 -0.3663 -0.3008 -1.3967
10308TIP3    H252416   5.291   4.000   1.254  1.4303  0.1801 -1.2925
10309TIP3   OH252417   5.816   3.383  12.087  0.2350  0.3542 -0.1945
10309TIP3    H152418   5.902   3.391  12.046 -0.6234 -0.7064 -2.3293
10309TIP3    H252419   5.755   3.423  12.025 -1.5006 -3.9371 -1.6628
10310TIP3   OH252420   0.667   3.453  11.783  0.5087  0.3926  0.0339
10310TIP3    H152421   0.639   3.422  11.869  0.0987  1.0665  0.1566
10310TIP3    H252422   0.713   3.379  11.744 -1.5175 -0.8204 -0.1969
10311TIP3   OH252423   4.625   3.392   4.845 -0.2436 -0.3199  0.1238
10311TIP3    H152424   4.656   3.334   4.914 -0.5408 -0.1620  0.3945
10311TIP3    H252425   4.621   3.338   4.767  1.3742 -0.1783 -0.0820
10312TIP3   OH252426   3.717   1.605  14.630  0.2806 -0.2522  0.9925
10312TIP3    H152427   3.770   1.637  14.703 -1.1945  2.7802  0.8887
10312TIP3    H252428   3.767   1.630  14.552 -0.4056  1.0926  0.9385
10313TIP3   OH252429   1.052   1.787  12.807 -0.6225 -0.6465 -0.1160
10313TIP3    H152430   1.099   1.761  12.728  0.2865 -0.0520  0.2129
10313TIP3    H252431   1.021   1.705  12.845  0.2233 -1.0600 -0.2957
10314TIP3   OH252432   4.151   5.323   5.729 -0.5076 -0.0708 -0.4104
10314TIP3    H152433   4.061   5.306   5.758 -0.0736 -0.4639  0.7751
10314TIP3    H252434   4.197   5.349   5.809 -0.2782  3.3198 -1.4730
10315TIP3   OH252435   1.886   5.673   2.884  0.0510 -0.1829 -0.1935
10315TIP3    H152436   1.811   5.679   2.825  0.3929  2.4963 -0.5051
10315TIP3    H252437   1.854   5.626   2.960 -1.3591 -0.7893 -1.1249
10316TIP3   OH252438   3.779   2.647   4.565  0.6048 -0.3238 -0.6580
10316TIP3    H152439   3.817   2.561   4.549 -0.2862 -1.0804  0.9956
10316TIP3    H252440   3.832   2.683   4.637  2.0073  1.2579 -2.3749
10317TIP3   OH252441   4.145   2.059  12.986 -0.6441 -0.4456 -0.2618
10317TIP3    H152442   4.216   2.080  13.046 -1.1574  0.9380 -0.0948
10317TIP3    H252443   4.109   2.144  12.961 -1.3946 -1.0586 -1.3775
10318TIP3   OH252444   1.582   5.943  15.501  0.1725  0.4320  0.5765
10318TIP3    H152445   1.596   5.890  15.579 -0.8124 -0.4385  0.1875
10318TIP3    H252446   1.527   6.016  15.530  1.9771  1.6153  1.2340
10319TIP3   OH252447   4.370   0.273   3.580 -0.0897 -0.2586 -0.0117
10319TIP3    H152448   4.299   0.261   3.644  0.3313 -0.4013  0.4303
10319TIP3    H252449   4.445   0.301   3.632 -0.5748  2.8346 -0.7876
10320TIP3   OH252450   2.962   5.760  14.398  0.1803  0.3542 -0.4781
10320TIP3    H152451   2.950   5.674  14.438 -0.6502  0.4775 -0.4409
10320TIP3    H252452   3.052   5.784  14.418  0.6577 -0.8282 -1.1143
10321TIP3   OH252453   2.995   0.901  14.424  0.7005  0.7214  0.1358
10321TIP3    H152454   3.053   0.851  14.366  0.8904  1.4942 -0.3408
10321TIP3    H252455   2.956   0.834  14.481  1.9663  0.1708  0.3887
10322TIP3   OH252456   1.222   4.155   4.672 -0.3242  0.5869 -0.5326
10322TIP3    H152457   1.136   4.191   4.649 -0.8285 -0.5520 -0.5130
10322TIP3    H252458   1.263   4.135   4.587 -0.4854  0.2309 -0.5294
10323TIP3   OH252459   5.335   1.593   2.033  0.6417 -0.1291  0.4234
10323TIP3    H152460   5.379   1.651   2.095 -0.7516  0.0875  1.2765
10323TIP3    H252461   5.251   1.636   2.016  0.7684 -0.4774 -1.2000
10324TIP3   OH252462   6.655   5.812   5.276 -0.1865  0.1740  0.2079
10324TIP3    H152463   6.730   5.813   5.335 -1.4327 -2.1632  1.9833
10324TIP3    H252464   6.580   5.836   5.331 -1.1343 -0.2685 -0.8297
10325TIP3   OH252465   6.779   6.312  11.317 -0.2781  0.3161  0.2105
10325TIP3    H152466   6.780   6.408  11.317 -1.2409  0.3424 -0.4807
10325TIP3    H252467   6.760   6.288  11.226 -0.2049 -0.5295  0.4081
10326TIP3   OH252468   6.232   4.289  14.332 -0.1307  0.0655  0.0273
10326TIP3    H152469   6.187   4.311  14.414 -0.0719  2.1323 -0.4384
10326TIP3    H252470   6.260   4.199  14.344  0.1558  0.3971  2.4133
10327TIP3   OH252471   4.124   5.604  12.864  0.3719 -0.3743 -0.1244
10327TIP3    H152472   4.188   5.610  12.935  1.3253 -0.8958 -0.9120
10327TIP3    H252473   4.166   5.649  12.791  0.2557 -1.5651 -0.9409
10328TIP3   OH252474   2.056   5.454   1.363  0.1265  0.2022 -0.0665
10328TIP3    H152475   2.147   5.483   1.369  0.7877 -1.4023 -1.3861
10328TIP3    H252476   2.031   5.433   1.453  0.9698  0.8922  0.3355
10329TIP3   OH252477   3.637   5.917   4.403 -0.3979  0.3212 -0.5330
10329TIP3    H152478   3.548   5.951   4.412 -0.1922  1.2281 -1.7567
10329TIP3    H252479   3.693   5.983   4.446 -0.3940 -0.9017  1.4560
10330TIP3   OH252480   2.972   2.776  11.149 -0.1428 -0.1534  0.2612
10330TIP3    H152481   3.061   2.770  11.183  0.8059 -2.6185 -2.3093
10330TIP3    H252482   2.960   2.869  11.128  1.8644  0.1967  0.5181
10331TIP3   OH252483   2.236   0.879   1.339 -0.3516 -0.3979 -0.1467
10331TIP3    H152484   2.255   0.790   1.367  2.1194  0.4350  1.1684
10331TIP3    H252485   2.280   0.889   1.255  0.7676  0.0237  0.4718
10332TIP3   OH252486   1.238   1.783  11.745  0.1541  0.2406  0.4322
10332TIP3    H152487   1.318   1.836  11.750  0.7241 -0.4614 -0.8358
10332TIP3    H252488   1.228   1.747  11.833  1.6467 -0.2444  0.4270
10333TIP3   OH252489   6.145   0.334   4.121  0.2942  0.0509 -0.0045
10333TIP3    H152490   6.152   0.377   4.036 -0.5395  1.1279  0.4480
10333TIP3    H252491   6.214   0.374   4.174  0.7187 -0.5151 -0.1178
10334TIP3   OH252492   6.340   0.711   6.588 -0.0756  0.0960  0.5504
10334TIP3    H152493   6.363   0.798   6.554  0.2504 -0.8854 -1.9665
10334TIP3    H252494   6.244   0.711   6.589 -0.1091  0.0495 -0.7915
10335TIP3   OH252495   6.525   6.521   3.252  0.2782  0.2918 -0.0744
10335TIP3    H152496   6.512   6.436   3.295  0.6622  0.7202  0.9248
10335TIP3    H252497   6.446   6.571   3.274 -0.3391 -0.0599 -1.3589
10336TIP3   OH252498   2.226   4.014  15.186 -0.2567 -0.4246  0.4160
10336TIP3    H152499   2.287   3.972  15.126 -1.8389 -2.1609 -0.0687
10336TIP3    H252500   2.262   3.997  15.273  0.9831  0.3516  0.0858
10337TIP3   OH252501   5.672   1.646   3.782  0.3093  0.5480 -0.4219
10337TIP3    H152502   5.616   1.681   3.713 -0.7605  0.5191  0.4112
10337TIP3    H252503   5.669   1.551   3.769 -1.0187  0.4494  0.4946
10338TIP3   OH252504   3.735   5.871   6.103 -0.7026 -0.5814 -0.0619
10338TIP3    H152505   3.667   5.827   6.154  0.2208 -0.4411  1.3623
10338TIP3    H252506   3.802   5.804   6.089 -0.9210 -0.5992 -1.0579
10339TIP3   OH252507   1.798   0.331  15.844  0.3347  0.5070 -0.1432
10339TIP3    H152508   1.869   0.268  15.847  1.0602  1.3311  0.3253
10339TIP3    H252509   1.792   0.356  15.752  0.5955  0.3775 -0.1965
10340TIP3   OH252510   1.761   0.248  11.613  0.1691  0.0771  0.2586
10340TIP3    H152511   1.808   0.326  11.584 -0.1872 -0.5951 -2.3186
10340TIP3    H252512   1.785   0.180  11.550 -1.1247 -1.3703  1.2384
10341TIP3   OH252513   0.525   6.210  12.378  0.4961 -0.1319  0.0097
10341TIP3    H152514   0.549   6.271  12.448 -0.9450  1.4699 -0.8101
10341TIP3    H252515   0.609   6.177  12.346  1.3877  1.8449  0.1632
10342TIP3   OH252516   0.392   1.320   4.682  0.1915  0.6038 -0.0623
10342TIP3    H152517   0.463   1.258   4.696  1.2663  1.1519 -2.5580
10342TIP3    H252518   0.433   1.407   4.686 -0.6505  1.0150  0.0793
10343TIP3   OH252519   3.250   1.483  12.844 -0.2879 -0.0067 -0.5080
10343TIP3    H152520   3.290   1.405  12.807  0.2442  0.8457 -1.8229
10343TIP3    H252521   3.158   1.479  12.818 -0.3905 -0.4646 -0.0851
10344TIP3   OH252522   3.228   0.887  14.699  0.0157 -0.0042  0.1279
10344TIP3    H152523   3.206   0.980  14.692  1.4463  0.4251  0.8428
10344TIP3    H252524   3.320   0.883  14.671  0.4558 -0.9365  1.6431
10345TIP3   OH252525   4.913   1.952   4.648  0.0927 -0.1485 -0.4317
10345TIP3    H152526   4.980   1.971   4.582 -0.0196  0.4901 -0.3666
10345TIP3    H252527   4.962   1.912   4.720  0.2817 -0.4330 -0.7145
10346TIP3   OH252528   6.271   4.631   3.588 -0.7794  0.0456 -0.1995
10346TIP3    H152529   6.292   4.589   3.672  2.2842  1.7413  0.0328
10346TIP3    H252530   6.310   4.719   3.595 -1.6397  0.7330 -2.9090
10347TIP3   OH252531   6.000   1.390  12.689  0.1600  0.3435 -0.1704
10347TIP3    H152532   5.928   1.439  12.728  0.1349 -0.0984  0.3634
10347TIP3    H252533   6.045   1.452  12.632  0.6999  1.2464  1.2103
10348TIP3   OH252534   3.834   5.962  16.005 -0.2500  0.2264  0.1975
10348TIP3    H152535   3.847   5.869  16.024 -0.0525 -0.1272 -1.5388
10348TIP3    H252536   3.781   5.964  15.925  0.7505  1.5952 -0.4758
10349TIP3   OH252537   4.888   0.025   1.303 -0.4245 -0.2762 -0.1691
10349TIP3    H152538   4.848   0.018   1.216  1.6130 -0.6822 -1.1342
10349TIP3    H252539   4.967   0.077   1.290 -0.5216  0.4120  1.6390
10350TIP3   OH252540   2.064   0.331   2.405  0.2155  0.1792  0.4462
10350TIP3    H152541   2.090   0.420   2.381 -1.5983  0.8701  0.8092
10350TIP3    H252542   2.068   0.282   2.324  1.8751  0.4049  0.3651
10351TIP3   OH252543   6.680   0.230  15.257 -0.2081 -1.2659 -0.4763
10351TIP3    H152544   6.677   0.137  15.280 -0.5015 -1.4723 -1.2967
10351TIP3    H252545   6.753   0.236  15.195  0.5304 -0.7399  0.4281
10352TIP3   OH252546   3.768   1.244   2.603 -0.2953  0.2984  0.6094
10352TIP3    H152547   3.797   1.153   2.605  0.0029  0.3851  2.4228
10352TIP3    H252548   3.695   1.245   2.541  0.4830 -0.9077 -0.3789
10353TIP3   OH252549   1.356   4.909   3.537 -0.3999  0.2486  0.5202
10353TIP3    H152550   1.281   4.969   3.536  0.5487  1.4760  1.0234
10353TIP3    H252551   1.319   4.825   3.510 -1.8197  0.9838  0.0639
10354TIP3   OH252552   2.192   0.996  12.065 -0.2990  0.1734 -0.1450
10354TIP3    H152553   2.100   1.022  12.069 -0.5122 -0.6253  0.2318
10354TIP3    H252554   2.213   0.967  12.154 -0.5836 -2.6356 -0.9019
10355TIP3   OH252555   5.333   2.635   5.324 -0.2751  0.4605 -0.0035
10355TIP3    H152556   5.391   2.574   5.278 -0.0529 -1.0559  2.1480
10355TIP3    H252557   5.392   2.697   5.367 -0.2964 -0.1957  0.9905
10356TIP3   OH252558   6.303   2.787  13.170  0.1163  0.1061 -0.4079
10356TIP3    H152559   6.242   2.857  13.147  0.2317  0.2567 -0.2534
10356TIP3    H252560   6.255   2.706  13.150 -0.2952  0.2172  0.1178
10357TIP3   OH252561   3.705   4.351   3.179  0.5240  0.4778  0.0845
10357TIP3    H152562   3.795   4.322   3.167  0.0991 -1.5900  1.3669
10357TIP3    H252563   3.652   4.288   3.130 -0.3129  0.4291  1.0140
10358TIP3   OH252564   4.842   1.272  11.103  0.6173 -0.2082 -0.0642
10358TIP3    H152565   4.842   1.185  11.062  0.0444  0.0092 -0.5413
10358TIP3    H252566   4.750   1.296  11.110  0.7496  0.1552  0.5270
10359TIP3   OH252567   5.263   5.533   0.027 -0.3166 -0.5170  1.0038
10359TIP3    H152568   5.318   5.500  -0.044  1.0327  2.2096  0.6504
10359TIP3    H252569   5.173   5.513  -0.000  0.2214 -0.3626 -1.0255
10360TIP3   OH252570   0.390   1.372  16.109  0.2854  0.1029 -0.3230
10360TIP3    H152571   0.459   1.411  16.055 -0.2840  1.4328 -0.1251
10360TIP3    H252572   0.392   1.279  16.087  2.2360  0.0841 -0.2191
10361TIP3   OH252573   4.731   4.253  16.838  0.1643  0.4112  0.4317
10361TIP3    H152574   4.643   4.218  16.823 -0.0381  1.0606  0.0465
10361TIP3    H252575   4.788   4.177  16.834  0.1934  0.4444 -4.0217
10362TIP3   OH252576   3.205   4.761   4.640 -0.6766 -0.4979  0.4130
10362TIP3    H152577   3.152   4.737   4.716 -0.5449  1.9210  1.3764
10362TIP3    H252578   3.259   4.834   4.671  0.3253 -0.2852 -1.6640
10363TIP3   OH252579   0.207   3.382   1.253 -0.3005 -0.0439 -0.0006
10363TIP3    H152580   0.139   3.449   1.257  0.4736  0.7562 -0.0335
10363TIP3    H252581   0.250   3.395   1.169  1.4423  1.0414  0.9839
10364TIP3   OH252582   2.243   2.519  14.096 -0.2348  0.4479 -0.7966
10364TIP3    H152583   2.224   2.584  14.164 -1.4057  0.9772 -1.5916
10364TIP3    H252584   2.284   2.446  14.143 -0.5179  1.0263  0.3898
10365TIP3   OH252585   3.160   5.883  17.211  0.3782  0.6029  0.8326
10365TIP3    H152586   3.240   5.839  17.183  0.5171  1.1130  0.4035
10365TIP3    H252587   3.139   5.844  17.296 -0.0761 -0.9865  0.0113
10366TIP3   OH252588   1.204   0.489   5.077 -0.3037  0.5156  1.0230
10366TIP3    H152589   1.227   0.537   5.157 -0.1962  0.6056  0.9382
10366TIP3    H252590   1.112   0.465   5.089 -0.0404 -0.2467  1.5658
10367TIP3   OH252591   5.239   5.117   3.805 -0.2859  0.5238  0.0717
10367TIP3    H152592   5.290   5.158   3.875 -0.2532  0.3516  0.1494
10367TIP3    H252593   5.217   5.189   3.746 -1.4473  0.9275  0.9452
10368TIP3   OH252594   3.383   0.313   2.516  0.3415  0.1852  0.1102
10368TIP3    H152595   3.368   0.246   2.450  0.5385 -0.8735  1.1158
10368TIP3    H252596   3.319   0.381   2.496  0.5658  0.0119 -1.3106
10369TIP3   OH252597   4.206   1.847  16.301  0.2883  0.4362 -0.5035
10369TIP3    H152598   4.145   1.774  16.292 -0.0761  0.3215  2.1096
10369TIP3    H252599   4.278   1.826  16.242 -0.2469 -1.5613 -0.5052
10370TIP3   OH252600   1.746   6.467   3.729  0.1690  0.3137 -0.0439
10370TIP3    H152601   1.747   6.378   3.693 -1.5250 -1.4791  3.7544
10370TIP3    H252602   1.835   6.481   3.759  0.2540 -0.5078  0.1336
10371TIP3   OH252603   2.378   1.233  14.671 -0.4128 -0.3268 -0.1423
10371TIP3    H152604   2.403   1.244  14.579  0.4371 -0.3009  0.0812
10371TIP3    H252605   2.283   1.218  14.669 -0.5440  0.5150 -0.9571
10372TIP3   OH252606   6.299   6.250   1.221 -0.3414 -0.0537  0.1187
10372TIP3    H152607   6.375   6.276   1.168 -1.6564 -0.5527 -2.1761
10372TIP3    H252608   6.297   6.312   1.294  1.9117  0.3283 -0.0860
10373TIP3   OH252609   3.511   5.301   4.353 -0.1882  0.0546  0.2027
10373TIP3    H152610   3.479   5.274   4.439 -0.8940 -2.2177 -0.6903
10373TIP3    H252611   3.533   5.393   4.363 -2.2094  0.3964  2.2675
10374TIP3   OH252612   0.030   1.499   5.723 -0.4828  0.5111 -0.1706
10374TIP3    H152613  -0.029   1.495   5.648  1.0354  3.1148 -1.6636
10374TIP3    H252614   0.094   1.431   5.707  0.3686  1.6493 -1.8222
10375TIP3   OH252615   2.523   1.022  16.741  0.3615  0.2390 -0.2768
10375TIP3    H152616   2.569   1.066  16.669 -0.7659 -0.8264 -1.7368
10375TIP3    H252617   2.456   0.969  16.697  1.2578 -2.4765  1.3713
10376TIP3   OH252618   4.774   2.700  15.353  0.2824  0.4627  0.2069
10376TIP3    H152619   4.702   2.642  15.330 -0.9073  1.3311  1.5878
10376TIP3    H252620   4.806   2.668  15.437 -0.0317  1.4663  0.7222
10377TIP3   OH252621   5.532   0.722   3.883  0.3815 -0.0687  0.0510
10377TIP3    H152622   5.565   0.792   3.938 -1.9402  0.5480  0.7707
10377TIP3    H252623   5.490   0.661   3.944  0.0726 -0.7269 -0.7971
10378TIP3   OH252624   4.896   3.027  12.329  0.2789  0.2051  0.5555
10378TIP3    H152625   4.904   3.105  12.384 -0.8373 -0.1849  1.2949
10378TIP3    H252626   4.820   2.981  12.364 -0.6412  0.0881 -1.4943
10379TIP3   OH252627   4.176   0.530  12.568  0.6138  0.7660 -0.8202
10379TIP3    H152628   4.240   0.526  12.639 -1.2638 -1.7907  0.9105
10379TIP3    H252629   4.224   0.569  12.495  3.4809  0.9207  0.9795
10380TIP3   OH252630   6.542   4.997  13.122  0.5115  0.3811  0.2830
10380TIP3    H152631   6.557   5.080  13.077 -0.0026  0.0147 -0.5911
10380TIP3    H252632   6.509   5.022  13.208 -0.0932  1.0781 -0.1388
10381TIP3   OH252633   3.225   3.483   2.896  0.0857  0.2045 -0.2022
10381TIP3    H152634   3.288   3.420   2.861  1.1538  0.7310  0.7078
10381TIP3    H252635   3.226   3.467   2.991  1.0970  2.1758  0.1851
10382TIP3   OH252636   5.586   6.485  11.923  0.2044 -0.1168  0.4169
10382TIP3    H152637   5.558   6.394  11.914  1.4505 -0.5918  1.1770
10382TIP3    H252638   5.513   6.527  11.968 -0.5302 -0.6369 -0.2447
10383TIP3   OH252639   6.433   4.834  11.677 -0.0352  0.1537 -0.0928
10383TIP3    H152640   6.510   4.854  11.623 -0.4998  0.6027 -0.5930
10383TIP3    H252641   6.386   4.766  11.627  0.8688 -1.3309  0.9863
10384TIP3   OH252642   1.645   6.576   1.502 -0.1695 -0.1751  0.1240
10384TIP3    H152643   1.676   6.559   1.414 -2.2087 -0.2009 -0.6401
10384TIP3    H252644   1.678   6.664   1.523 -0.1411  0.0592 -0.8873
10385TIP3   OH252645   3.950   5.104  15.026 -0.5017 -0.3851 -0.8591
10385TIP3    H152646   4.000   5.118  14.945  1.3687 -0.3271  0.2351
10385TIP3    H252647   3.898   5.025  15.009  1.5246 -1.6735 -1.4197
10386TIP3   OH252648   3.749   0.206  14.118 -0.0496  0.1513 -0.4118
10386TIP3    H152649   3.727   0.262  14.044 -0.3329 -2.2519 -2.2457
10386TIP3    H252650   3.792   0.265  14.180 -1.8860  2.7385 -1.4044
10387TIP3   OH252651   0.703   5.722  15.134  0.0288 -0.0893 -0.3094
10387TIP3    H152652   0.743   5.645  15.175  0.1520 -0.5288 -1.2394
10387TIP3    H252653   0.776   5.784  15.125 -0.0723  0.1552  0.4474
10388TIP3   OH252654   6.772   5.275   1.246 -0.2864 -0.0062 -0.4425
10388TIP3    H152655   6.860   5.315   1.247 -0.9446  1.5133  0.4095
10388TIP3    H252656   6.724   5.324   1.180 -0.6376 -0.5473 -0.5967
10389TIP3   OH252657   6.691   5.390   3.522  0.1267 -0.4840  0.4985
10389TIP3    H152658   6.646   5.336   3.458  0.2195 -0.3662  0.3316
10389TIP3    H252659   6.784   5.374   3.506  0.1563 -0.2303  0.4056
10390TIP3   OH252660   2.539   0.980   0.452 -0.1017 -0.4565 -0.3270
10390TIP3    H152661   2.543   1.068   0.488  0.2745  0.5275 -2.5626
10390TIP3    H252662   2.617   0.936   0.485 -0.0256  0.2241  0.4022
10391TIP3   OH252663   6.189   3.815  10.744 -0.4590  0.5939 -0.1426
10391TIP3    H152664   6.263   3.829  10.803  1.4155 -1.8249 -1.7186
10391TIP3    H252665   6.163   3.904  10.717  1.3841  1.5599  1.0448
10392TIP3   OH252666   1.582   2.779   4.166  0.5510 -0.4406  0.0187
10392TIP3    H152667   1.513   2.767   4.101  0.1341  0.0133  0.3702
10392TIP3    H252668   1.643   2.707   4.149  1.3615  0.6677 -1.9985
10393TIP3   OH252669   3.731   4.345   4.337 -0.2609  0.2015 -0.2132
10393TIP3    H152670   3.764   4.354   4.426  0.0283  0.5611 -0.3553
10393TIP3    H252671   3.636   4.334   4.348 -0.4161  1.6638  0.0745
10394TIP3   OH252672   4.029   3.321   5.132 -0.3158  0.1641  0.5886
10394TIP3    H152673   4.115   3.280   5.132 -0.7745 -0.8748 -0.7425
10394TIP3    H252674   4.033   3.388   5.201  1.1201 -0.7398  1.4037
10395TIP3   OH252675   6.043   5.285   2.543  0.7469  0.1894  0.1575
10395TIP3    H152676   6.045   5.195   2.511  0.2397 -0.2489  1.3189
10395TIP3    H252677   6.014   5.278   2.634  0.0661  1.5712  0.0721
10396TIP3   OH252678   1.577   4.207   1.381  0.8506  0.4819  0.2992
10396TIP3    H152679   1.501   4.174   1.430  0.0745 -0.0077 -1.1909
10396TIP3    H252680   1.547   4.289   1.342  0.0756 -1.0361 -2.5686
10397TIP3   OH252681   3.729   2.495   2.072 -0.5736  0.2294 -0.2137
10397TIP3    H152682   3.660   2.457   2.128 -1.5892 -1.0746 -2.2334
10397TIP3    H252683   3.684   2.560   2.018 -0.0412  0.0098 -0.9413
10398TIP3   OH252684   6.225   0.533   1.085 -0.0834 -0.4761 -0.6422
10398TIP3    H152685   6.198   0.612   1.132 -0.2892 -0.2460 -1.1412
10398TIP3    H252686   6.185   0.461   1.134  0.6950 -0.3296  0.2340
10399TIP3   OH252687   1.509   4.456   5.273  0.0470 -0.5799 -0.0996
10399TIP3    H152688   1.484   4.526   5.333 -0.0239 -0.5056 -0.2150
10399TIP3    H252689   1.427   4.411   5.252 -0.0870  0.0304 -0.9422
10400TIP3   OH252690   4.871   0.219  11.136 -0.1037 -0.0592 -0.4760
10400TIP3    H152691   4.888   0.243  11.045 -1.3713 -1.0405 -0.9981
10400TIP3    H252692   4.906   0.130  11.144 -0.0822 -0.0141 -0.0177
10401TIP3   OH252693   4.992   2.169   1.019 -0.4622 -0.3204 -0.9072
10401TIP3    H152694   5.005   2.127   1.104 -1.0393 -0.3143 -0.8095
10401TIP3    H252695   4.916   2.124   0.982 -0.3333 -0.1885 -1.3343
10402TIP3   OH252696   0.118   1.284   4.358 -0.1320  0.1012 -0.0297
10402TIP3    H152697   0.083   1.369   4.386 -1.5616  0.3787 -2.3319
10402TIP3    H252698   0.206   1.304   4.326 -0.3284  0.6872 -0.2270
10403TIP3   OH252699   5.334   4.269   0.302  0.2160  0.1201  0.0128
10403TIP3    H152700   5.414   4.218   0.298 -0.9984 -1.7914 -1.7368
10403TIP3    H252701   5.313   4.274   0.395  0.9296 -1.7169  0.3073
10404TIP3   OH252702   3.132   6.647  16.216  0.1506 -0.3767  0.0849
10404TIP3    H152703   3.090   6.579  16.163  1.4193  1.1433 -3.1874
10404TIP3    H252704   3.082   6.727  16.197  0.7442  0.2641  1.1162
10405TIP3   OH252705   2.716   0.117  11.463 -0.0627  0.3890 -0.0890
10405TIP3    H152706   2.685   0.031  11.435  1.0687 -0.7467  1.9532
10405TIP3    H252707   2.662   0.139  11.539  1.2678  0.3123  0.9112
10406TIP3   OH252708   2.822   4.640  16.405 -0.3341  0.1665  0.2582
10406TIP3    H152709   2.810   4.658  16.499  2.6803  0.2791  0.7249
10406TIP3    H252710   2.831   4.727  16.366 -0.0948  0.0753  0.1116
10407TIP3   OH252711   1.036   4.557   4.324  0.1244  0.0778  0.0635
10407TIP3    H152712   1.089   4.571   4.246 -0.3321  0.7815 -0.1282
10407TIP3    H252713   1.051   4.635   4.377  2.1160 -1.2982  1.6978
10408TIP3   OH252714   0.188   0.933  10.843  0.0634 -0.9229  0.1191
10408TIP3    H152715   0.139   1.003  10.799 -1.0587 -1.2644  0.7854
10408TIP3    H252716   0.133   0.855  10.832  0.7276 -1.4402  0.4138
10409TIP3   OH252717   3.257   5.380  16.383  0.0961  0.0794  0.4636
10409TIP3    H152718   3.276   5.335  16.300  0.0712  1.5395 -0.3693
10409TIP3    H252719   3.338   5.373  16.433 -0.3458 -2.1255  1.0015
10410TIP3   OH252720   6.401   3.255   4.067 -0.1169  0.5506  0.0488
10410TIP3    H152721   6.337   3.327   4.069 -0.5308  0.1953 -0.3133
10410TIP3    H252722   6.363   3.190   4.008  0.5301  0.2849 -0.0844
10411TIP3   OH252723   1.845   4.787   3.630  0.7188  0.0685 -0.1239
10411TIP3    H152724   1.919   4.783   3.691 -1.3352 -0.1612  2.5759
10411TIP3    H252725   1.861   4.715   3.568  1.9368 -1.0633  1.4144
10412TIP3   OH252726   3.485   1.090   4.813  0.4309  0.5924  0.2842
10412TIP3    H152727   3.473   1.058   4.903  2.7256 -0.3529  0.3231
10412TIP3    H252728   3.429   1.033   4.760 -1.1929  1.3646  1.1128
10413TIP3   OH252729   5.126   4.557   5.271 -0.7921  0.0573  0.0887
10413TIP3    H152730   5.156   4.644   5.296 -0.2311 -0.3090  0.7250
10413TIP3    H252731   5.093   4.567   5.182 -0.0008  0.7456 -0.1339
10414TIP3   OH252732   0.259   5.317   4.653 -0.0683 -0.1916 -0.2401
10414TIP3    H152733   0.231   5.398   4.610  2.2905  0.6196 -0.3920
10414TIP3    H252734   0.259   5.252   4.583 -1.4984 -0.2366 -0.2268
10415TIP3   OH252735   4.997   4.064   2.277 -0.4151 -0.2030 -0.0567
10415TIP3    H152736   4.943   4.058   2.355 -0.8320  0.1843 -0.3127
10415TIP3    H252737   5.076   4.014   2.298 -0.6400 -0.3174  0.5112
10416TIP3   OH252738   0.233   0.294  13.603 -0.2452 -0.6879  0.8533
10416TIP3    H152739   0.274   0.289  13.690  0.8069 -2.5465  0.3056
10416TIP3    H252740   0.215   0.387  13.590  0.5423 -0.2483  2.6191
10417TIP3   OH252741   3.298   5.460  15.605 -0.1400  0.2797 -0.1865
10417TIP3    H152742   3.284   5.554  15.605 -1.1449  0.1546  0.4794
10417TIP3    H252743   3.209   5.423  15.606  0.2393 -0.6675 -0.5525
10418TIP3   OH252744   5.925   0.283  11.328 -0.1335  0.2565 -0.1282
10418TIP3    H152745   5.998   0.262  11.269 -1.7596  1.5488 -2.7419
10418TIP3    H252746   5.859   0.217  11.308 -0.1902 -0.1808  1.3831
10419TIP3   OH252747   4.942   1.714  14.207  0.0184 -0.4348  0.1290
10419TIP3    H152748   4.857   1.708  14.163 -0.3422  1.2148  0.5327
10419TIP3    H252749   4.924   1.685  14.297  0.4426 -2.4081 -0.3780
10420TIP3   OH252750   6.489   3.880   2.661  0.2515 -0.1432  0.2078
10420TIP3    H152751   6.458   3.790   2.655  0.7176 -0.2973  0.0685
10420TIP3    H252752   6.494   3.910   2.571  0.1839 -0.0050  0.2491
10421TIP3   OH252753   0.140   0.306   0.200  0.1205 -0.3880  0.4349
10421TIP3    H152754   0.063   0.322   0.255 -0.1952 -1.9140  0.4716
10421TIP3    H252755   0.161   0.214   0.215  0.7977 -0.4956 -1.0422
10422TIP3   OH252756   4.310   5.706  12.651  0.2075 -0.0584  0.5210
10422TIP3    H152757   4.406   5.705  12.654  0.2055 -0.0182  0.6149
10422TIP3    H252758   4.289   5.783  12.599  0.2567 -1.1948 -1.2657
10423TIP3   OH252759   4.922   4.357  11.113 -0.7568  0.2079 -0.4601
10423TIP3    H152760   5.016   4.374  11.122 -0.8869  0.4569  0.6914
10423TIP3    H252761   4.886   4.440  11.080 -0.6083  0.2023 -0.6372
10424TIP3   OH252762   4.422   0.664  12.687  0.0093 -0.0554 -0.0347
10424TIP3    H152763   4.421   0.706  12.601  0.7178  0.7461  0.3204
10424TIP3    H252764   4.478   0.587  12.676 -1.2911 -0.9226 -0.6923
10425TIP3   OH252765   0.108   3.214  14.341  0.4775  0.4506  0.1865
10425TIP3    H152766   0.066   3.182  14.420  1.5851 -0.3459  0.4727
10425TIP3    H252767   0.190   3.254  14.372  1.0700 -0.1511 -0.5722
10426TIP3   OH252768   4.499   1.276   6.045  0.2391  0.0284  0.4219
10426TIP3    H152769   4.528   1.213   6.112  1.8164  0.1885 -0.0764
10426TIP3    H252770   4.501   1.226   5.963 -0.4184  0.1891  0.3093
10427TIP3   OH252771   5.137   5.622   3.869  0.2004 -0.1006 -0.4577
10427TIP3    H152772   5.078   5.641   3.795  0.4725  0.3118 -0.5666
10427TIP3    H252773   5.221   5.601   3.828  0.4914  0.6381 -0.2421
10428TIP3   OH252774   0.740   0.776  13.147  0.3143  0.1910 -0.5333
10428TIP3    H152775   0.831   0.776  13.119  0.2086  1.2407 -0.9375
10428TIP3    H252776   0.701   0.701  13.103  0.9790 -0.2825 -0.3367
10429TIP3   OH252777   2.013   2.890  12.448  0.1122 -0.2505  0.7271
10429TIP3    H152778   1.949   2.900  12.377  1.7373 -1.6933 -1.0840
10429TIP3    H252779   2.037   2.980  12.472 -2.2035  0.3026  1.1592
10430TIP3   OH252780   3.676   3.636  15.961 -0.0661  0.8149 -0.6062
10430TIP3    H152781   3.628   3.646  15.879  1.3552  0.8683 -1.4823
10430TIP3    H252782   3.695   3.726  15.989  1.4280  0.8043 -1.4801
10431TIP3   OH252783   2.062   3.948  17.006  0.7181  0.6197  0.0158
10431TIP3    H152784   2.134   4.005  16.978  0.6758  0.5116 -0.3110
10431TIP3    H252785   2.105   3.865  17.027  0.6584  0.4802 -0.4096
10432TIP3   OH252786   1.267   2.998   2.703 -0.5580 -0.3235 -0.2256
10432TIP3    H152787   1.360   3.012   2.720 -0.4364 -2.3681  1.3211
10432TIP3    H252788   1.223   3.070   2.747  0.2689  0.8021 -1.1811
10433TIP3   OH252789   2.483   4.072   1.505 -0.4936 -0.0954  0.1458
10433TIP3    H152790   2.479   4.061   1.410  0.5914 -0.0671  0.0888
10433TIP3    H252791   2.484   4.167   1.518  1.2788 -0.0816  0.0748
10434TIP3   OH252792   4.144   3.295  14.284  0.4121 -0.4790  0.3732
10434TIP3    H152793   4.170   3.355  14.214  0.0192  1.1725  1.5765
10434TIP3    H252794   4.214   3.229  14.287  0.0059 -1.1085 -2.0980
10435TIP3   OH252795   2.822   4.047   1.585 -0.2809  0.3414 -0.0831
10435TIP3    H152796   2.800   4.076   1.673  2.1637 -0.5069  0.9039
10435TIP3    H252797   2.875   4.118   1.549  1.2335 -0.5431  0.3161
10436TIP3   OH252798   4.121   5.554   0.499 -0.2795 -0.0601  0.0938
10436TIP3    H152799   4.155   5.473   0.460 -1.9615 -1.4873  1.4344
10436TIP3    H252800   4.184   5.575   0.568 -0.1501 -0.5719  0.1361
10437TIP3   OH252801   5.476   4.133   5.474 -0.4232  0.0569  0.5937
10437TIP3    H152802   5.462   4.146   5.380 -3.4018 -0.5604  0.8696
10437TIP3    H252803   5.515   4.046   5.480 -1.0084 -0.2645 -0.0591
10438TIP3   OH252804   3.181   0.669  12.469 -0.3625 -0.1298  0.0791
10438TIP3    H152805   3.169   0.693  12.561 -4.0927  0.3759 -0.4126
10438TIP3    H252806   3.265   0.708  12.446 -0.6491  2.2408  2.5073
10439TIP3   OH252807   2.501   2.380   1.170  0.2545 -0.1111 -0.4517
10439TIP3    H152808   2.416   2.370   1.211  0.6818 -0.5637  0.3576
10439TIP3    H252809   2.547   2.443   1.226  1.2393 -1.5674  0.4689
10440TIP3   OH252810   5.713   4.426  12.197 -0.6209  0.0560  0.0705
10440TIP3    H152811   5.668   4.510  12.193 -0.6352  0.0139 -1.3700
10440TIP3    H252812   5.745   4.420  12.287  1.9532  2.9801 -0.4838
10441TIP3   OH252813   2.504   5.074   4.677  0.1755  0.2643  0.0262
10441TIP3    H152814   2.448   5.014   4.726 -0.0088  1.1256  0.9106
10441TIP3    H252815   2.591   5.061   4.713  0.1262  0.5486  0.2583
10442TIP3   OH252816   1.384   0.633  16.842 -0.8519  0.1881 -0.0192
10442TIP3    H152817   1.352   0.554  16.799  0.3473  0.9227 -2.4037
10442TIP3    H252818   1.468   0.608  16.880 -1.1612 -0.0407  0.5281
10443TIP3   OH252819   4.410   3.162   4.015  0.0204 -0.3942  0.4295
10443TIP3    H152820   4.450   3.249   4.006  0.7115 -0.5723  1.5624
10443TIP3    H252821   4.331   3.177   4.068  0.5099 -0.5342  1.2213
10444TIP3   OH252822   1.613   3.095  15.589 -0.0477  0.0510 -0.1843
10444TIP3    H152823   1.528   3.109  15.547 -0.2079  1.0327  0.4470
10444TIP3    H252824   1.626   3.173  15.643  0.9670 -0.3858  0.2135
10445TIP3   OH252825   5.504   3.528  17.153  0.3447  0.3483  0.0758
10445TIP3    H152826   5.520   3.546  17.245 -1.2511  1.3414  0.1957
10445TIP3    H252827   5.444   3.597  17.125 -0.1044 -0.5952 -1.4081
10446TIP3   OH252828   4.081   1.662  16.005 -0.6218 -0.1014  0.6057
10446TIP3    H152829   4.077   1.688  16.097  0.1495  0.4077  0.5067
10446TIP3    H252830   4.132   1.581  16.005 -1.5691 -0.7141  0.7347
10447TIP3   OH252831   0.829   0.600   4.866  0.1490  0.2121 -0.2634
10447TIP3    H152832   0.869   0.641   4.943 -1.1287  2.3594 -0.6730
10447TIP3    H252833   0.870   0.643   4.791 -1.2618  0.8303 -0.7102
10448TIP3   OH252834   3.918   1.693   3.477  0.6330 -0.1306  0.1784
10448TIP3    H152835   3.988   1.713   3.415  0.5854  1.0403  0.4795
10448TIP3    H252836   3.839   1.690   3.424  0.7887 -0.6530 -0.0367
10449TIP3   OH252837   6.272   4.556   3.890  0.2708 -0.2927 -0.3152
10449TIP3    H152838   6.355   4.545   3.843 -0.5802 -0.5114 -1.8208
10449TIP3    H252839   6.298   4.563   3.983  1.8817 -1.3464 -0.6464
10450TIP3   OH252840   0.303   2.491  13.183  0.3611  0.1205 -0.8465
10450TIP3    H152841   0.290   2.454  13.270  0.5172  0.0503 -0.8527
10450TIP3    H252842   0.396   2.475  13.164  0.5385  0.9240 -0.6616
10451TIP3   OH252843   1.334   2.747   2.133  0.3681  0.1803  0.6500
10451TIP3    H152844   1.364   2.784   2.216 -0.1507 -0.2924  1.0523
10451TIP3    H252845   1.263   2.805   2.105  0.5263  0.3254  0.5472
10452TIP3   OH252846   4.401   4.357  15.857 -0.2755 -0.0381 -0.3861
10452TIP3    H152847   4.364   4.271  15.840 -0.0978 -0.0614 -0.6657
10452TIP3    H252848   4.459   4.344  15.932  0.9290 -0.5039 -1.3612
10453TIP3   OH252849   3.414   1.367  10.372  0.2772 -0.2703 -0.1503
10453TIP3    H152850   3.445   1.429  10.438  0.4875  0.3303 -0.8075
10453TIP3    H252851   3.461   1.390  10.293 -0.9733 -0.0922 -0.8745
10454TIP3   OH252852   3.049   1.424  13.553 -0.4041 -0.5880  0.1841
10454TIP3    H152853   3.083   1.404  13.640  0.4572  0.2644  0.0610
10454TIP3    H252854   3.127   1.444  13.501 -0.8029 -2.1699 -1.0965
10455TIP3   OH252855   2.251   2.815  12.521 -0.2260  0.1705 -0.5429
10455TIP3    H152856   2.159   2.841  12.522 -0.5530 -0.8270 -1.6577
10455TIP3    H252857   2.299   2.897  12.509 -1.0341  0.5857 -1.0490
10456TIP3   OH252858   5.452   3.883   2.401  0.2422  0.0095 -0.1018
10456TIP3    H152859   5.422   3.807   2.452  0.4191  1.1537  1.8173
10456TIP3    H252860   5.528   3.916   2.450 -0.5459  2.1210 -0.2038
10457TIP3   OH252861   2.307   6.526  11.150  0.4718 -0.6718 -0.1231
10457TIP3    H152862   2.249   6.453  11.126  0.5493 -0.7022 -0.2196
10457TIP3    H252863   2.338   6.504  11.237 -0.2377 -0.2959  0.2370
10458TIP3   OH252864   2.759   2.007  14.229  0.1383  0.0425 -0.4198
10458TIP3    H152865   2.781   2.004  14.136 -1.2969  1.1836 -0.8239
10458TIP3    H252866   2.834   2.050  14.270  0.9263 -0.7521 -0.9646
10459TIP3   OH252867   2.735   5.192  12.174 -0.5587  0.0898 -0.0813
10459TIP3    H152868   2.676   5.185  12.249 -1.2359 -0.2919 -0.6298
10459TIP3    H252869   2.782   5.274  12.188 -0.8558  0.1478  0.6299
10460TIP3   OH252870   5.198   4.417   2.451 -0.5394  0.0428  0.0716
10460TIP3    H152871   5.141   4.457   2.386 -2.2257  0.4865  1.7272
10460TIP3    H252872   5.143   4.352   2.494  0.7681 -0.7904  0.5511
10461TIP3   OH252873   3.990   3.448  12.405 -0.5441  0.4613 -0.0718
10461TIP3    H152874   3.963   3.391  12.477  1.6020 -1.6167 -0.7626
10461TIP3    H252875   3.909   3.473  12.361 -1.7197 -0.1673  1.6552
10462TIP3   OH252876   0.640   6.360   2.245 -0.2999 -0.5211 -0.0615
10462TIP3    H152877   0.645   6.344   2.339 -1.0901  0.0700  0.0860
10462TIP3    H252878   0.726   6.333   2.212  1.1653  2.1482  1.2531
10463TIP3   OH252879   0.458   1.997   4.713 -0.1850 -0.3323  0.1957
10463TIP3    H152880   0.532   2.007   4.652  0.4008 -0.4307  0.8794
10463TIP3    H252881   0.382   2.026   4.663  0.5158  1.1467 -0.0551
10464TIP3   OH252882   2.536   4.100   1.235  0.0879 -0.6470  0.8052
10464TIP3    H152883   2.597   4.165   1.268 -0.0979 -0.2440  0.3574
10464TIP3    H252884   2.590   4.021   1.223  0.5966 -0.1935  0.0686
10465TIP3   OH252885   6.059   2.403  11.453 -0.6627  0.4196  0.3961
10465TIP3    H152886   6.020   2.379  11.369 -0.0524  0.2721  0.1495
10465TIP3    H252887   6.086   2.494  11.441  0.6231  0.0047 -0.0333
10466TIP3   OH252888   2.829   0.178   4.325 -0.3491 -0.1595 -0.4791
10466TIP3    H152889   2.854   0.086   4.335 -0.5139 -0.2161 -0.5736
10466TIP3    H252890   2.902   0.218   4.276 -0.2618 -0.2320 -0.4077
10467TIP3   OH252891   4.867   2.847   4.635 -0.6229 -0.0251 -0.6078
10467TIP3    H152892   4.921   2.784   4.586  0.3568  0.2561  0.0830
10467TIP3    H252893   4.930   2.906   4.676 -1.4009 -0.3567  1.1417
10468TIP3   OH252894   2.078   2.560   1.224 -0.0685  0.1157 -0.2834
10468TIP3    H152895   2.126   2.491   1.270 -2.7028 -0.3406  2.0415
10468TIP3    H252896   2.146   2.623   1.197  1.8923 -0.6927  2.3637
10469TIP3   OH252897   6.490   1.113   3.781 -0.0909 -0.1527 -0.7561
10469TIP3    H152898   6.402   1.151   3.784  0.0408  0.1283  1.6062
10469TIP3    H252899   6.509   1.090   3.872  2.8950  1.2629 -0.9036
10470TIP3   OH252900   5.464   5.180   5.313 -0.5051 -0.0862 -0.1535
10470TIP3    H152901   5.468   5.127   5.233 -0.7977  0.6021 -0.6381
10470TIP3    H252902   5.555   5.203   5.331 -0.4132 -0.4529 -0.1474
10471TIP3   OH252903   4.568   3.501  15.417  0.5456 -0.3064  0.5285
10471TIP3    H152904   4.563   3.524  15.324  0.1948  1.1390  0.8838
10471TIP3    H252905   4.659   3.519  15.442  0.4245  0.1408  0.6605
10472TIP3   OH252906   0.206   0.829  14.044  0.1702  0.2850  0.5101
10472TIP3    H152907   0.117   0.804  14.069  0.0607  1.4821  1.4188
10472TIP3    H252908   0.255   0.828  14.126  0.7303  0.6720  0.1836
10473TIP3   OH252909   5.575   0.937  14.807  0.4685 -0.1677  0.5188
10473TIP3    H152910   5.575   0.928  14.903  3.6605  0.3700  0.6847
10473TIP3    H252911   5.623   1.018  14.791 -1.5003  0.6970 -1.5671
10474TIP3   OH252912   5.323   0.267   2.203  0.4722 -0.4638 -0.0385
10474TIP3    H152913   5.379   0.345   2.203 -0.4133  0.1822  0.6925
10474TIP3    H252914   5.244   0.294   2.156 -0.2095 -0.6398  0.9924
10475TIP3   OH252915   1.522   2.794   5.048  0.0386 -0.0543  0.3202
10475TIP3    H152916   1.439   2.762   5.013  0.8789 -0.5878 -1.3273
10475TIP3    H252917   1.500   2.830   5.134 -2.0738  0.7807 -0.4948
10476TIP3   OH252918   2.608   3.228  12.718 -0.3213  0.0712  0.4247
10476TIP3    H152919   2.659   3.217  12.638 -1.3246  1.1589 -0.4030
10476TIP3    H252920   2.670   3.211  12.789  0.5691 -1.0226 -0.5695
10477TIP3   OH252921   6.565   6.605   5.926 -0.0449  0.4665 -0.4018
10477TIP3    H152922   6.476   6.629   5.901 -0.3554 -0.1538  0.0670
10477TIP3    H252923   6.559   6.512   5.949  0.0837  1.0502  2.3630
10478TIP3   OH252924   2.338   1.597  15.780 -0.6922 -0.1584  0.2373
10478TIP3    H152925   2.303   1.670  15.730 -0.2967 -0.6146 -0.7301
10478TIP3    H252926   2.433   1.606  15.772 -0.5810  0.3138  1.7354
10479TIP3   OH252927   4.189   4.388  14.918 -0.4671  0.5065  0.5180
10479TIP3    H152928   4.216   4.329  14.988 -0.1613 -0.9960 -0.7811
10479TIP3    H252929   4.271   4.427  14.887 -0.1651 -1.0490 -0.8346
10480TIP3   OH252930   0.597   0.713   3.694  0.6649  0.2864  0.4746
10480TIP3    H152931   0.660   0.751   3.756  0.7715  0.5965  0.1835
10480TIP3    H252932   0.512   0.744   3.725  0.8786  2.3503 -0.8131
10481TIP3   OH252933   5.674   0.009  11.978 -0.2265 -0.3652  0.0087
10481TIP3    H152934   5.751   0.062  12.001 -0.4619  0.7712 -1.6089
10481TIP3    H252935   5.705  -0.047  11.906 -0.6988 -0.4748 -0.1107
10482TIP3   OH252936   4.383   2.791   5.425 -0.2169 -0.2009 -0.0249
10482TIP3    H152937   4.338   2.773   5.342 -1.6184  1.6736  0.2538
10482TIP3    H252938   4.318   2.774   5.492  0.4812 -0.3839  0.6190
10483TIP3   OH252939   1.985   1.029  15.305 -0.0464  0.1162  0.6579
10483TIP3    H152940   2.054   0.976  15.264  1.1021  0.9831  1.4044
10483TIP3    H252941   1.924   1.047  15.234  1.6080  1.1015 -0.5876
10484TIP3   OH252942   4.390   5.904  16.854 -0.4250 -0.2071  0.6275
10484TIP3    H152943   4.450   5.877  16.785 -2.0142 -0.1124 -0.8678
10484TIP3    H252944   4.437   5.973  16.901  0.2271  0.6474 -1.1896
10485TIP3   OH252945   2.729   4.270   5.674  0.1550  0.0524 -0.5075
10485TIP3    H152946   2.738   4.246   5.582 -0.6045  0.9590 -0.8304
10485TIP3    H252947   2.644   4.312   5.680 -0.0832 -0.5715  0.7485
10486TIP3   OH252948   6.606   1.333  17.209 -0.5044  0.0734  0.0798
10486TIP3    H152949   6.637   1.423  17.201 -0.2859 -0.0121 -0.0464
10486TIP3    H252950   6.684   1.282  17.228 -0.6511 -0.0697  0.2966
10487TIP3   OH252951   3.994   4.067   1.450  0.6903 -0.2198 -0.0131
10487TIP3    H152952   3.965   4.157   1.440  0.1749 -0.4076 -0.2468
10487TIP3    H252953   4.048   4.068   1.529  1.3833  0.4548 -0.4871
10488TIP3   OH252954   1.150   5.766  15.537  0.4535 -0.2337 -0.2730
10488TIP3    H152955   1.061   5.799  15.547  0.4964 -0.2593  0.2193
10488TIP3    H252956   1.201   5.844  15.512  0.5756  0.1317  1.0021
10489TIP3   OH252957   3.087   6.746  13.942  0.2801 -0.0083 -0.3382
10489TIP3    H152958   3.177   6.738  13.973 -0.5022  0.7190  2.3406
10489TIP3    H252959   3.058   6.832  13.972 -1.5680 -0.5412 -0.4597
10490TIP3   OH252960   5.448   6.238   1.686  0.0358  0.3164 -0.4260
10490TIP3    H152961   5.490   6.169   1.737 -1.0177  0.4064  0.5913
10490TIP3    H252962   5.357   6.238   1.716 -0.5291  0.6428 -2.0208
10491TIP3   OH252963   1.512   0.271   0.312  0.3515 -0.2332 -0.1932
10491TIP3    H152964   1.457   0.349   0.312  1.8945  0.9284 -1.4622
10491TIP3    H252965   1.468   0.211   0.251 -0.6069 -0.1946  0.4415
10492TIP3   OH252966   0.647   2.262   3.706 -0.2926  0.1235  0.2425
10492TIP3    H152967   0.726   2.212   3.683 -1.0922 -1.2102  0.2432
10492TIP3    H252968   0.653   2.274   3.800 -0.1332 -0.0683  0.2589
10493TIP3   OH252969   3.880   4.852  15.152 -0.4877 -0.3359  0.0060
10493TIP3    H152970   3.960   4.832  15.103 -0.5694 -1.3924  0.2795
10493TIP3    H252971   3.909   4.907  15.224 -0.2303  0.4756 -0.7030
10494TIP3   OH252972   0.727   2.870  13.624  0.6785  0.1249  0.4283
10494TIP3    H152973   0.660   2.808  13.594 -0.8319  1.0628  1.6681
10494TIP3    H252974   0.809   2.837  13.587 -0.5549 -0.6007 -1.8987
10495TIP3   OH252975   4.559   3.413  15.764  0.3307  0.5190 -0.6985
10495TIP3    H152976   4.599   3.410  15.677 -0.6185  1.0587 -1.1731
10495TIP3    H252977   4.530   3.323  15.779 -0.2204  0.5822 -1.3077
10496TIP3   OH252978   0.036   3.736   4.611  0.4169 -0.0182  0.4554
10496TIP3    H152979   0.034   3.664   4.674 -0.7901 -1.6813 -1.3474
10496TIP3    H252980   0.128   3.743   4.586  0.5280 -1.0988  0.5023
10497TIP3   OH252981   5.163   4.659   5.733  0.2660 -0.2175 -0.1820
10497TIP3    H152982   5.239   4.716   5.717  2.4735 -2.8205  0.3074
10497TIP3    H252983   5.160   4.649   5.828 -0.4110 -0.5184 -0.2275
10498TIP3   OH252984   4.118   1.789   4.571  0.0431 -0.6480 -0.3036
10498TIP3    H152985   4.080   1.772   4.484  0.6740 -1.0964 -0.4991
10498TIP3    H252986   4.042   1.806   4.627 -0.3066  1.5792 -1.3326
10499TIP3   OH252987   2.562   0.615  14.350  0.7464 -0.0514 -0.1430
10499TIP3    H152988   2.556   0.667  14.431  0.4374 -0.2228 -0.0543
10499TIP3    H252989   2.530   0.674  14.281  0.4964 -0.0829 -0.0573
10500TIP3   OH252990   2.911   4.880   2.683  0.5507 -0.8059  0.2398
10500TIP3    H152991   2.957   4.844   2.607 -0.9046  0.3430 -1.2671
10500TIP3    H252992   2.822   4.896   2.651  0.3762  1.4019  1.6457
10501TIP3   OH252993   1.124   6.184  15.870  0.0503 -0.1911 -0.6831
10501TIP3    H152994   1.098   6.271  15.899  2.8364  0.2464  0.9056
10501TIP3    H252995   1.047   6.149  15.825 -2.0109  2.0892  0.8229
10502TIP3   OH252996   0.698   1.544   0.011  0.4241 -0.3871 -0.0055
10502TIP3    H152997   0.663   1.480   0.074  0.2906 -0.3250 -0.0156
10502TIP3    H252998   0.784   1.568   0.045  0.4954 -0.6108 -0.0280
10503TIP3   OH252999   6.188   5.988  14.782 -0.4654  0.3726  0.1863
10503TIP3    H153000   6.263   5.929  14.771 -1.5387 -0.5000 -4.3525
10503TIP3    H253001   6.122   5.955  14.721 -2.5650  4.1500  0.1157
10504TIP3   OH253002   6.719   5.320   5.108 -0.6354 -0.5546 -0.1481
10504TIP3    H153003   6.651   5.384   5.128  0.6567  0.7987  0.1413
10504TIP3    H253004   6.679   5.235   5.125 -2.8849  0.0540 -1.8988
10505TIP3   OH253005   5.285   1.013  13.741 -0.0861  0.1310  0.6497
10505TIP3    H153006   5.261   1.091  13.792 -0.3886  0.7756 -0.4364
10505TIP3    H253007   5.330   1.049  13.664  1.6435 -0.8828  1.1229
10506TIP3   OH253008   6.333   2.334   3.106 -0.5373 -0.5879 -0.2366
10506TIP3    H153009   6.337   2.412   3.051 -0.2337 -0.7856 -0.4973
10506TIP3    H253010   6.270   2.277   3.062 -0.5206 -0.6207 -0.2176
10507TIP3   OH253011   4.735   0.398   4.886  0.4007  0.8179 -0.1165
10507TIP3    H153012   4.749   0.417   4.978 -0.2655  1.0200 -0.0484
10507TIP3    H253013   4.640   0.388   4.878  0.5257 -0.1746 -0.5932
10508TIP3   OH253014   3.329   6.085  10.803 -0.0103 -0.4823  0.2415
10508TIP3    H153015   3.290   6.160  10.847 -1.0993  0.0147 -1.4719
10508TIP3    H253016   3.421   6.109  10.790 -0.6322  1.2013 -1.4865
10509TIP3   OH253017   4.355   5.466  13.586  0.3908 -0.0756  0.3783
10509TIP3    H153018   4.365   5.384  13.634  1.0944  1.1231  2.4161
10509TIP3    H253019   4.334   5.531  13.654  0.0795  1.4800 -1.1326
10510TIP3   OH253020   6.378   5.495   0.176 -0.2287  0.2831 -0.2023
10510TIP3    H153021   6.449   5.434   0.157  1.0116  1.6299 -0.1125
10510TIP3    H253022   6.308   5.441   0.212  0.6576 -1.1214 -0.5136
10511TIP3   OH253023   0.188   0.119  12.793  0.8373  0.9281 -0.1891
10511TIP3    H153024   0.201   0.212  12.813 -0.8407  1.3592 -0.9176
10511TIP3    H253025   0.185   0.116  12.697  0.3894  0.1888 -0.1559
10512TIP3   OH253026   0.007   5.451   5.633  0.9642  0.4590 -0.4675
10512TIP3    H153027   0.002   5.397   5.554 -0.7838  1.0026 -0.7725
10512TIP3    H253028  -0.007   5.389   5.705  1.0414  0.1906 -0.6793
10513TIP3   OH253029   1.185   2.840  13.728  1.0072 -0.5885  0.7674
10513TIP3    H153030   1.244   2.905  13.767  2.6009 -1.5090 -0.0183
10513TIP3    H253031   1.223   2.822  13.642 -1.8604  0.6608 -0.8929
10514TIP3   OH253032   2.968   6.490  13.014 -0.6069  0.0036  0.5666
10514TIP3    H153033   2.942   6.546  12.941 -1.0535 -0.9386 -0.0055
10514TIP3    H253034   3.060   6.468  12.995 -0.6437 -0.0312  0.4292
10515TIP3   OH253035   0.022   2.533  14.903 -0.4305  0.0062 -0.2062
10515TIP3    H153036   0.049   2.583  14.981  0.6472 -0.1729 -0.4539
10515TIP3    H253037  -0.016   2.599  14.845  0.2029  0.4072 -0.1760
10516TIP3   OH253038   3.354   5.364   0.399 -0.0712  0.0003  0.3815
10516TIP3    H153039   3.297   5.400   0.467 -2.2475 -1.9087 -0.3027
10516TIP3    H253040   3.383   5.280   0.435  0.5583 -0.0208 -0.1615
10517TIP3   OH253041   6.365   5.949  15.701  0.2271  0.3968  0.3355
10517TIP3    H153042   6.365   5.934  15.796 -0.8660  0.9572  0.4449
10517TIP3    H253043   6.454   5.929  15.674  0.5758  0.2728  1.4921
10518TIP3   OH253044   0.573   1.542  12.706  0.6662  0.3134 -0.2212
10518TIP3    H153045   0.580   1.587  12.622  3.0263  0.8867  0.2013
10518TIP3    H253046   0.621   1.460  12.694 -1.4961 -1.0318 -0.2467
10519TIP3   OH253047   1.384   5.468  13.953  0.8831  0.5853 -0.4361
10519TIP3    H153048   1.299   5.446  13.915  2.0991  0.1374 -3.0682
10519TIP3    H253049   1.364   5.537  14.017 -1.4350  0.4834 -0.9645
10520TIP3   OH253050   1.558   4.069   4.397  0.0865  0.7033  0.1842
10520TIP3    H153051   1.616   4.017   4.342  0.6242  2.9341 -1.4830
10520TIP3    H253052   1.540   4.013   4.472 -0.1271 -2.2003 -1.8910
10521TIP3   OH253053   1.854   1.846  11.588 -0.5825  0.4424  0.4798
10521TIP3    H153054   1.785   1.785  11.615  0.7690 -0.1625  2.8923
10521TIP3    H253055   1.931   1.818  11.638  0.8088  2.4840 -0.4025
10522TIP3   OH253056   2.347   4.078   5.168 -0.1008 -0.0303 -0.6876
10522TIP3    H153057   2.378   4.158   5.126 -0.5832  0.3412 -0.3432
10522TIP3    H253058   2.277   4.107   5.226  0.5495 -0.5363  0.3743
10523TIP3   OH253059   1.723   3.768  16.376 -0.0768  0.8223 -0.2298
10523TIP3    H153060   1.628   3.765  16.366 -0.2037  0.4304  0.8973
10523TIP3    H253061   1.737   3.756  16.470  1.0579  1.6662 -0.2707
10524TIP3   OH253062   1.262   0.657  11.815  0.1120 -0.2644 -0.7263
10524TIP3    H153063   1.246   0.631  11.724 -0.4948 -0.5877 -0.5335
10524TIP3    H253064   1.226   0.584  11.867  1.4215 -0.6039 -0.2516
10525TIP3   OH253065   4.161   1.953   5.152 -0.1673  0.3318 -0.4537
10525TIP3    H153066   4.213   2.032   5.164 -0.2202  0.4936 -1.2223
10525TIP3    H253067   4.213   1.884   5.193  0.6186  0.5093 -1.1117
10526TIP3   OH253068   4.365   3.691  16.462 -0.1100  0.0812  0.3282
10526TIP3    H153069   4.313   3.762  16.424  2.7574  2.4938  0.5875
10526TIP3    H253070   4.407   3.650  16.387  1.2801  1.2856  0.4071
10527TIP3   OH253071   3.690   1.858   2.765  0.1035 -0.1495  0.1853
10527TIP3    H153072   3.721   1.880   2.677  1.0835  0.2213  0.6072
10527TIP3    H253073   3.728   1.772   2.784  1.8513  0.7644  1.1174
10528TIP3   OH253074   5.271   6.364   6.300 -0.0800  0.0810 -0.4772
10528TIP3    H153075   5.237   6.357   6.389 -4.4444 -0.7822 -1.9852
10528TIP3    H253076   5.236   6.446   6.267  1.7684  0.5610 -1.3778
10529TIP3   OH253077   4.916   1.209  15.317 -0.4269 -0.2852 -0.0781
10529TIP3    H153078   4.919   1.227  15.412  0.0568  1.1834 -0.3354
10529TIP3    H253079   5.000   1.242  15.285 -0.0272 -1.9961 -0.8453
10530TIP3   OH253080   6.551   2.095  16.667 -0.7257  0.0481 -0.0059
10530TIP3    H153081   6.577   2.108  16.758 -0.8259  0.3697 -0.0248
10530TIP3    H253082   6.546   2.000  16.657 -0.8850  0.0164  0.3712
10531TIP3   OH253083   1.966   1.591   1.216  0.0598  0.0863 -0.1025
10531TIP3    H153084   2.010   1.512   1.185 -1.3076 -0.0094 -1.9845
10531TIP3    H253085   1.887   1.560   1.260 -0.2032  0.3846 -0.3559
10532TIP3   OH253086   3.232   0.232  14.369  0.0349  0.9103 -0.0801
10532TIP3    H153087   3.328   0.233  14.375  0.0958 -1.2207  0.1267
10532TIP3    H253088   3.206   0.157  14.422 -1.4723 -0.8037 -3.0265
10533TIP3   OH253089   0.571   4.069   5.003 -0.4248 -0.2826 -0.1061
10533TIP3    H153090   0.627   4.032   4.934 -0.7109 -1.5480  0.3046
10533TIP3    H253091   0.628   4.131   5.049  0.3104 -0.7356 -0.3780
10534TIP3   OH253092   2.541   1.435   4.986  0.6393  0.5266  0.4459
10534TIP3    H153093   2.499   1.384   4.916  0.9136  1.0322 -0.0958
10534TIP3    H253094   2.508   1.396   5.067  0.6858 -0.3723  0.0375
10535TIP3   OH253095   4.695   4.348   3.008  0.4824  0.5200  0.0414
10535TIP3    H153096   4.730   4.270   2.964 -1.2472 -0.9547  1.1223
10535TIP3    H253097   4.771   4.389   3.048  1.7018  0.4137 -2.0267
10536TIP3   OH253098   1.334   2.269  17.237 -0.1014 -0.1048  0.0431
10536TIP3    H153099   1.369   2.214  17.166  1.0424 -0.8659  1.1601
10536TIP3    H253100   1.341   2.358  17.203  1.7451 -0.3457 -0.2928
10537TIP3   OH253101   1.222   4.761  15.729 -0.1724 -0.6399  0.1596
10537TIP3    H153102   1.291   4.799  15.675 -0.4467 -0.2004  0.1089
10537TIP3    H253103   1.142   4.803  15.698 -0.0950  1.3404  2.3781
10538TIP3   OH253104   0.091   3.577   2.242  0.6593 -0.4882 -0.1146
10538TIP3    H153105   0.171   3.547   2.286 -0.0495 -0.2098  1.4524
10538TIP3    H253106   0.052   3.639   2.304 -0.4959 -0.2073 -1.0875
10539TIP3   OH253107   1.036   1.571   2.179 -0.2590 -0.8327 -0.8410
10539TIP3    H153108   1.067   1.661   2.169  1.0738 -1.1599  0.1466
10539TIP3    H253109   1.098   1.530   2.239 -1.8798 -1.9031  0.1794
10540TIP3   OH253110   4.125   3.886  15.999 -0.1112 -0.5714 -0.1040
10540TIP3    H153111   4.065   3.814  16.018  1.4642 -1.5282  1.5006
10540TIP3    H253112   4.099   3.955  16.060  1.9274 -1.9205  2.4726
10541TIP3   OH253113   2.879   6.536  13.800  0.1188  0.0569 -0.4740
10541TIP3    H153114   2.882   6.542  13.896 -1.2773  0.0664 -0.4202
10541TIP3    H253115   2.883   6.627  13.771  0.7998  0.0429 -0.4492
10542TIP3   OH253116   0.952   5.169   5.211 -0.4115  0.0456 -0.3029
10542TIP3    H153117   0.942   5.081   5.175 -0.3273 -0.2601  0.4161
10542TIP3    H253118   0.864   5.207   5.207 -1.0394 -1.0311  1.8354
10543TIP3   OH253119   6.218   2.378  15.546 -0.6783  0.9349  0.1228
10543TIP3    H153120   6.305   2.365  15.507 -1.2434  1.9037 -1.5747
10543TIP3    H253121   6.192   2.291  15.577  0.4209  0.4081 -0.3721
10544TIP3   OH253122   4.415   3.529   5.226 -0.2334  0.1085 -0.0376
10544TIP3    H153123   4.368   3.481   5.294 -0.1890  0.0713 -0.0330
10544TIP3    H253124   4.493   3.476   5.209  1.4752  1.7287  2.2131
10545TIP3   OH253125   3.444   1.933  12.729  0.6921 -0.5193  0.0065
10545TIP3    H153126   3.482   2.011  12.690 -0.5198 -0.2765 -0.7636
10545TIP3    H253127   3.377   1.905  12.665 -0.3232 -0.9639  1.2253
10546TIP3   OH253128   4.163   0.452   0.532 -0.3681 -0.2424  0.2836
10546TIP3    H153129   4.136   0.360   0.530  0.3504 -0.4868  0.8986
10546TIP3    H253130   4.232   0.454   0.599  2.2281  0.0115 -2.2245
10547TIP3   OH253131   6.621   0.473   1.918  0.2434 -0.4407 -0.0364
10547TIP3    H153132   6.613   0.503   1.827  1.1569  0.7353  0.2517
10547TIP3    H253133   6.662   0.387   1.911 -1.6342 -1.3159 -0.8353
10548TIP3   OH253134   6.441   5.748   0.109 -0.1802  0.7076 -0.1088
10548TIP3    H153135   6.435   5.658   0.141  1.4817  0.5781 -0.0558
10548TIP3    H253136   6.528   5.753   0.070  0.3673  2.7214  1.2374
10549TIP3   OH253137   2.824   0.564  13.027  0.0302  0.2636 -0.3358
10549TIP3    H153138   2.873   0.543  13.106 -0.6411  2.0525  0.6086
10549TIP3    H253139   2.754   0.498  13.024  1.4669 -1.3124 -0.8263
10550TIP3   OH253140   4.234   4.420   0.090 -0.2903 -0.2398 -0.0835
10550TIP3    H153141   4.268   4.489   0.033 -1.4945 -0.5927 -1.2787
10550TIP3    H253142   4.174   4.370   0.035 -2.4823  0.1430  1.7951
10551TIP3   OH253143   2.761   4.452  13.690 -0.6587  0.0810 -0.0371
10551TIP3    H153144   2.702   4.505  13.742  1.4507  1.4663  1.0786
10551TIP3    H253145   2.780   4.375  13.744 -2.5934 -1.2191 -1.0676
10552TIP3   OH253146   0.335   6.742   5.842 -0.9927 -0.8831  0.2621
10552TIP3    H153147   0.353   6.827   5.801  0.1519 -1.4328 -0.4200
10552TIP3    H253148   0.333   6.761   5.935 -1.5996  0.0441  0.0739
10553TIP3   OH253149   6.655   2.155  12.581 -0.4065  0.0840  0.2909
10553TIP3    H153150   6.599   2.195  12.515 -0.3129  0.8352  0.6524
10553TIP3    H253151   6.708   2.092  12.532 -1.5231 -0.6147 -0.0604
10554TIP3   OH253152   2.394   1.709  12.247 -0.0075 -0.1062 -0.1536
10554TIP3    H153153   2.486   1.695  12.224  0.0143 -1.0399  0.4609
10554TIP3    H253154   2.360   1.621  12.267 -0.5479  0.4139  1.3891
10555TIP3   OH253155   5.933   6.052   3.917  0.0209  0.2789 -0.2741
10555TIP3    H153156   5.995   6.060   3.990  1.3937 -1.5238 -1.1526
10555TIP3    H253157   5.862   6.112   3.939  1.3484  1.2863  1.5429
10556TIP3   OH253158   0.912   3.235   3.135 -0.3167 -0.3027 -0.0704
10556TIP3    H153159   0.931   3.328   3.120  1.5297 -0.6167 -0.0053
10556TIP3    H253160   0.839   3.235   3.196 -0.5234  1.1058 -0.2764
10557TIP3   OH253161   4.490   4.952   6.250 -0.1275  0.4926 -0.2630
10557TIP3    H153162   4.562   5.005   6.283  0.3297 -0.6531  0.6351
10557TIP3    H253163   4.411   4.998   6.278  0.2379 -0.2318  2.1570
10558TIP3   OH253164   0.825   4.048   2.664 -0.0678  0.4123 -0.4049
10558TIP3    H153165   0.816   3.972   2.721  0.6653  0.0736 -0.7297
10558TIP3    H253166   0.754   4.039   2.600  0.6450 -0.5601 -1.0721
10559TIP3   OH253167   4.827   3.478  15.453 -0.2315 -0.0635  0.6389
10559TIP3    H153168   4.885   3.549  15.425  1.1530 -1.5419 -0.4500
10559TIP3    H253169   4.879   3.428  15.515 -0.2688 -1.4483 -0.3908
10560TIP3   OH253170   6.712   0.093   6.770 -0.2636 -0.1657  0.3428
10560TIP3    H153171   6.653   0.019   6.756  0.4456 -0.5080 -1.1062
10560TIP3    H253172   6.784   0.057   6.822 -0.2605 -0.3277  0.2272
10561TIP3   OH253173   5.517   0.013   5.114  0.2878 -0.6462  0.3645
10561TIP3    H153174   5.593   0.017   5.172  0.7980 -1.4607 -0.2246
10561TIP3    H253175   5.453  -0.039   5.163 -0.5585  1.4413  1.5709
10562TIP3   OH253176   5.775   2.240   3.752 -0.6572  0.1690  0.6608
10562TIP3    H153177   5.774   2.309   3.818 -1.0825  1.1314 -0.3376
10562TIP3    H253178   5.796   2.161   3.802  1.2532  1.2099  1.6344
10563TIP3   OH253179   0.143   1.562   4.199 -0.1131 -0.2897  0.0035
10563TIP3    H153180   0.239   1.567   4.192 -0.1228 -0.8682 -0.6337
10563TIP3    H253181   0.115   1.653   4.202  0.5094 -0.1159  1.0395
10564TIP3   OH253182   4.480   1.036   0.824 -0.3061 -0.2790 -0.1277
10564TIP3    H153183   4.573   1.024   0.847 -0.6353 -0.8855  0.9888
10564TIP3    H253184   4.481   1.091   0.746  0.9665  0.7936  0.5980
10565TIP3   OH253185   6.315   1.726  11.384  0.0786  0.5472  0.4526
10565TIP3    H153186   6.281   1.801  11.335  0.5540  0.2088 -0.4204
10565TIP3    H253187   6.371   1.765  11.451  0.2710  0.9820  0.0464
10566TIP3   OH253188   4.019   0.811   0.890 -0.3325 -1.0247 -0.0690
10566TIP3    H153189   4.051   0.820   0.800  1.1195 -0.3757  0.4770
10566TIP3    H253190   4.085   0.757   0.934 -0.6512 -0.7289  0.7972
10567TIP3   OH253191   1.761   0.667   4.113  0.0311  0.0784  0.0888
10567TIP3    H153192   1.712   0.685   4.193 -0.1570  0.6009 -0.1392
10567TIP3    H253193   1.834   0.728   4.115  1.4803 -1.5737  1.0814
10568TIP3   OH253194   5.224   4.338   5.106  0.5614 -0.4192  0.2588
10568TIP3    H153195   5.181   4.392   5.173  0.6356  1.0523 -0.8164
10568TIP3    H253196   5.163   4.267   5.090 -0.7947  0.7726 -0.1101
10569TIP3   OH253197   0.801   4.838   2.614  0.1450 -0.5213  0.1709
10569TIP3    H153198   0.813   4.864   2.706  1.7587 -0.7911  0.0784
10569TIP3    H253199   0.707   4.830   2.603 -0.0812 -0.4585  1.8047
10570TIP3   OH253200   3.850   5.977  14.992 -0.4187  0.4475 -0.1365
10570TIP3    H153201   3.914   5.970  15.062 -0.1085 -0.1993 -0.4823
10570TIP3    H253202   3.768   5.948  15.031 -0.3750  0.6815  0.1313
10571TIP3   OH253203   5.032   0.245   4.021 -0.5154 -0.4151 -0.0123
10571TIP3    H153204   5.066   0.162   4.054  0.7161  0.0799  0.0350
10571TIP3    H253205   5.021   0.299   4.099  0.4331  0.0647 -0.1938
10572TIP3   OH253206   0.117   4.615  12.553 -0.2536  0.0767 -0.4764
10572TIP3    H153207   0.087   4.685  12.611  1.0610  0.3780 -0.1349
10572TIP3    H253208   0.170   4.659  12.487 -0.0293 -0.5187 -0.7044
10573TIP3   OH253209   6.749   3.716  14.599  0.0593  0.5153 -0.2972
10573TIP3    H153210   6.683   3.769  14.554 -2.2819 -1.6204  0.3418
10573TIP3    H253211   6.780   3.655  14.532  0.1267  0.4379 -0.1949
10574TIP3   OH253212   1.017   4.274  13.360  0.4556  0.1790  0.2415
10574TIP3    H153213   0.988   4.365  13.347 -0.3150 -0.1924 -0.7243
10574TIP3    H253214   1.067   4.253  13.282  0.2013 -0.3906  0.2280
10575TIP3   OH253215   2.524   5.331  13.034 -0.2235 -0.2343 -0.2573
10575TIP3    H153216   2.435   5.315  13.005 -0.6364  0.5720  0.5109
10575TIP3    H253217   2.577   5.265  12.989 -1.2486 -0.9351 -0.4546
10576TIP3   OH253218   5.687   0.292   4.331  0.3254  0.2541 -0.5232
10576TIP3    H153219   5.665   0.201   4.350  1.2161 -0.2240 -1.6883
10576TIP3    H253220   5.632   0.314   4.255  1.5227  0.0379 -1.4838
10577TIP3   OH253221   5.118   1.129  12.806  0.3801  0.2059 -0.0125
10577TIP3    H153222   5.106   1.075  12.883 -2.0320  0.6680  0.0418
10577TIP3    H253223   5.030   1.134  12.767  1.0140  2.0286 -1.3665
10578TIP3   OH253224   2.620   2.642  16.656 -0.0381 -0.0206  0.4469
10578TIP3    H153225   2.608   2.547  16.655 -2.7345  0.1847  2.4140
10578TIP3    H253226   2.574   2.673  16.578 -0.7811 -0.2447  0.7826
10579TIP3   OH253227   0.090   5.889  17.190 -0.3157 -0.6842  0.4787
10579TIP3    H153228   0.121   5.823  17.128 -0.4447 -1.8469  1.6146
10579TIP3    H253229   0.124   5.861  17.274  0.2222  1.1199  0.9005
10580TIP3   OH253230   4.599   0.920   5.183  0.0235 -0.4631 -0.2302
10580TIP3    H153231   4.661   0.858   5.221  0.2668 -0.0634  0.0424
10580TIP3    H253232   4.513   0.879   5.193  0.3465 -1.5363 -1.6477
10581TIP3   OH253233   3.247   0.469  15.958 -0.1720 -0.1250  0.4318
10581TIP3    H153234   3.329   0.486  16.005  0.5956  0.2327 -0.9706
10581TIP3    H253235   3.227   0.378  15.977  2.3540 -1.2636 -1.7557
10582TIP3   OH253236   1.701   4.021   1.231  0.4963  0.1388 -0.0728
10582TIP3    H153237   1.691   4.049   1.139  0.3322 -0.6028 -0.2868
10582TIP3    H253238   1.649   4.084   1.280 -2.4544 -1.4954 -0.8320
10583TIP3   OH253239   5.233   5.394  11.779  0.4040  0.4269 -0.3471
10583TIP3    H153240   5.143   5.424  11.764 -0.1131 -1.1016 -0.5352
10583TIP3    H253241   5.280   5.472  11.808 -0.6442  1.5665 -1.5801
10584TIP3   OH253242   4.765   0.350   0.969  0.1077 -0.6111  0.2712
10584TIP3    H153243   4.800   0.314   0.888  0.5360  0.2045  0.0796
10584TIP3    H253244   4.693   0.406   0.941  0.5023 -0.0233  0.4099
10585TIP3   OH253245   1.399   5.349  12.474  0.9267  0.0315 -0.3092
10585TIP3    H153246   1.328   5.377  12.417  0.6089  2.5969  1.1956
10585TIP3    H253247   1.357   5.297  12.542  0.3841  1.6193  0.6281
10586TIP3   OH253248   0.813   1.165  10.576  0.7012 -0.4632 -0.4073
10586TIP3    H153249   0.904   1.189  10.591  0.7719  0.2372 -1.8295
10586TIP3    H253250   0.763   1.236  10.617  0.8893  1.3526 -3.0891
10587TIP3   OH253251   0.071   3.139   1.414  0.2831 -0.2045  0.6819
10587TIP3    H153252   0.021   3.062   1.439 -1.1169  0.3502 -0.2676
10587TIP3    H253253   0.023   3.176   1.340  0.8746  1.6177  1.1515
10588TIP3   OH253254   1.906   1.231   0.450  0.0607  0.2778  0.0734
10588TIP3    H153255   1.893   1.235   0.356  0.8424 -1.2593 -0.1444
10588TIP3    H253256   1.891   1.139   0.472 -0.3221  0.6507  1.4943
10589TIP3   OH253257   0.318   0.100   5.307 -0.0239  0.2211 -0.6455
10589TIP3    H153258   0.272   0.094   5.224 -0.8216  1.1958 -0.2897
10589TIP3    H253259   0.281   0.029   5.360  1.0009 -0.8719 -1.3310
10590TIP3   OH253260   6.123   5.381   0.665 -0.5038  0.4692  0.0425
10590TIP3    H153261   6.138   5.301   0.615 -0.5958 -0.0623  0.8492
10590TIP3    H253262   6.157   5.451   0.609  1.1238 -0.2798  0.0308
10591TIP3   OH253263   0.366   5.699   3.025 -0.6532 -0.0552  0.0427
10591TIP3    H153264   0.424   5.625   3.009 -0.9786 -0.3441  0.1740
10591TIP3    H253265   0.327   5.682   3.111 -0.2834  0.5720  0.3399
10592TIP3   OH253266   0.861   6.177   2.217 -0.2296 -0.5824 -0.2691
10592TIP3    H153267   0.793   6.151   2.154 -0.8746 -0.2989  0.2891
10592TIP3    H253268   0.943   6.162   2.171 -0.6081 -2.3759 -0.4300
10593TIP3   OH253269   3.289   1.003  13.231 -0.0700 -0.0819  0.1844
10593TIP3    H153270   3.376   0.993  13.191 -0.7355  1.0003 -1.6670
10593TIP3    H253271   3.303   1.068  13.301  0.5619  0.3731 -0.3420
10594TIP3   OH253272   4.072   4.627   4.443  0.1979  0.0014 -0.2592
10594TIP3    H153273   4.150   4.662   4.485  0.4260  1.0628 -1.4981
10594TIP3    H253274   4.098   4.612   4.352 -1.0190  0.3656 -0.6989
10595TIP3   OH253275   2.438   0.689  15.724  0.1846 -0.3587 -0.2395
10595TIP3    H153276   2.360   0.716  15.677 -0.4239  0.4633  1.1815
10595TIP3    H253277   2.408   0.619  15.782  0.3372  0.3883  0.7703
10596TIP3   OH253278   6.511   2.746   5.178  0.3118 -0.2674 -0.2890
10596TIP3    H153279   6.528   2.782   5.265 -0.9958 -1.5699  0.5355
10596TIP3    H253280   6.520   2.821   5.119 -0.8662  1.1135  1.2085
10597TIP3   OH253281   2.018   5.816  12.065  0.0517  0.0005  0.3121
10597TIP3    H153282   2.077   5.758  12.017 -0.5007  0.1385 -0.5609
10597TIP3    H253283   1.932   5.800  12.026 -0.4540 -0.0178  1.3957
10598TIP3   OH253284   2.873   3.986  16.540 -0.1967 -0.3808  0.3572
10598TIP3    H153285   2.943   4.034  16.497  0.0015  0.6210  1.7432
10598TIP3    H253286   2.799   4.047  16.540 -0.9484 -1.2430 -0.6390
10599TIP3   OH253287   5.275   5.182   0.622  0.0967 -0.4424 -0.4306
10599TIP3    H153288   5.357   5.226   0.645 -1.8229  3.7212 -0.5611
10599TIP3    H253289   5.259   5.205   0.531 -1.9981  0.4345  0.0816
10600TIP3   OH253290   3.275   2.620  13.187  0.2003 -0.2007 -0.7093
10600TIP3    H153291   3.181   2.606  13.199  0.4371 -2.3862 -1.0272
10600TIP3    H253292   3.314   2.533  13.193  1.8039  0.0897 -4.1775
10601TIP3   OH253293   4.394   5.281  12.545 -0.3164  0.5653  0.1912
10601TIP3    H153294   4.408   5.357  12.488  0.9619  0.3347  0.1685
10601TIP3    H253295   4.419   5.206  12.491  1.0586  0.3559  1.0769
10602TIP3   OH253296   0.084   0.705  11.095 -0.0562 -0.3966 -0.3892
10602TIP3    H153297   0.057   0.615  11.076  2.2912 -0.5300 -3.9849
10602TIP3    H253298   0.177   0.699  11.116  0.9380  1.2852 -3.5832
10603TIP3   OH253299   5.706   4.815  16.714 -0.0686 -0.0272  0.2542
10603TIP3    H153300   5.741   4.783  16.797  1.5544  0.3544 -0.2514
10603TIP3    H253301   5.781   4.854  16.669 -0.8428 -0.4433 -1.5010
10604TIP3   OH253302   1.814   5.194  11.680  0.2810  0.3424  0.4628
10604TIP3    H153303   1.782   5.121  11.733 -1.6430  0.3744 -0.5534
10604TIP3    H253304   1.742   5.212  11.619  1.2874  2.1559 -0.2550
10605TIP3   OH253305   0.118   5.241   2.637 -0.0864  0.2041  1.3745
10605TIP3    H153306   0.110   5.146   2.645 -1.2047  0.1961  0.3748
10605TIP3    H253307   0.212   5.257   2.633  0.0968 -0.9201  0.9247
10606TIP3   OH253308   4.481   1.358   0.669  0.5037  0.2270  0.6683
10606TIP3    H153309   4.531   1.280   0.694 -1.7869 -1.6300 -0.1949
10606TIP3    H253310   4.540   1.406   0.611  1.7467 -1.1889  0.6902
10607TIP3   OH253311   3.988   5.800  17.217  0.2484  0.6843  0.8598
10607TIP3    H153312   4.009   5.769  17.305 -0.3051  0.3375  0.8774
10607TIP3    H253313   3.892   5.800  17.215  0.2525 -0.5408 -0.1718
10608TIP3   OH253314   4.266   2.737   1.745 -0.4175 -0.2120 -0.1556
10608TIP3    H153315   4.252   2.651   1.783 -0.8556  0.5889  1.5924
10608TIP3    H253316   4.295   2.792   1.818  0.7678  0.9270 -1.3987
10609TIP3   OH253317   4.232   1.457  16.116 -0.3200 -0.4933 -0.1783
10609TIP3    H153318   4.169   1.463  16.188 -2.2464  0.4225 -1.8234
10609TIP3    H253319   4.284   1.380  16.136 -0.1238  0.2592  2.6508
10610TIP3   OH253320   5.683   3.108   4.559 -0.9086  0.1410  0.3218
10610TIP3    H153321   5.755   3.153   4.516 -0.2763  0.1410  1.3556
10610TIP3    H253322   5.636   3.178   4.606 -0.4149 -0.1390  1.2496
10611TIP3   OH253323   2.964   4.062   3.071  0.0567 -0.5267 -0.4643
10611TIP3    H153324   2.896   3.997   3.091 -0.5287  0.2684  0.2490
10611TIP3    H253325   3.033   4.012   3.029  0.0805 -1.8293  0.9947
10612TIP3   OH253326   4.662   3.771  17.021 -0.1912 -0.2323  0.3307
10612TIP3    H153327   4.686   3.770  16.928  0.1138 -0.7490  0.4104
10612TIP3    H253328   4.742   3.746  17.067  0.2206  1.9349  0.8818
10613TIP3   OH253329   1.133   2.421  15.405 -0.9852 -0.2619 -0.2519
10613TIP3    H153330   1.041   2.430  15.426 -1.5293 -1.3385 -1.9765
10613TIP3    H253331   1.135   2.398  15.312  0.9832 -0.7860 -0.1417
10614TIP3   OH253332   3.804   5.015   5.230  0.1810 -0.3102  0.4609
10614TIP3    H153333   3.845   5.062   5.302  0.1440 -1.0577  0.9799
10614TIP3    H253334   3.815   5.072   5.154  1.2372 -0.0251  0.8171
10615TIP3   OH253335   5.725   6.692  12.998  0.3774  0.1797 -0.3704
10615TIP3    H153336   5.820   6.688  12.995  0.4512  1.0509  0.2798
10615TIP3    H253337   5.704   6.682  13.091 -0.3322 -2.5350 -0.7325
10616TIP3   OH253338   4.869   3.818   1.130  0.3681 -0.4757  0.0281
10616TIP3    H153339   4.885   3.739   1.078  0.1682 -0.4522 -0.0723
10616TIP3    H253340   4.774   3.825   1.134  0.3779  0.2131 -0.6675
10617TIP3   OH253341   1.475   3.059   0.449  0.2204 -0.2569  0.0197
10617TIP3    H153342   1.490   3.068   0.355 -0.0919  2.0003  0.1454
10617TIP3    H253343   1.385   3.089   0.462  0.0750 -1.0601  0.9899
10618TIP3   OH253344   5.379   2.447   0.074 -0.2938  0.3178  0.2411
10618TIP3    H153345   5.427   2.371   0.040 -2.0892 -2.6842  3.6740
10618TIP3    H253346   5.445   2.499   0.119  0.7877  0.1199 -1.0560
10619TIP3   OH253347   6.005   5.509  15.954 -0.5846  0.6025  0.0197
10619TIP3    H153348   5.950   5.571  16.002 -0.3834  0.3576  0.5816
10619TIP3    H253349   5.943   5.461  15.898 -0.7023  1.4803 -0.6143
10620TIP3   OH253350   4.790   3.243   5.834  0.3763 -0.3738 -0.6647
10620TIP3    H153351   4.832   3.256   5.749 -0.5419 -1.1800 -1.2713
10620TIP3    H253352   4.776   3.148   5.839 -1.8296 -0.1005 -0.7447
10621TIP3   OH253353   3.066   1.853   3.556  0.5999 -0.7429 -0.0215
10621TIP3    H153354   3.089   1.881   3.645 -0.1280  1.8857 -0.5529
10621TIP3    H253355   3.150   1.832   3.516  1.3384  1.2750  0.3448
10622TIP3   OH253356   5.238   6.577  13.892  0.0643 -0.6790 -0.2322
10622TIP3    H153357   5.197   6.626  13.820 -2.0151 -0.1149  1.2569
10622TIP3    H253358   5.299   6.518  13.848 -1.4394 -0.6641 -2.5204
10623TIP3   OH253359   0.797   6.163   5.223 -0.2705  0.4423  0.1987
10623TIP3    H153360   0.872   6.221   5.239 -0.3029  0.8424 -1.0258
10623TIP3    H253361   0.833   6.089   5.176 -0.4406  0.0227  0.7180
10624TIP3   OH253362   4.636   4.618  13.766 -0.1438  0.5425  0.5686
10624TIP3    H153363   4.691   4.666  13.828  0.7081  1.2127 -0.6572
10624TIP3    H253364   4.552   4.665  13.767 -0.4263  0.0550  1.7835
10625TIP3   OH253365   1.061   3.073   3.327 -0.0363  0.3125 -0.1237
10625TIP3    H153366   1.123   3.002   3.316 -2.0702 -1.4380 -1.1702
10625TIP3    H253367   1.027   3.090   3.239  0.3619  2.6059  0.0986
10626TIP3   OH253368   0.599   3.460  15.652  0.0682  0.0507  0.2628
10626TIP3    H153369   0.541   3.490  15.722 -0.6819 -2.1984  0.7097
10626TIP3    H253370   0.682   3.442  15.696  0.7468  1.9992 -0.1330
10627TIP3   OH253371   3.118   4.008   1.841  0.4440 -0.4422  0.2958
10627TIP3    H153372   3.154   4.049   1.763 -2.3388 -0.0744 -0.8803
10627TIP3    H253373   3.177   3.935   1.859  0.0303 -1.8501 -3.4160
10628TIP3   OH253374   0.397   5.133  13.207 -0.6497 -0.0378 -0.0167
10628TIP3    H153375   0.318   5.079  13.202 -1.0505  0.5557 -0.2925
10628TIP3    H253376   0.449   5.093  13.276 -1.5210 -0.0263  0.6715
10629TIP3   OH253377   0.849   3.484   2.790 -0.0224 -0.5731  0.4818
10629TIP3    H153378   0.942   3.503   2.803  0.4538 -2.9398  0.8543
10629TIP3    H253379   0.842   3.457   2.698 -0.8667  1.9903 -0.3266
10630TIP3   OH253380   0.045   5.288   4.882  0.1869 -0.1160 -0.4871
10630TIP3    H153381   0.111   5.354   4.860  1.4892 -1.6479 -1.2946
10630TIP3    H253382   0.007   5.319   4.964  3.2095 -0.1165  1.0147
10631TIP3   OH253383   3.342   5.321  13.277  0.4075 -0.5286  0.3509
10631TIP3    H153384   3.415   5.294  13.222  1.3840 -0.5451  1.6146
10631TIP3    H253385   3.320   5.243  13.328  1.5626  0.2539  2.1687
10632TIP3   OH253386   0.945   4.492   0.419  0.2451  0.1990 -0.0909
10632TIP3    H153387   0.879   4.556   0.444 -0.6322 -0.4338 -0.7023
10632TIP3    H253388   0.914   4.409   0.457  0.1027 -0.3165 -1.2788
10633TIP3   OH253389   1.389   4.548   1.454 -0.2050  0.3356 -0.1239
10633TIP3    H153390   1.435   4.540   1.370  1.1055  1.8593  0.3979
10633TIP3    H253391   1.424   4.476   1.507 -0.7360 -0.3849 -0.7211
10634TIP3   OH253392   6.600   4.041   4.264 -0.3735 -0.3837 -0.1828
10634TIP3    H153393   6.656   4.009   4.335 -1.2035  1.3543  1.3301
10634TIP3    H253394   6.546   4.108   4.305 -0.7701  0.8050 -2.5187
10635TIP3   OH253395   3.517   3.676  13.496  0.4504  0.2779  0.1981
10635TIP3    H153396   3.608   3.647  13.490  0.2976 -0.1788  0.0208
10635TIP3    H253397   3.480   3.623  13.567  0.5082  0.9771  0.7624
10636TIP3   OH253398   2.286   1.760  15.265  0.7936 -0.1501 -0.7653
10636TIP3    H153399   2.195   1.739  15.285  0.8834  0.6670  0.6317
10636TIP3    H253400   2.336   1.685  15.299  0.8247  0.5867  0.9257
10637TIP3   OH253401   4.886   3.150   4.586  0.1835  0.1320 -0.1325
10637TIP3    H153402   4.831   3.227   4.566  1.3477  1.4110  1.3444
10637TIP3    H253403   4.825   3.077   4.585 -1.2511  1.2655 -0.1730
10638TIP3   OH253404   5.012   4.257  11.842 -0.8037  0.0416  0.0081
10638TIP3    H153405   4.965   4.286  11.764 -0.4147 -0.6228 -0.4898
10638TIP3    H253406   5.091   4.312  11.844 -2.1301  2.0296  1.5417
10639TIP3   OH253407   0.175   5.904  12.681  0.5027  0.1550  0.7611
10639TIP3    H153408   0.085   5.872  12.674  1.3528 -2.0922 -0.9827
10639TIP3    H253409   0.175   5.987  12.633 -0.6347  0.2211  0.8483
10640TIP3   OH253410   2.017   4.575   3.595 -0.0843 -0.1099 -0.2860
10640TIP3    H153411   1.933   4.576   3.640 -0.1992 -0.5826 -0.4906
10640TIP3    H253412   2.082   4.582   3.666 -0.2945  0.6180 -0.1527
10641TIP3   OH253413   2.518   2.140  16.527 -0.8049 -0.2961 -0.7587
10641TIP3    H153414   2.581   2.088  16.477  2.6812  1.0066  1.8326
10641TIP3    H253415   2.482   2.202  16.463 -1.0696 -2.3874 -2.7588
10642TIP3   OH253416   4.141   3.144   2.964  0.7246  0.8189  0.2960
10642TIP3    H153417   4.164   3.082   3.032 -0.2633 -0.6053 -0.5866
10642TIP3    H253418   4.221   3.194   2.947  2.1355 -1.4472 -0.1925
10643TIP3   OH253419   3.715   1.534   2.590 -0.0135  0.0890 -0.3366
10643TIP3    H153420   3.784   1.585   2.632 -0.1756  0.7265 -0.8283
10643TIP3    H253421   3.732   1.444   2.616 -0.1015  0.4605  1.0821
10644TIP3   OH253422   3.711   0.707  16.942  0.0393 -0.1134  0.1956
10644TIP3    H153423   3.777   0.638  16.937  0.1651  0.0867 -2.3103
10644TIP3    H253424   3.761   0.787  16.954  0.0478 -0.2137  0.8684
10645TIP3   OH253425   6.178   3.381  17.222 -0.1542 -0.0005  0.7890
10645TIP3    H153426   6.126   3.445  17.173 -0.5157 -0.1548  0.9665
10645TIP3    H253427   6.116   3.310  17.242  0.2328 -0.3832  0.6317
10646TIP3   OH253428   0.335   0.144  13.971  0.2743 -0.7432  0.4139
10646TIP3    H153429   0.248   0.136  14.011 -0.1103 -1.5704 -0.5387
10646TIP3    H253430   0.349   0.239  13.965 -0.1572 -0.6041  1.4204
10647TIP3   OH253431   0.601   2.917   3.092 -0.0904  0.6531  0.4812
10647TIP3    H153432   0.605   3.008   3.062 -0.1047  0.0266 -1.5661
10647TIP3    H253433   0.541   2.874   3.030  0.5081 -0.9168  0.9526
10648TIP3   OH253434   0.632   2.606  13.352 -0.1542  0.8662 -0.3587
10648TIP3    H153435   0.620   2.609  13.257  0.8996  0.1104 -0.5343
10648TIP3    H253436   0.647   2.514  13.372 -1.1583  0.8992  0.6614
10649TIP3   OH253437   1.916   5.642   1.157 -0.0431 -0.2190  0.2298
10649TIP3    H153438   1.966   5.576   1.205 -2.8169 -2.2037  0.5870
10649TIP3    H253439   1.856   5.592   1.102 -0.4149  2.0416 -1.5752
10650TIP3   OH253440   1.337   4.447  11.745 -0.1442  0.0596 -0.4461
10650TIP3    H153441   1.317   4.504  11.819 -0.4427 -0.6655  0.0473
10650TIP3    H253442   1.428   4.421  11.758 -0.1509  0.0506 -0.4181
10651TIP3   OH253443   1.835   0.146   2.917 -0.2318  0.8234 -0.4628
10651TIP3    H153444   1.767   0.115   2.977  0.7779  0.5232  0.5832
10651TIP3    H253445   1.789   0.170   2.837 -1.4508 -0.1795 -0.0867
10652TIP3   OH253446   1.719   2.852  14.127  0.1650 -0.0808 -0.2007
10652TIP3    H153447   1.806   2.857  14.167  0.4944  0.2324 -0.9160
10652TIP3    H253448   1.736   2.826  14.036 -0.5549 -0.7590 -0.1562
10653TIP3   OH253449   5.709   4.609  15.960 -0.0054 -0.1817 -0.0799
10653TIP3    H153450   5.647   4.681  15.961 -0.0318 -0.2002  1.5771
10653TIP3    H253451   5.793   4.650  15.942  0.0947  0.3954  1.5588
10654TIP3   OH253452   2.293   2.906   2.560  0.4600 -0.0657 -0.2509
10654TIP3    H153453   2.252   2.990   2.539  0.0808 -0.2636 -0.3146
10654TIP3    H253454   2.376   2.907   2.512 -0.2696 -0.3953 -1.5688
10655TIP3   OH253455   5.976   6.084   0.637 -0.2700  0.5378 -0.1474
10655TIP3    H153456   6.015   6.088   0.550  0.2553 -1.5440 -0.0632
10655TIP3    H253457   6.043   6.043   0.692 -1.6855 -1.0163  0.5132
10656TIP3   OH253458   3.501   2.483   4.189 -0.7605 -0.3181 -0.5636
10656TIP3    H153459   3.457   2.551   4.138 -1.9090 -0.9985 -0.5129
10656TIP3    H253460   3.503   2.407   4.130  0.7667 -0.1941 -0.7284
10657TIP3   OH253461   5.820   6.033  15.243  0.2551 -0.5995  0.0114
10657TIP3    H153462   5.811   5.943  15.213  0.6852 -0.5389 -0.3125
10657TIP3    H253463   5.876   6.027  15.321  0.8382 -0.5473 -0.3982
10658TIP3   OH253464   2.316   2.926  14.337 -0.0036 -0.1519  0.4770
10658TIP3    H153465   2.308   2.974  14.254  0.6826 -1.7160 -0.5628
10658TIP3    H253466   2.407   2.940  14.363 -0.5245  1.2814  1.6138
10659TIP3   OH253467   1.235   1.476  13.971  0.5276  0.2215  0.2840
10659TIP3    H153468   1.229   1.409  14.039 -0.5186 -0.5476 -0.5314
10659TIP3    H253469   1.148   1.516  13.969  0.2374 -0.4201 -1.2137
10660TIP3   OH253470   4.033   5.199  12.219 -0.8706 -0.2419 -0.5119
10660TIP3    H153471   4.071   5.263  12.280 -0.8503  0.0735 -0.8528
10660TIP3    H253472   4.109   5.156  12.179 -0.8641  0.3469 -1.1494
10661TIP3   OH253473   5.892   1.882   2.293 -0.4314  0.3359  0.1928
10661TIP3    H153474   5.902   1.787   2.284  1.9629 -0.0425  4.1929
10661TIP3    H253475   5.808   1.892   2.338 -1.5966  0.3512 -1.9020
10662TIP3   OH253476   2.081   5.344  15.999 -0.4300  0.1345  0.3970
10662TIP3    H153477   2.104   5.430  15.963 -0.8829  0.2060  0.2669
10662TIP3    H253478   1.992   5.356  16.033 -1.6116 -0.9768 -2.0305
10663TIP3   OH253479   4.213   3.536   3.780 -0.5171 -1.1240 -0.2580
10663TIP3    H153480   4.271   3.564   3.851  1.3845 -5.4859  0.1930
10663TIP3    H253481   4.248   3.581   3.703 -0.1847  0.6895  0.8711
10664TIP3   OH253482   2.495   2.265  13.278 -0.7449 -0.0832 -0.3389
10664TIP3    H153483   2.512   2.317  13.199  1.1638 -0.9669 -0.5600
10664TIP3    H253484   2.576   2.271  13.328 -0.5252 -2.6718 -0.2974
10665TIP3   OH253485   1.220   6.708   5.277 -0.2731  0.1399  0.1116
10665TIP3    H153486   1.126   6.724   5.291 -0.3566  1.2710 -1.4892
10665TIP3    H253487   1.257   6.794   5.261  1.4608 -0.0414  2.5953
10666TIP3   OH253488   4.458   0.163  16.483  0.7167 -0.1446 -0.5289
10666TIP3    H153489   4.369   0.183  16.455  0.2039 -0.3941  0.8423
10666TIP3    H253490   4.465   0.068  16.471 -0.0580 -0.5212  1.5460
10667TIP3   OH253491   5.197   2.034   2.248  0.4334 -0.1318  0.2139
10667TIP3    H153492   5.108   2.007   2.269 -0.0011 -0.8116 -2.2632
10667TIP3    H253493   5.193   2.130   2.242  0.5435  0.1085  2.6644
10668TIP3   OH253494   2.428   4.744  14.426  0.4408 -0.8176  0.5293
10668TIP3    H153495   2.478   4.751  14.344  0.9803 -0.5417  0.8740
10668TIP3    H253496   2.437   4.831  14.466 -0.6827 -0.6294  0.3978
10669TIP3   OH253497   2.112   1.583  12.050  0.0366  0.2682 -0.3886
10669TIP3    H153498   2.057   1.515  12.012 -1.6768  2.0299 -1.2129
10669TIP3    H253499   2.189   1.536  12.082 -1.6275 -2.2265  0.2664
10670TIP3   OH253500   2.221   0.289  10.923 -0.8818 -0.0920 -0.6168
10670TIP3    H153501   2.314   0.267  10.916  0.0177  2.6923  0.9352
10670TIP3    H253502   2.202   0.281  11.016 -2.1376 -0.3962 -0.8903
10671TIP3   OH253503   5.952   6.208  15.054 -0.9158  0.7001  0.0882
10671TIP3    H153504   5.977   6.291  15.095 -1.1120  0.3289  0.9934
10671TIP3    H253505   5.904   6.161  15.123 -1.1724  0.0123 -0.5463
10672TIP3   OH253506   6.124   2.312   5.145 -0.6039 -0.1245 -0.0215
10672TIP3    H153507   6.076   2.380   5.097 -0.4518  0.4774  0.6582
10672TIP3    H253508   6.202   2.356   5.178 -0.3822 -0.6926  0.2279
10673TIP3   OH253509   0.588   5.636  14.885  0.2680  0.2172 -0.1892
10673TIP3    H153510   0.625   5.683  14.960 -0.1421  0.0005  0.1543
10673TIP3    H253511   0.658   5.577  14.856  0.8555  1.1663 -0.7480
10674TIP3   OH253512   1.198   1.426  12.621 -0.0262  1.0766  0.1317
10674TIP3    H153513   1.223   1.420  12.713 -2.8082 -1.5886  0.8707
10674TIP3    H253514   1.242   1.351  12.579  0.4760  1.7348 -0.5593
10675TIP3   OH253515   5.523   1.197  16.698 -0.0106 -0.0452 -0.6760
10675TIP3    H153516   5.517   1.165  16.788  1.3581  0.3570 -0.4166
10675TIP3    H253517   5.441   1.168  16.656 -2.0130  2.1169  1.4154
10676TIP3   OH253518   0.156   6.776   6.797  0.3768 -0.6085 -0.0209
10676TIP3    H153519   0.156   6.704   6.734  0.1624 -0.2643 -0.4227
10676TIP3    H253520   0.243   6.773   6.837  1.4272  0.6371 -2.0400
10677TIP3   OH253521   0.050   4.556   4.670 -0.3806  0.1593 -0.0013
10677TIP3    H153522   0.013   4.503   4.599 -0.3183 -0.2214  0.2478
10677TIP3    H253523   0.141   4.527   4.677  0.1777  1.5720 -1.0669
10678TIP3   OH253524   4.839   5.369   2.647 -0.4823  0.1923  0.0431
10678TIP3    H153525   4.923   5.413   2.638 -0.5909  0.2427 -0.8837
10678TIP3    H253526   4.774   5.436   2.627 -0.7508  0.1713  0.8211
10679TIP3   OH253527   3.657   2.015  13.751 -0.1434  0.0983  0.2977
10679TIP3    H153528   3.662   2.032  13.845  0.6294 -0.1620  0.3073
10679TIP3    H253529   3.569   1.979  13.738 -0.8586  1.6298  0.6632
10680TIP3   OH253530   4.331   3.803   5.616 -0.1477  0.0732 -0.0568
10680TIP3    H153531   4.373   3.841   5.694  1.8363 -0.8242 -0.6297
10680TIP3    H253532   4.361   3.712   5.615 -0.6177 -0.0824 -1.5670
10681TIP3   OH253533   6.593   1.671   1.556 -0.2326 -0.0850 -0.0103
10681TIP3    H153534   6.581   1.759   1.520  0.3184 -0.3661 -0.9131
10681TIP3    H253535   6.674   1.640   1.516 -0.0331 -0.7274  0.8701
10682TIP3   OH253536   0.962   2.877   4.998 -0.1031 -0.9914  0.3009
10682TIP3    H153537   0.916   2.921   4.927  0.5990 -1.3763 -0.4042
10682TIP3    H253538   0.897   2.817   5.035 -0.0499 -1.8546 -0.9691
10683TIP3   OH253539   1.833   2.269   3.482  0.4569  0.4201  0.8625
10683TIP3    H153540   1.894   2.330   3.440  2.2437 -0.9037  1.3839
10683TIP3    H253541   1.749   2.315   3.481  1.0313  1.6008 -1.5246
10684TIP3   OH253542   3.058   1.869   6.310 -0.1330 -0.1591 -0.4623
10684TIP3    H153543   3.034   1.797   6.252  0.9035 -1.4271  0.6142
10684TIP3    H253544   2.978   1.921   6.318 -1.0166 -1.3891 -0.9806
10685TIP3   OH253545   0.601   0.709   5.841  0.2106  0.8448  0.0851
10685TIP3    H153546   0.523   0.669   5.803  0.5132 -0.1403  0.4843
10685TIP3    H253547   0.644   0.639   5.890  0.7508  1.6507  0.8116
10686TIP3   OH253548   6.212   5.066  16.653  0.1249  0.0726 -0.1663
10686TIP3    H153549   6.119   5.049  16.665 -0.2463  1.8408 -0.3634
10686TIP3    H253550   6.219   5.109  16.568  0.8000  2.1561  0.8848
10687TIP3   OH253551   4.964   6.121  12.267 -0.1921 -0.2223  0.0168
10687TIP3    H153552   4.892   6.060  12.283 -0.8982  0.9037  1.3785
10687TIP3    H253553   5.042   6.067  12.269 -0.5609 -0.8422  3.6520
10688TIP3   OH253554   5.924   0.097   0.071 -0.2993  0.2495 -0.2221
10688TIP3    H153555   5.971   0.122   0.151  0.8081 -2.1607  0.0040
10688TIP3    H253556   5.994   0.073   0.010 -1.1509 -1.8467 -0.4468
10689TIP3   OH253557   0.196   1.399  14.832  0.6246  0.4588  0.1947
10689TIP3    H153558   0.111   1.439  14.817  0.7301  0.7250  0.3087
10689TIP3    H253559   0.259   1.471  14.825  0.8779  0.1977 -0.2826
10690TIP3   OH253560   5.026   2.054  16.422 -0.8314 -0.9053 -0.2884
10690TIP3    H153561   5.028   2.143  16.456 -1.9274 -0.4632 -1.3275
10690TIP3    H253562   5.020   1.999  16.500  0.5044 -0.1275  0.4000
10691TIP3   OH253563   4.155   5.803  10.737  0.3193  0.4589 -0.1086
10691TIP3    H153564   4.114   5.889  10.741  0.5367  0.5450  0.2823
10691TIP3    H253565   4.086   5.742  10.762  0.0393  0.4759 -0.8186
10692TIP3   OH253566   3.269   1.940  16.068  0.1391 -0.5873 -0.5969
10692TIP3    H153567   3.285   1.982  16.152 -0.7459 -0.4578 -0.4780
10692TIP3    H253568   3.354   1.906  16.040  0.2115 -1.7756  0.9558
10693TIP3   OH253569   2.552   6.464   4.275  0.1241  0.4339 -0.2494
10693TIP3    H153570   2.580   6.541   4.324  0.9288 -0.1162  0.1881
10693TIP3    H253571   2.619   6.399   4.294 -0.2213 -0.1828 -1.0977
10694TIP3   OH253572   5.971   3.146   6.619  0.2520  0.4747 -0.1394
10694TIP3    H153573   5.885   3.106   6.636  0.4966 -0.3303 -0.7074
10694TIP3    H253574   5.988   3.199   6.696 -0.5047  0.1881  0.2424
10695TIP3   OH253575   4.469   0.980   2.108  0.2566  0.0178  0.3645
10695TIP3    H153576   4.421   1.061   2.092  2.1877  1.7970  2.6587
10695TIP3    H253577   4.401   0.914   2.124 -1.4077  1.6576  0.3584
10696TIP3   OH253578   6.115   4.535  12.766  0.0328 -0.2586  0.4387
10696TIP3    H153579   6.163   4.617  12.755 -1.5404  0.4980 -1.1296
10696TIP3    H253580   6.030   4.550  12.725  0.6933 -3.5824 -2.6606
10697TIP3   OH253581   4.776   0.334  13.401  0.5835  0.0705 -0.2572
10697TIP3    H153582   4.847   0.395  13.419  1.4264 -0.9948  0.0776
10697TIP3    H253583   4.810   0.248  13.426 -1.7128 -0.1905  2.4965
10698TIP3   OH253584   3.350   3.716   2.773  0.1766  0.0290 -0.0684
10698TIP3    H153585   3.399   3.680   2.699  1.9108 -0.0649  1.0724
10698TIP3    H253586   3.291   3.646   2.800  0.7155 -0.5352 -0.3446
10699TIP3   OH253587   2.721   2.312   0.231 -0.5073  0.4749 -0.0755
10699TIP3    H153588   2.645   2.297   0.288 -0.4860 -0.2223 -0.2212
10699TIP3    H253589   2.697   2.388   0.179 -1.0344  0.3736  0.0094
10700TIP3   OH253590   4.722   5.830   3.784 -0.1372 -0.9839  0.1210
10700TIP3    H153591   4.760   5.893   3.723 -0.6898 -0.4436  0.3198
10700TIP3    H253592   4.628   5.834   3.766 -0.3075 -0.8056  1.0057
10701TIP3   OH253593   2.459   1.371  14.452  0.6044 -0.6528 -0.4821
10701TIP3    H153594   2.428   1.460  14.437  1.4147  0.0523  1.6221
10701TIP3    H253595   2.522   1.356  14.382  0.8247  0.6317 -0.5868
10702TIP3   OH253596   1.140   1.685  12.532  0.0726 -0.3579 -0.0742
10702TIP3    H153597   1.090   1.669  12.452  1.1095 -3.9845 -0.1702
10702TIP3    H253598   1.164   1.598  12.564  2.6850  1.0411  2.2871
10703TIP3   OH253599   6.713   4.474  15.532 -0.1172  0.1355 -0.1298
10703TIP3    H153600   6.803   4.493  15.557  0.0107  0.0465 -0.5201
10703TIP3    H253601   6.710   4.490  15.438 -0.1520 -1.1777 -0.3677
10704TIP3   OH253602   5.931   2.381   2.817 -0.5074  0.4747  0.8957
10704TIP3    H153603   6.006   2.322   2.818  1.4168  2.6210 -1.2747
10704TIP3    H253604   5.897   2.375   2.728 -0.5451  2.1887  0.7499
10705TIP3   OH253605   2.166   5.536  14.614  0.0155 -0.2066 -0.0731
10705TIP3    H153606   2.242   5.590  14.636  0.6104 -0.6803 -0.9002
10705TIP3    H253607   2.194   5.446  14.633 -0.5618 -0.3317  0.2142
10706TIP3   OH253608   1.655   2.674   6.055  0.4920 -0.6026  1.0180
10706TIP3    H153609   1.588   2.706   5.994  0.2009  0.4883  1.8725
10706TIP3    H253610   1.738   2.700   6.015  0.3757 -1.1131  0.4258
10707TIP3   OH253611   5.649   2.393   6.061  0.1157  0.1291 -0.4134
10707TIP3    H153612   5.572   2.368   6.009 -0.5647  1.6687 -0.2084
10707TIP3    H253613   5.714   2.325   6.041 -1.0147 -0.7800 -1.2074
10708TIP3   OH253614   3.085   2.959   0.804 -0.6063  0.0079  0.4000
10708TIP3    H153615   2.999   2.959   0.845 -1.9142 -0.9016 -2.1305
10708TIP3    H253616   3.127   3.039   0.836 -2.8246  1.0844  0.8148
10709TIP3   OH253617   3.237   2.505  17.068  0.1902 -0.0629  0.6558
10709TIP3    H153618   3.191   2.533  17.147 -0.4942 -1.1038  0.6414
10709TIP3    H253619   3.315   2.459  17.100  1.1343  1.4671  0.6823
10710TIP3   OH253620   1.616   6.692   3.413  0.0846  0.5258  0.2021
10710TIP3    H153621   1.673   6.616   3.425 -1.3465 -0.5857  0.1321
10710TIP3    H253622   1.670   6.767   3.440  1.2354 -0.5848  1.0619
10711TIP3   OH253623   4.167   3.025  12.519  0.2996  0.7910  0.3992
10711TIP3    H153624   4.203   3.072  12.444  1.1672  0.9355  0.8864
10711TIP3    H253625   4.072   3.038  12.513  0.4653  2.0020  0.1258
10712TIP3   OH253626   0.882   0.482   1.620 -0.5459 -0.8317 -0.4284
10712TIP3    H153627   0.935   0.406   1.597  0.7173  0.2478 -1.3276
10712TIP3    H253628   0.827   0.453   1.693  3.8348 -1.1551  3.2137
10713TIP3   OH253629   3.822   3.098  11.603  0.2886  0.1482  0.7326
10713TIP3    H153630   3.875   3.056  11.535 -0.3702  0.3588  0.0742
10713TIP3    H253631   3.785   3.175  11.560 -0.6397 -0.0596  1.1468
10714TIP3   OH253632   0.078   1.641  14.492  0.0326  0.1178  0.3541
10714TIP3    H153633   0.049   1.730  14.513  0.6397  0.1512  1.1357
10714TIP3    H253634   0.030   1.585  14.553 -0.3569 -0.0952 -0.1449
10715TIP3   OH253635   1.390   1.473  15.808  0.0110  0.3615  0.2267
10715TIP3    H153636   1.327   1.545  15.817 -0.0299  0.3115  0.3472
10715TIP3    H253637   1.336   1.397  15.788  0.1875  0.6834 -1.6068
10716TIP3   OH253638   6.516   5.703  16.945 -0.0769 -0.3760 -0.1516
10716TIP3    H153639   6.554   5.736  17.027 -0.0146 -2.5375  0.7434
10716TIP3    H253640   6.498   5.782  16.894 -1.1334  1.1240  2.3570
10717TIP3   OH253641   2.147   3.536  14.692  0.1827 -0.1415 -0.3497
10717TIP3    H153642   2.218   3.472  14.687  0.8440  0.6657 -1.6784
10717TIP3    H253643   2.095   3.507  14.767  2.1107 -0.5410  0.9226
10718TIP3   OH253644   1.460   2.906  15.275 -0.1209 -0.3841  0.4479
10718TIP3    H153645   1.480   2.867  15.360  1.8439 -0.4012  0.0381
10718TIP3    H253646   1.383   2.860  15.244 -2.4297  1.2595  3.2374
10719TIP3   OH253647   5.667   0.416  13.058 -0.4416  0.5207 -0.3485
10719TIP3    H153648   5.727   0.343  13.041 -0.7700  0.2318 -0.2809
10719TIP3    H253649   5.630   0.397  13.144 -0.6378  0.6924 -0.3944
10720TIP3   OH253650   6.771   2.470  15.293  0.5159  0.4769  0.0791
10720TIP3    H153651   6.772   2.409  15.366  3.4693 -0.0231 -0.2530
10720TIP3    H253652   6.767   2.415  15.215 -2.9938  1.0130 -0.2671
10721TIP3   OH253653   1.812   4.872  10.435 -0.4783  0.2695 -0.4822
10721TIP3    H153654   1.901   4.872  10.398 -0.0616  0.2688  0.4860
10721TIP3    H253655   1.791   4.965  10.445 -0.3276  0.2694 -0.1337
10722TIP3   OH253656   5.123   6.756   1.652  0.5854 -0.2813  0.4049
10722TIP3    H153657   5.187   6.703   1.699  2.1323  0.6372 -0.5773
10722TIP3    H253658   5.133   6.729   1.561 -0.2486  0.0858  0.1994
10723TIP3   OH253659   2.412   6.072   6.549  0.5393  0.4184 -0.0403
10723TIP3    H153660   2.463   6.138   6.596  1.1995 -0.1203  0.0128
10723TIP3    H253661   2.323   6.108   6.546  1.4632  2.9323 -2.9207
10724TIP3   OH253662   3.969   5.764  11.725 -0.2669 -0.5349 -0.3342
10724TIP3    H153663   3.890   5.811  11.754  0.2443  0.0828  0.0831
10724TIP3    H253664   3.935   5.690  11.674 -1.1001  0.0565 -0.6701
10725TIP3   OH253665   0.666   1.019   3.343 -0.0275  0.3950  1.0405
10725TIP3    H153666   0.628   1.096   3.386  0.4446 -1.3893  5.0795
10725TIP3    H253667   0.761   1.032   3.350  0.0589 -0.1548  0.9169
10726TIP3   OH253668   6.613   4.136  16.562  0.3452 -0.0829  0.8877
10726TIP3    H153669   6.536   4.080  16.565  0.7402 -0.6397  0.6781
10726TIP3    H253670   6.579   4.224  16.579 -0.4608 -0.1967 -0.0741
10727TIP3   OH253671   0.391   1.867  15.025 -0.3607  0.1959 -0.1648
10727TIP3    H153672   0.476   1.903  15.049  0.2226 -0.8008 -0.6676
10727TIP3    H253673   0.355   1.833  15.106  0.0065  0.0561 -0.0569
10728TIP3   OH253674   5.827   0.676  15.779  0.3635 -0.5453 -0.7738
10728TIP3    H153675   5.890   0.744  15.803  1.5583 -1.3589 -1.5170
10728TIP3    H253676   5.809   0.630  15.861 -1.2995  1.2810 -0.0209
10729TIP3   OH253677   3.972   0.480   3.397  0.0867  0.8142 -0.4171
10729TIP3    H153678   3.983   0.572   3.420 -0.0268  0.6035  0.4907
10729TIP3    H253679   4.061   0.448   3.382  0.3463  0.4604  1.6806
10730TIP3   OH253680   4.745   2.756  13.599 -0.9552  0.3957  0.2001
10730TIP3    H153681   4.756   2.747  13.505 -2.1769  1.5297 -0.0754
10730TIP3    H253682   4.835   2.753  13.634 -0.4778  0.1892 -0.9976
10731TIP3   OH253683   0.203   5.917   3.665  0.1224 -0.0838 -0.1857
10731TIP3    H153684   0.288   5.927   3.708  0.1381 -2.2092  0.3941
10731TIP3    H253685   0.140   5.954   3.726  0.3905 -0.9880  0.6730
10732TIP3   OH253686   4.395   4.497   2.605 -0.1433  0.0890 -0.3700
10732TIP3    H153687   4.370   4.573   2.552 -2.5735 -0.1568  0.2872
10732TIP3    H253688   4.349   4.510   2.688  2.9980  0.1200  1.5216
10733TIP3   OH253689   0.096   5.412  11.232  0.0413  0.1811  0.3357
10733TIP3    H153690   0.007   5.378  11.234  0.1810 -0.2394 -0.2834
10733TIP3    H253691   0.085   5.507  11.223 -0.3407  0.0774 -0.3342
10734TIP3   OH253692   6.179   1.693   5.662 -0.4784 -0.3340  0.2400
10734TIP3    H153693   6.159   1.605   5.694 -0.1351 -0.5356 -0.0895
10734TIP3    H253694   6.105   1.746   5.690 -0.9494 -0.8394 -0.0342
10735TIP3   OH253695   3.532   2.089   2.751  0.6866  0.1516  0.0169
10735TIP3    H153696   3.454   2.061   2.799  0.7232  1.3106  0.7993
10735TIP3    H253697   3.590   2.013   2.752 -0.1918 -0.5306 -0.0606
10736TIP3   OH253698   5.233   5.813   4.966  0.7040  0.2188  0.5226
10736TIP3    H153699   5.259   5.905   4.962  3.8968 -0.5977  0.3287
10736TIP3    H253700   5.298   5.767   4.914 -0.1493 -2.3132  1.5467
10737TIP3   OH253701   3.290   0.827  16.127 -0.4644 -0.0128 -0.5025
10737TIP3    H153702   3.220   0.795  16.070  0.6294 -1.1494 -1.2602
10737TIP3    H253703   3.370   0.815  16.076  0.5929 -1.2950  1.3423
10738TIP3   OH253704   3.524   6.106  13.486  0.5757 -0.1685  0.5476
10738TIP3    H153705   3.430   6.122  13.492  0.7090  0.6351  0.5836
10738TIP3    H253706   3.533   6.040  13.418  0.0969  0.8137 -0.4896
10739TIP3   OH253707   4.289   3.199  15.966 -0.4722  0.6598  0.0159
10739TIP3    H153708   4.251   3.118  16.000 -2.3334  0.5783 -2.0776
10739TIP3    H253709   4.359   3.170  15.908 -0.8655  0.5446 -0.4086
10740TIP3   OH253710   4.717   4.535   1.342 -0.1098 -0.2046  0.1373
10740TIP3    H153711   4.756   4.599   1.283 -2.5831  0.0387 -1.3388
10740TIP3    H253712   4.644   4.498   1.293 -1.7330 -0.6499  2.7176
10741TIP3   OH253713   5.806   2.157   6.087 -0.4104 -0.0077 -0.3459
10741TIP3    H153714   5.782   2.088   6.148  0.6180  0.6819  0.8959
10741TIP3    H253715   5.902   2.162   6.092 -0.2749 -0.0047 -2.1244
10742TIP3   OH253716   3.711   4.710   0.380  0.5263  0.3586  0.1761
10742TIP3    H153717   3.652   4.644   0.344 -0.7796  0.7621  1.4704
10742TIP3    H253718   3.676   4.793   0.347 -0.3604  0.6875  1.8511
10743TIP3   OH253719   6.038   6.674  12.539 -0.4709 -0.5281  0.0316
10743TIP3    H153720   5.950   6.637  12.527 -0.5081 -0.2324 -0.6736
10743TIP3    H253721   6.065   6.701  12.451 -0.2653  0.7226  0.4500
10744TIP3   OH253722   3.693   4.032   2.404 -0.1464 -0.3103  0.1375
10744TIP3    H153723   3.602   4.045   2.375 -0.2642  0.1524  0.6891
10744TIP3    H253724   3.713   3.941   2.381 -0.5446 -0.2385 -0.5345
10745TIP3   OH253725   6.148   3.453  14.308  0.0301  0.2591 -0.2366
10745TIP3    H153726   6.217   3.395  14.277  1.0760  0.7346  1.0825
10745TIP3    H253727   6.180   3.541  14.287 -0.0829  0.4901  0.5163
10746TIP3   OH253728   3.359   2.782  15.520 -0.5151 -0.3559 -0.1574
10746TIP3    H153729   3.279   2.768  15.469 -1.5589  1.4614  0.8748
10746TIP3    H253730   3.334   2.760  15.609  0.2940 -0.2477  0.1025
10747TIP3   OH253731   1.894   6.661  14.621  0.6004 -0.2750  0.1989
10747TIP3    H153732   1.825   6.696  14.677 -0.6105  0.1889 -1.5018
10747TIP3    H253733   1.876   6.567  14.617 -0.4158 -0.0545 -0.8269
10748TIP3   OH253734   4.907   6.295  11.410  0.0022  0.3817 -0.3107
10748TIP3    H153735   4.928   6.366  11.350 -1.4839  1.7151  0.6707
10748TIP3    H253736   4.872   6.226  11.354 -0.6309  1.2936 -1.0675
10749TIP3   OH253737   5.255   2.694   4.246  0.1310 -0.0672 -0.0337
10749TIP3    H153738   5.244   2.605   4.214 -1.9831  0.3590 -0.6526
10749TIP3    H253739   5.349   2.702   4.264  0.6252 -1.8732 -1.5211
10750TIP3   OH253740   5.976   4.286   1.966  0.6166  0.2965  0.5196
10750TIP3    H153741   5.929   4.369   1.956 -1.2806 -0.9054 -1.5310
10750TIP3    H253742   5.991   4.256   1.876 -1.6116 -3.0061  1.0678
10751TIP3   OH253743   2.354   0.616  17.168 -0.4082  0.0608 -0.8395
10751TIP3    H153744   2.395   0.570  17.094 -1.2385 -0.4649 -0.9891
10751TIP3    H253745   2.427   0.656  17.215  0.1934 -0.1273 -1.5862
10752TIP3   OH253746   5.992   6.699  14.380  0.1865  0.7695  0.5575
10752TIP3    H153747   6.018   6.750  14.457 -0.3565  1.5657  0.2341
10752TIP3    H253748   6.070   6.651  14.355  1.2648  2.7901 -0.1659
10753TIP3   OH253749   6.093   4.849  17.111  0.4601 -0.1136  0.5696
10753TIP3    H153750   6.025   4.881  17.170  1.6027 -0.2585  2.0214
10753TIP3    H253751   6.166   4.910  17.124  0.4573  0.3547 -1.3442
10754TIP3   OH253752   0.661   5.760  10.763 -0.0468 -0.2003  0.2393
10754TIP3    H153753   0.756   5.762  10.768  0.0058 -1.6785  0.3015
10754TIP3    H253754   0.636   5.687  10.819 -1.3815  1.5643  2.1006
10755TIP3   OH253755   2.967   4.219   1.359  0.5542 -0.3811  0.2725
10755TIP3    H153756   3.041   4.276   1.337 -0.0773  0.8291  1.1673
10755TIP3    H253757   2.986   4.137   1.314  1.7668  0.3495 -0.6136
10756TIP3   OH253758   2.710   1.831   1.226 -0.1753 -0.2748 -0.0080
10756TIP3    H153759   2.691   1.919   1.259  0.2331 -0.0627 -0.3303
10756TIP3    H253760   2.796   1.839   1.186  0.2236 -1.0188  0.6873
10757TIP3   OH253761   1.959   4.550  14.571 -0.2786  0.3845  0.0002
10757TIP3    H153762   1.940   4.635  14.608 -0.2464  0.3393  0.1190
10757TIP3    H253763   2.028   4.566  14.506 -0.2184  0.4363  0.0777
10758TIP3   OH253764   3.307   6.605  10.904  0.0122  0.1928 -0.7628
10758TIP3    H153765   3.285   6.634  10.992 -0.1772 -2.2201  0.0746
10758TIP3    H253766   3.394   6.641  10.888 -0.1501  1.0649  0.2196
10759TIP3   OH253767   3.647   5.449  15.745  0.1681  0.3214 -0.4828
10759TIP3    H153768   3.600   5.401  15.813  1.3131 -0.3345 -0.1190
10759TIP3    H253769   3.653   5.388  15.672 -0.2539  0.6980 -0.8387
10760TIP3   OH253770   2.217   3.192   2.726  1.0127 -0.3059  0.2691
10760TIP3    H153771   2.286   3.202   2.792  0.4885  1.3770  0.6191
10760TIP3    H253772   2.264   3.171   2.645  2.0428  1.4850  0.3456
10761TIP3   OH253773   0.127   6.087  14.912 -0.6373  0.0302  0.0168
10761TIP3    H153774   0.034   6.083  14.933 -0.6229 -0.4213  0.0053
10761TIP3    H253775   0.135   6.165  14.856 -0.9073  0.4068  0.4902
10762TIP3   OH253776   5.704   6.125   0.926  0.0103  0.1757 -0.5697
10762TIP3    H153777   5.614   6.158   0.923 -0.6000 -1.3237 -0.0637
10762TIP3    H253778   5.706   6.070   1.004  1.2900 -0.0305 -0.7337
10763TIP3   OH253779   3.928   2.057  17.152 -0.7400  0.3349 -0.5515
10763TIP3    H153780   3.982   2.009  17.089 -3.4096 -1.6177 -1.5385
10763TIP3    H253781   3.959   2.147  17.147  3.2032 -0.8124 -0.0667
10764TIP3   OH253782   5.265   0.063  13.049 -0.7069 -0.4746 -0.1994
10764TIP3    H153783   5.194   0.075  12.985  0.4199 -0.5764 -1.5131
10764TIP3    H253784   5.302   0.151  13.059 -1.0709 -0.4063  0.5439
10765TIP3   OH253785   5.793   3.018   4.177  0.4195 -0.2114 -1.0386
10765TIP3    H153786   5.747   2.976   4.249 -0.4535  0.8848 -0.9175
10765TIP3    H253787   5.885   3.015   4.202  0.2159 -0.6348 -0.3078
10766TIP3   OH253788   3.575   2.401  12.989 -0.3593 -0.7159  0.3121
10766TIP3    H153789   3.640   2.330  12.990 -0.1745 -0.5685 -0.5401
10766TIP3    H253790   3.518   2.382  13.063  0.4503 -1.0463  0.8652
10767TIP3   OH253791   5.347   6.339  12.515 -0.3962 -0.1872  0.6563
10767TIP3    H153792   5.316   6.404  12.578 -0.5797 -0.0849  0.4585
10767TIP3    H253793   5.288   6.348  12.440 -0.5672 -0.7396  0.7239
10768TIP3   OH253794   1.450   3.638   4.726  0.4723  0.5504  0.2619
10768TIP3    H153795   1.368   3.648   4.677 -0.0482  0.9622  1.2146
10768TIP3    H253796   1.423   3.604   4.811  1.5235 -2.0339 -0.3266
10769TIP3   OH253797   6.413   4.785  15.792 -0.9059 -0.2088  0.5592
10769TIP3    H153798   6.351   4.752  15.857  1.0575 -0.8682  2.2103
10769TIP3    H253799   6.476   4.713  15.780 -0.2716  0.5238 -0.8455
10770TIP3   OH253800   6.466   5.292   0.426 -0.0751 -1.2388  0.1021
10770TIP3    H153801   6.529   5.364   0.437 -0.3674 -1.0897  0.8707
10770TIP3    H253802   6.487   5.231   0.498 -0.8582 -1.1429  0.4218
10771TIP3   OH253803   5.100   4.353  15.187  0.7421 -0.2745  0.4034
10771TIP3    H153804   5.115   4.278  15.244 -1.1883 -0.2928  0.9681
10771TIP3    H253805   5.123   4.323  15.099  2.3184 -0.7138  0.9252
10772TIP3   OH253806   5.317   6.625   3.923  0.2509 -0.2244  0.1031
10772TIP3    H153807   5.326   6.688   3.851  0.4835  0.7182  0.9392
10772TIP3    H253808   5.396   6.571   3.917  0.6675  0.3724  0.1424
10773TIP3   OH253809   4.760   6.448   1.656  0.3599 -0.1556  0.2427
10773TIP3    H153810   4.721   6.483   1.576  4.1209  2.2398 -0.7714
10773TIP3    H253811   4.764   6.522   1.716  2.1994 -0.5766  0.7076
10774TIP3   OH253812   6.091   1.136  12.695 -0.1168 -0.1507 -0.3675
10774TIP3    H153813   6.118   1.128  12.603  0.9198  0.3022 -0.1179
10774TIP3    H253814   6.065   1.228  12.705 -1.1623 -0.4227 -0.4311
10775TIP3   OH253815   1.076   4.965  14.568 -0.0490  0.3295  0.3713
10775TIP3    H153816   1.123   4.952  14.486 -0.5453  1.8581 -0.1910
10775TIP3    H253817   1.046   4.877  14.592  1.4591 -0.3843 -0.2218
10776TIP3   OH253818   1.226   1.781   2.146  0.2821  0.5723  0.0525
10776TIP3    H153819   1.288   1.764   2.075  0.4940  0.7091  0.2089
10776TIP3    H253820   1.278   1.779   2.226 -0.5333 -4.2031  0.7836
10777TIP3   OH253821   1.617   0.325   0.670  0.3826 -1.2647  0.0211
10777TIP3    H153822   1.695   0.285   0.707  0.6343 -1.5728 -0.8095
10777TIP3    H253823   1.556   0.252   0.659  0.6352 -1.3372 -0.9749
10778TIP3   OH253824   4.476   1.531  14.265 -0.1277 -0.0351  0.0913
10778TIP3    H153825   4.408   1.590  14.295 -0.8195 -0.8373  0.1502
10778TIP3    H253826   4.440   1.491  14.185 -0.4615 -1.6980  1.0252
10779TIP3   OH253827   3.205   1.921   4.280 -0.5490 -0.5016  0.2515
10779TIP3    H153828   3.216   1.846   4.221 -0.6186 -1.3009  1.2231
10779TIP3    H253829   3.153   1.887   4.352 -0.1090  0.3395  0.9859
10780TIP3   OH253830   5.646   3.299  15.853 -0.1611  0.4203  0.2528
10780TIP3    H153831   5.581   3.342  15.797 -0.3370 -1.0845 -0.7496
10780TIP3    H253832   5.727   3.301  15.801  0.1082  0.5567  0.6779
10781TIP3   OH253833   0.914   4.642  15.579  0.0767  0.0643  0.4484
10781TIP3    H153834   0.894   4.707  15.512 -0.4498  0.6211  1.1353
10781TIP3    H253835   1.006   4.620  15.563  0.4782  1.4742  0.6041
10782TIP3   OH253836   6.086   5.415   0.227  0.1893 -0.2019 -0.1064
10782TIP3    H153837   6.092   5.360   0.150  1.6423  1.1557 -1.0163
10782TIP3    H253838   6.033   5.490   0.199  1.6670  0.8574 -0.1718
10783TIP3   OH253839   3.204   0.180  12.330  0.6121 -0.5247 -0.1163
10783TIP3    H153840   3.245   0.096  12.309 -1.5076 -1.0659 -2.6157
10783TIP3    H253841   3.143   0.195  12.258  1.2155  3.4156  0.0141
10784TIP3   OH253842   5.344   4.664  15.955 -0.5245 -0.6622 -0.0231
10784TIP3    H153843   5.260   4.620  15.972 -1.1906  0.1224 -1.1778
10784TIP3    H253844   5.392   4.603  15.898  0.3745 -1.8122  1.8463
10785TIP3   OH253845   0.470   3.336   6.441 -0.1388  0.1659  0.2786
10785TIP3    H153846   0.416   3.286   6.502 -1.6278  0.2534 -0.9179
10785TIP3    H253847   0.485   3.276   6.367 -2.7523  1.6758 -1.6224
10786TIP3   OH253848   2.803   5.432   4.348  0.7212  0.4319 -0.9126
10786TIP3    H153849   2.722   5.387   4.371  0.9986  0.9943  1.3857
10786TIP3    H253850   2.870   5.364   4.355  1.0608  0.9291  2.0114
10787TIP3   OH253851   1.249   1.312  13.443 -0.0871  0.2647  0.3098
10787TIP3    H153852   1.240   1.275  13.531  1.8434  0.2687  0.5655
10787TIP3    H253853   1.224   1.404  13.452  0.1619  0.2790  0.8919
10788TIP3   OH253854   2.248   5.178  13.762  0.0104 -0.4917 -0.6580
10788TIP3    H153855   2.321   5.119  13.746  0.5551  0.4032 -1.6284
10788TIP3    H253856   2.208   5.147  13.843  1.5328 -0.9309 -0.0467
10789TIP3   OH253857   2.888   1.359   4.654  1.1723  0.0626  0.4564
10789TIP3    H153858   2.810   1.311   4.680 -1.4259  2.5958 -1.9664
10789TIP3    H253859   2.948   1.292   4.621 -1.2229 -1.7885 -0.4322
10790TIP3   OH253860   3.997   6.216  12.821 -0.1723 -0.1675  0.1540
10790TIP3    H153861   4.070   6.237  12.880  0.1919 -1.7407  0.3112
10790TIP3    H253862   3.990   6.292  12.763 -0.0270  1.0837  1.7103
10791TIP3   OH253863   1.967   3.362   1.226 -0.0277 -0.2709 -0.6252
10791TIP3    H153864   1.894   3.423   1.217  0.6991  0.4677 -1.8323
10791TIP3    H253865   1.982   3.356   1.321 -0.0077  1.5924 -0.4755
10792TIP3   OH253866   4.458   1.791   5.951 -0.8376  0.3014 -0.3322
10792TIP3    H153867   4.462   1.713   6.008  0.6339  0.7865  0.2676
10792TIP3    H253868   4.375   1.833   5.975 -1.3165 -0.6998 -0.1641
10793TIP3   OH253869   2.269   4.408  13.992  0.0515 -0.1546 -0.4677
10793TIP3    H153870   2.307   4.326  13.960 -1.5626 -1.4995  0.8222
10793TIP3    H253871   2.186   4.416  13.944  0.6767  1.3230 -1.3564
10794TIP3   OH253872   6.092   4.058  12.255  0.0771 -0.1790  0.7225
10794TIP3    H153873   6.073   3.988  12.192 -1.8053  0.4405  0.5401
10794TIP3    H253874   6.187   4.056  12.265  0.3668 -0.7839 -1.5909
10795TIP3   OH253875   5.106   3.406  12.765 -0.5122  0.4691 -0.4758
10795TIP3    H153876   5.152   3.419  12.682 -0.4507  1.7370 -0.2660
10795TIP3    H253877   5.098   3.494  12.802 -1.7351  0.0911  0.2326
10796TIP3   OH253878   6.212   5.824  11.313 -0.1805 -0.1293 -0.1121
10796TIP3    H153879   6.280   5.866  11.366  0.6829 -0.9153 -0.5694
10796TIP3    H253880   6.161   5.897  11.279  0.7101  0.5191 -0.1178
10797TIP3   OH253881   0.454   5.617  10.234  0.0892 -0.0602  0.6166
10797TIP3    H153882   0.389   5.687  10.227  1.5229  1.3154  0.2667
10797TIP3    H253883   0.489   5.626  10.322 -0.5177 -1.1112  0.9743
10798TIP3   OH253884   6.754   4.270   0.157 -0.3165  0.2958  0.0921
10798TIP3    H153885   6.801   4.243   0.236 -0.6024  0.6577  0.3958
10798TIP3    H253886   6.746   4.191   0.105  2.1326  0.5599 -0.7766
10799TIP3   OH253887   1.013   1.512  16.011  0.3661  0.3165 -0.3417
10799TIP3    H153888   1.102   1.545  16.020  0.3694  0.2629 -0.1631
10799TIP3    H253889   0.972   1.571  15.948  0.6592  0.0664 -0.7679
10800TIP3   OH253890   0.422   2.379   1.641  0.3543  0.2550  0.1418
10800TIP3    H153891   0.507   2.380   1.685  1.2251  1.2087 -1.4791
10800TIP3    H253892   0.406   2.470   1.617 -0.3392 -0.1456 -1.0032
10801TIP3   OH253893   5.033   3.196   2.284 -0.0091  0.4257 -0.1794
10801TIP3    H153894   5.042   3.105   2.313  0.7889  0.3761 -0.5668
10801TIP3    H253895   5.005   3.189   2.193  0.5023  0.5625 -0.3492
10802TIP3   OH253896   3.908   4.017  15.729  0.8020 -0.1266 -0.1648
10802TIP3    H153897   3.932   4.006  15.637 -0.6416  0.4551 -0.6503
10802TIP3    H253898   3.893   3.928  15.761  2.5063 -0.4186 -0.1263
10803TIP3   OH253899   1.626   2.763  13.887  0.8422  0.2492  0.7748
10803TIP3    H153900   1.617   2.717  13.970  1.1049 -1.1488  0.0619
10803TIP3    H253901   1.536   2.786  13.862  0.2419 -2.9375 -0.4729
10804TIP3   OH253902   1.444   4.376   0.417  0.4515 -0.0681  0.4568
10804TIP3    H153903   1.515   4.330   0.372  0.9944  0.8038  0.4112
10804TIP3    H253904   1.454   4.467   0.391 -0.0250  0.2393  1.3261
10805TIP3   OH253905   1.794   5.484   0.797  0.0878 -0.0406  0.1341
10805TIP3    H153906   1.782   5.389   0.805 -0.3141  0.0578  0.8270
10805TIP3    H253907   1.883   5.500   0.828 -0.7564  0.0965  2.7011
10806TIP3   OH253908   4.519   6.336   3.895 -0.7423  0.0459  0.4484
10806TIP3    H153909   4.457   6.385   3.840 -0.8175 -2.0032 -1.4195
10806TIP3    H253910   4.493   6.245   3.885  2.2297 -0.8638  0.0125
10807TIP3   OH253911   0.920   5.297   3.241  0.7908 -0.0642  0.6352
10807TIP3    H153912   0.973   5.219   3.255  2.4515  0.4774 -1.9996
10807TIP3    H253913   0.847   5.267   3.187 -0.3278 -0.3255  2.2171
10808TIP3   OH253914   1.514   4.532  10.641  0.0621 -0.7038 -0.0294
10808TIP3    H153915   1.515   4.497  10.552 -2.8739  0.0324 -0.4553
10808TIP3    H253916   1.522   4.627  10.629 -0.4591 -0.5941  0.4693
10809TIP3   OH253917   0.822   2.077  12.706  0.1952 -0.2664 -0.5645
10809TIP3    H153918   0.728   2.078  12.723  0.3428  0.6552  0.3125
10809TIP3    H253919   0.861   2.034  12.782  0.5064 -0.4997 -0.8466
10810TIP3   OH253920   4.873   6.383  16.547 -0.2639  0.1462 -0.2352
10810TIP3    H153921   4.967   6.366  16.544 -0.4886 -1.4591  0.7150
10810TIP3    H253922   4.846   6.385  16.455  0.6568  0.3524 -0.5075
10811TIP3   OH253923   6.111   1.511   5.444  0.5838 -0.3656 -0.3981
10811TIP3    H153924   6.129   1.533   5.353  0.8939  1.1350 -0.0021
10811TIP3    H253925   6.129   1.592   5.492 -1.9032 -0.3890  0.7144
10812TIP3   OH253926   3.956   4.979  10.894 -0.3800  0.4728  0.1661
10812TIP3    H153927   3.912   5.064  10.898  1.4918  1.5892 -1.1476
10812TIP3    H253928   3.956   4.957  10.800 -0.3113 -0.7177  0.4254
10813TIP3   OH253929   2.560   2.184   4.639 -0.4354  0.4061  0.1625
10813TIP3    H153930   2.609   2.262   4.614 -0.9878  0.4165 -0.9615
10813TIP3    H253931   2.494   2.174   4.571 -2.1336  0.4984  1.7178
10814TIP3   OH253932   2.204   5.610   5.406  0.2444  0.1853 -0.5549
10814TIP3    H153933   2.209   5.682   5.468  0.4336  0.2421 -0.6351
10814TIP3    H253934   2.208   5.652   5.320  0.1491  0.0957 -0.6024
10815TIP3   OH253935   5.104   5.203  13.891 -0.3726 -0.0348 -0.2129
10815TIP3    H153936   5.020   5.201  13.937  0.6062 -0.5317  1.6505
10815TIP3    H253937   5.140   5.290  13.909  0.6876 -0.7419  1.3248
10816TIP3   OH253938   5.039   5.641   3.233  0.1987  0.5530 -0.4175
10816TIP3    H153939   4.962   5.658   3.179 -0.2884 -1.2640 -0.3888
10816TIP3    H253940   5.113   5.666   3.178 -0.3809  2.1517 -0.5163
10817TIP3   OH253941   2.191   2.813   1.560  0.0242  0.1844 -0.3869
10817TIP3    H153942   2.253   2.829   1.631  1.4991  0.9238 -1.7756
10817TIP3    H253943   2.246   2.792   1.485 -1.4034  0.8341 -1.6666
10818TIP3   OH253944   1.994   3.221  13.160 -0.3730 -0.3274 -0.2772
10818TIP3    H153945   2.066   3.254  13.214  0.5916 -2.1878 -0.3435
10818TIP3    H253946   1.925   3.199  13.222  0.8419 -2.7465  0.3455
10819TIP3   OH253947   2.422   6.110  13.185  0.0862 -0.3378 -0.5163
10819TIP3    H153948   2.341   6.072  13.219 -0.9044  1.8869 -0.2401
10819TIP3    H253949   2.393   6.170  13.116  1.5718 -0.1212 -0.9859
10820TIP3   OH253950   5.022   0.751   3.781 -0.8392  0.3283  0.2825
10820TIP3    H153951   5.098   0.762   3.723 -0.8369 -0.2025  0.1771
10820TIP3    H253952   5.060   0.725   3.865 -0.9811 -2.6621 -0.4604
10821TIP3   OH253953   1.152   0.561   1.767 -0.6719  0.5565 -0.1723
10821TIP3    H153954   1.247   0.561   1.754 -0.5290  0.6619  0.7927
10821TIP3    H253955   1.125   0.472   1.749 -0.7437  1.0290 -2.7393
10822TIP3   OH253956   4.570   6.757  12.465 -0.1586 -0.9053  0.0911
10822TIP3    H153957   4.665   6.741  12.471  0.3725  1.6822 -0.0815
10822TIP3    H253958   4.536   6.732  12.550  1.2537  0.9986  1.2996
10823TIP3   OH253959   2.663   0.711  16.985 -0.0287 -0.3547 -0.0506
10823TIP3    H153960   2.684   0.771  16.914 -1.4865  2.2230  1.5520
10823TIP3    H253961   2.719   0.737  17.058  0.3082 -1.8922  0.2793
10824TIP3   OH253962   0.227   3.874   5.399 -0.1754  0.6808  0.1920
10824TIP3    H153963   0.143   3.913   5.421 -0.1969  0.8698 -0.2326
10824TIP3    H253964   0.266   3.853   5.484 -0.7990  0.2624  0.3850
10825TIP3   OH253965   3.957   4.228   3.129  0.0792  0.2549 -0.1093
10825TIP3    H153966   4.040   4.212   3.085 -0.3712 -0.0857 -0.8678
10825TIP3    H253967   3.927   4.142   3.157 -1.5513 -0.1392 -2.7202
10826TIP3   OH253968   3.348   5.956   4.377 -0.4801 -0.0406  0.1545
10826TIP3    H153969   3.336   5.900   4.301  0.6453  0.8472 -0.7034
10826TIP3    H253970   3.331   5.899   4.452 -0.1304 -1.3090 -0.7150
10827TIP3   OH253971   4.993   2.944  14.101  0.5071  0.5966 -0.0188
10827TIP3    H153972   4.968   2.989  14.182  0.0843 -1.5259  1.0820
10827TIP3    H253973   4.909   2.922  14.059  0.5644 -1.5709  0.8770
10828TIP3   OH253974   6.553   4.670   6.094  0.3726 -0.8366  0.4827
10828TIP3    H153975   6.516   4.640   6.177  1.2386 -0.1938  1.1160
10828TIP3    H253976   6.513   4.613   6.028 -1.2053 -0.6223  1.1992
10829TIP3   OH253977   2.635   0.204  16.445 -0.2544  0.4497  0.0727
10829TIP3    H153978   2.569   0.272  16.440 -1.4327 -0.6953 -0.5464
10829TIP3    H253979   2.640   0.182  16.538 -0.6827  0.5958  0.1310
10830TIP3   OH253980   5.899   3.733  15.778 -0.5070  0.5568  0.0591
10830TIP3    H153981   5.873   3.647  15.810 -0.0248  0.6880  0.8257
10830TIP3    H253982   5.819   3.770  15.741 -0.9568  0.1977  0.6632
10831TIP3   OH253983   6.685   6.022  15.884 -0.3834  0.4714 -0.3942
10831TIP3    H153984   6.645   6.073  15.954  2.0772  0.5223  1.1015
10831TIP3    H253985   6.723   5.946  15.928 -0.0401 -0.2815 -1.9184
10832TIP3   OH253986   1.164   4.883   0.693  0.0038 -0.0234  0.8431
10832TIP3    H153987   1.115   4.958   0.725  0.2835  0.3633  0.3925
10832TIP3    H253988   1.116   4.806   0.724 -1.2788  0.3387 -0.1764
10833TIP3   OH253989   3.837   0.709   3.730 -0.4751  0.0390  0.3279
10833TIP3    H153990   3.911   0.695   3.671 -1.5289 -0.1126 -1.0094
10833TIP3    H253991   3.836   0.803   3.745 -0.5608  0.1716 -0.4344
10834TIP3   OH253992   4.117   3.456   4.020  0.3121  0.2957  0.0145
10834TIP3    H153993   4.148   3.449   3.930  1.2973  0.7125  0.2979
10834TIP3    H253994   4.023   3.473   4.013  0.1115 -1.0504 -0.8907
10835TIP3   OH253995   3.471   3.580  10.922 -0.2035  0.1147 -0.3982
10835TIP3    H153996   3.379   3.606  10.933 -0.0138  0.3998  0.6350
10835TIP3    H253997   3.481   3.503  10.978  0.1055 -0.1113 -0.7620
10836TIP3   OH253998   2.426   4.061   2.343 -0.0626 -0.3106 -0.3505
10836TIP3    H153999   2.454   4.081   2.254  0.5375 -0.7861 -0.2737
10836TIP3    H254000   2.427   4.146   2.389  0.6164 -0.2160 -0.5277
10837TIP3   OH254001   0.895   6.549   6.343 -0.4941 -0.9453 -0.3039
10837TIP3    H154002   0.936   6.464   6.361 -1.0574 -1.3330 -0.8115
10837TIP3    H254003   0.813   6.547   6.392 -0.2074 -0.4314  0.1969
10838TIP3   OH254004   3.529   6.339   2.148  0.1048 -0.5839 -0.0589
10838TIP3    H154005   3.600   6.332   2.084  0.9845 -0.7267  0.8921
10838TIP3    H254006   3.522   6.252   2.186  0.0857 -0.3326  0.5270
10839TIP3   OH254007   2.572   3.083  14.316  0.4347 -0.1642 -0.4101
10839TIP3    H154008   2.536   3.155  14.264 -1.3931 -0.0783  0.9037
10839TIP3    H254009   2.649   3.055  14.266  1.3854  2.8292 -0.8539
10840TIP3   OH254010   5.541   3.195   2.362  0.1315  0.2136 -0.5479
10840TIP3    H154011   5.481   3.173   2.433 -1.1487  2.2903 -0.9333
10840TIP3    H254012   5.623   3.218   2.407 -1.0350  2.8108  0.4606
10841TIP3   OH254013   2.344   3.435   6.205 -0.4018  0.0519  0.2345
10841TIP3    H154014   2.377   3.521   6.228 -1.1828  0.0456  1.4875
10841TIP3    H254015   2.264   3.452   6.156  0.4165  0.0456 -1.1332
10842TIP3   OH254016   0.585   1.649  15.588 -0.1038  0.4818  0.1077
10842TIP3    H154017   0.630   1.569  15.616  1.7288  2.0851  2.0962
10842TIP3    H254018   0.559   1.691  15.670  0.1284  2.5413 -0.8120
10843TIP3   OH254019   3.924   6.792  13.072 -0.4789  0.3593 -0.6290
10843TIP3    H154020   3.988   6.727  13.103 -0.1661  0.9582  0.0083
10843TIP3    H254021   3.940   6.869  13.126 -0.5525  1.1233 -1.6639
10844TIP3   OH254022   3.021   2.260  13.200 -0.1467 -0.3610  0.5210
10844TIP3    H154023   2.996   2.346  13.233  0.9135  0.2621 -0.2472
10844TIP3    H254024   3.046   2.210  13.278 -0.4714  0.1288  0.9399
10845TIP3   OH254025   0.559   2.357  14.166 -0.6930 -0.2430  0.1381
10845TIP3    H154026   0.612   2.348  14.087 -1.9745 -1.7436 -0.6129
10845TIP3    H254027   0.545   2.451  14.176  1.5929  0.1598  0.0582
10846TIP3   OH254028   4.836   2.485  15.595  0.0499 -0.0938  0.1560
10846TIP3    H154029   4.814   2.458  15.684  0.5821  0.8558  0.5949
10846TIP3    H254030   4.859   2.577  15.603 -1.5633  0.4938 -1.2490
10847TIP3   OH254031   5.805   1.079   2.692 -0.7268 -0.1937  0.9208
10847TIP3    H154032   5.839   1.135   2.762  1.3051  1.4691 -1.2395
10847TIP3    H254033   5.734   1.131   2.653 -0.4947 -0.2026  0.4807
10848TIP3   OH254034   3.425   5.430  14.922  0.1682  0.2323 -0.0872
10848TIP3    H154035   3.423   5.488  14.998 -0.6795 -1.7415  1.5103
10848TIP3    H254036   3.351   5.459  14.869 -0.1100  0.7568  0.5607
10849TIP3   OH254037   2.540   1.745  16.989 -0.1681  0.4412 -0.0055
10849TIP3    H154038   2.617   1.801  16.975  0.2487 -0.3620 -1.0619
10849TIP3    H254039   2.522   1.753  17.083  0.7975  1.1594  0.1443
10850TIP3   OH254040   0.728   5.151  16.663  0.0030  0.3015 -0.0563
10850TIP3    H154041   0.687   5.066  16.646  2.9371 -1.5704  1.4663
10850TIP3    H254042   0.665   5.196  16.719 -0.2001 -2.3734  2.0737
10851TIP3   OH254043   0.670   5.194   5.010  0.0818 -0.1169  0.4600
10851TIP3    H154044   0.656   5.243   4.929 -0.5669  0.0001  0.6353
10851TIP3    H254045   0.607   5.232   5.072  0.8376  0.0597  1.1340
10852TIP3   OH254046   4.358   6.309  14.285 -0.6101 -0.2289  0.4539
10852TIP3    H154047   4.400   6.230  14.318 -0.0790  0.7895  2.3751
10852TIP3    H254048   4.264   6.294  14.299 -0.4996 -0.4786  0.9518
10853TIP3   OH254049   0.735   6.451   4.227 -0.1600 -0.2779  0.7928
10853TIP3    H154050   0.826   6.424   4.218 -0.5129 -1.5865  0.9385
10853TIP3    H254051   0.705   6.466   4.137  0.5660  1.5433  0.8127
10854TIP3   OH254052   4.511   6.265  17.165 -0.7225 -1.0115 -0.1773
10854TIP3    H154053   4.451   6.282  17.092 -0.0440  0.7760 -0.3673
10854TIP3    H254054   4.461   6.286  17.243 -0.7231 -0.6829 -0.2654
10855TIP3   OH254055   2.863   2.142   1.818 -0.5758  0.1232 -0.1387
10855TIP3    H154056   2.882   2.236   1.819 -0.8231  0.1751  1.6846
10855TIP3    H254057   2.877   2.116   1.727  0.1909  1.7774 -0.5229
10856TIP3   OH254058   6.664   1.546  12.838  0.7294  0.1436 -0.2665
10856TIP3    H154059   6.687   1.587  12.755 -0.1853 -0.5844 -0.9096
10856TIP3    H254060   6.699   1.457  12.832  0.5639  0.0513  0.0739
10857TIP3   OH254061   0.525   6.407  13.202 -0.0517  0.2236 -0.0745
10857TIP3    H154062   0.489   6.333  13.250 -0.8840  1.5497  1.4566
10857TIP3    H254063   0.503   6.389  13.111 -3.5073  0.2651  0.6041
10858TIP3   OH254064   5.400   0.361  15.780 -0.5338 -0.0674 -0.0900
10858TIP3    H154065   5.310   0.382  15.805 -1.1139 -2.1708 -0.1440
10858TIP3    H254066   5.444   0.342  15.864 -0.4818 -0.2169 -0.1507
10859TIP3   OH254067   4.095   4.487   3.225 -0.7432 -0.2897 -0.0828
10859TIP3    H154068   4.016   4.447   3.189 -1.4266  0.9156  0.0185
10859TIP3    H254069   4.084   4.479   3.320 -1.0978  0.4941 -0.0475
10860TIP3   OH254070   4.792   2.003   6.526  0.4266  0.0071  0.3356
10860TIP3    H154071   4.803   1.909   6.533  2.4032  0.2927  1.6171
10860TIP3    H254072   4.874   2.035   6.489 -0.2174  1.2374 -0.1147
10861TIP3   OH254073   2.198   3.030   6.023  0.1950 -0.2074 -0.0388
10861TIP3    H154074   2.143   2.995   5.952  0.3070 -0.4669  0.0047
10861TIP3    H254075   2.272   3.071   5.978 -0.3246  0.6717 -0.1315
10862TIP3   OH254076   6.054   5.246   1.739 -0.1372  0.1555  0.2729
10862TIP3    H154077   6.005   5.273   1.817 -0.3100 -2.3474  1.1347
10862TIP3    H254078   6.138   5.216   1.774  0.4690  0.6560 -0.7292
10863TIP3   OH254079   5.997   0.918  14.299 -0.1326  0.9069 -0.3153
10863TIP3    H154080   5.944   0.909  14.378 -1.2181  0.5018 -1.0668
10863TIP3    H254081   5.970   1.002  14.261 -0.0506  0.8197 -0.5732
10864TIP3   OH254082   5.579   6.774  14.716  0.5700 -0.0758  0.0335
10864TIP3    H154083   5.579   6.759  14.810  0.6092  1.5198  0.3243
10864TIP3    H254084   5.487   6.788  14.694  0.6146  0.0546 -0.0725
10865TIP3   OH254085   1.576   6.412  11.818  0.1686  0.0370  0.0183
10865TIP3    H154086   1.513   6.389  11.886  0.3073 -0.1227  0.0946
10865TIP3    H254087   1.523   6.421  11.739  0.1006 -0.4732  0.0030
10866TIP3   OH254088   6.181   6.411   5.802 -0.4412  0.4391 -0.9949
10866TIP3    H154089   6.208   6.486   5.855  1.9971 -2.1072  1.8143
10866TIP3    H254090   6.089   6.397   5.826  0.1939  0.2298  1.7215
10867TIP3   OH254091   4.098   3.966  12.537  0.3036 -0.1815 -0.1677
10867TIP3    H154092   4.076   4.015  12.616 -2.5995 -0.7566 -0.5006
10867TIP3    H254093   4.042   4.005  12.469  0.4667 -1.6822 -1.2042
10868TIP3   OH254094   1.231   0.223   3.391 -0.2037  0.3691  0.7955
10868TIP3    H154095   1.215   0.220   3.296  0.7634 -1.3784  0.6517
10868TIP3    H254096   1.178   0.151   3.426  0.8959 -0.1883  1.3341
10869TIP3   OH254097   4.074   2.206  12.012 -0.4246 -0.2911 -0.4533
10869TIP3    H154098   4.062   2.121  11.969 -1.2124  0.3485 -1.5595
10869TIP3    H254099   4.013   2.204  12.086 -0.5572 -0.6293 -0.5713
10870TIP3   OH254100   4.846   3.611  12.190  0.1388 -0.0299 -0.5086
10870TIP3    H154101   4.841   3.585  12.098 -2.4638 -3.0043  0.2740
10870TIP3    H254102   4.800   3.695  12.194 -0.6491 -0.3710 -1.7904
10871TIP3   OH254103   3.946   2.807  16.614 -0.3768  0.0456 -0.2689
10871TIP3    H154104   3.875   2.751  16.647 -0.9430  1.1289  0.4368
10871TIP3    H254105   4.011   2.746  16.580 -0.1004 -1.1532  2.1907
10872TIP3   OH254106   3.569   5.773  14.315 -0.5480  0.0732  0.1247
10872TIP3    H154107   3.639   5.734  14.263  0.1571  0.0696  1.0608
10872TIP3    H254108   3.596   5.760  14.406 -1.9742 -0.3265  0.5246
10873TIP3   OH254109   5.008   5.351   3.196  0.1868  0.0056 -0.4674
10873TIP3    H154110   5.057   5.403   3.260  1.5943 -0.1458 -1.3841
10873TIP3    H254111   5.043   5.262   3.206 -1.5166 -0.6037  0.4099
10874TIP3   OH254112   0.683   3.636  16.420  0.1818 -0.4843 -0.2651
10874TIP3    H154113   0.754   3.592  16.467  1.1843  0.9424 -0.4018
10874TIP3    H254114   0.618   3.655  16.488  1.2060  0.7202  0.4138
10875TIP3   OH254115   0.520   6.711  16.247 -0.6877 -0.7893  0.1270
10875TIP3    H154116   0.542   6.801  16.224  1.1052 -1.0070  0.8217
10875TIP3    H254117   0.547   6.702  16.339 -0.8548 -2.0312  0.0791
10876TIP3   OH254118   4.100   6.066  14.930 -0.0660  0.1353 -0.3413
10876TIP3    H154119   4.031   6.005  14.957  0.1163 -0.4669 -1.1846
10876TIP3    H254120   4.056   6.128  14.872  0.1034 -0.3302 -0.9898
10877TIP3   OH254121   3.671   5.694   2.269 -0.2906 -0.3272  0.1322
10877TIP3    H154122   3.588   5.652   2.250 -0.4857  0.1975 -0.1833
10877TIP3    H254123   3.667   5.716   2.362 -0.6025 -0.0846  0.0616
10878TIP3   OH254124   4.849   5.219   1.367 -0.1572  0.2801 -0.1521
10878TIP3    H154125   4.814   5.136   1.334  0.6176 -0.4551  0.8008
10878TIP3    H254126   4.806   5.232   1.451 -0.3753  0.9211 -0.3588
10879TIP3   OH254127   6.262   2.336   4.116  0.0624  0.0763 -0.3972
10879TIP3    H154128   6.354   2.351   4.135 -0.0007 -0.9287  0.8661
10879TIP3    H254129   6.215   2.379   4.187 -0.2642 -2.2720  0.8946
10880TIP3   OH254130   2.932   1.278   3.950 -0.5888  0.1447 -0.1352
10880TIP3    H154131   2.968   1.367   3.956 -1.3500  0.3940  1.0196
10880TIP3    H254132   2.846   1.284   3.991 -1.4355 -0.7323 -1.7037
10881TIP3   OH254133   4.700   1.865   4.864 -0.3547 -0.4015 -0.5211
10881TIP3    H154134   4.708   1.902   4.952  0.2443 -0.4796 -0.5389
10881TIP3    H254135   4.780   1.892   4.819 -0.6688 -0.3448 -1.0507
10882TIP3   OH254136   5.473   2.916  10.830 -0.1262 -0.1664 -0.2493
10882TIP3    H154137   5.432   2.850  10.774 -0.3449  0.5827 -0.9939
10882TIP3    H254138   5.427   2.997  10.809  1.4819  0.6315 -0.8442
10883TIP3   OH254139   0.104   6.277  14.678 -0.2498 -0.1013  0.1090
10883TIP3    H154140   0.167   6.271  14.607 -0.8746 -2.1663 -0.3488
10883TIP3    H254141   0.103   6.370  14.702  2.4329  0.1093 -0.2882
10884TIP3   OH254142   3.774   5.349   5.316  0.1047 -0.6406  0.5122
10884TIP3    H154143   3.723   5.406   5.373  0.4904  0.6655 -0.3987
10884TIP3    H254144   3.780   5.397   5.233  0.7032 -1.8765 -0.1945
10885TIP3   OH254145   2.486   4.555  15.134  0.0129  0.0191  0.0523
10885TIP3    H154146   2.501   4.552  15.229  0.8386  1.0763 -0.0275
10885TIP3    H254147   2.423   4.484  15.118  0.0358 -0.3315  1.3505
10886TIP3   OH254148   2.778   2.725  13.738 -0.3175  0.5549  0.1446
10886TIP3    H154149   2.686   2.699  13.736 -0.2528  0.2214 -2.4894
10886TIP3    H254150   2.781   2.808  13.691  0.4733  1.7424  2.1647
10887TIP3   OH254151   2.773   0.254   1.652 -0.0298  0.1767  0.4233
10887TIP3    H154152   2.713   0.286   1.585  1.0144  0.2849 -0.4873
10887TIP3    H254153   2.737   0.169   1.677 -1.5676  1.0199  1.2343
10888TIP3   OH254154   6.526   1.667  10.500 -0.7854  0.8865 -0.3113
10888TIP3    H154155   6.568   1.630  10.423  1.4131  1.1416  0.6807
10888TIP3    H254156   6.549   1.607  10.571  0.6446  2.6693  0.8371
10889TIP3   OH254157   1.745   1.998   2.614  0.2500 -0.0795  0.1229
10889TIP3    H154158   1.813   2.008   2.680 -0.8927  2.3414  1.0459
10889TIP3    H254159   1.669   2.042   2.651 -0.7323  0.5294 -2.4073
10890TIP3   OH254160   2.431   3.170  13.293 -0.1190  0.1545  0.2481
10890TIP3    H154161   2.485   3.099  13.258  0.6665  0.3379  1.0324
10890TIP3    H254162   2.491   3.219  13.349 -0.7468  1.2344 -0.0150
10891TIP3   OH254163   2.295   4.062   3.588  0.2048  0.2397 -0.0964
10891TIP3    H154164   2.310   4.100   3.501 -1.8556 -0.6811 -0.9321
10891TIP3    H254165   2.240   4.127   3.633 -0.7050 -0.3157 -0.3786
10892TIP3   OH254166   3.319   4.622   1.338  0.0491 -0.0602 -0.3839
10892TIP3    H154167   3.318   4.690   1.406 -1.9289  0.8237 -1.2181
10892TIP3    H254168   3.410   4.617   1.310  0.5263  1.0490  0.8625
10893TIP3   OH254169   6.124   2.882  11.581  0.6080 -0.4095 -0.0153
10893TIP3    H154170   6.031   2.866  11.595  0.8131 -0.4763  1.4396
10893TIP3    H254171   6.134   2.977  11.587  0.6544 -0.4160  0.0146
10894TIP3   OH254172   1.371   5.865   2.696  0.1562 -0.4284  0.7007
10894TIP3    H154173   1.351   5.793   2.636  1.7335 -0.0142 -0.3973
10894TIP3    H254174   1.350   5.944   2.647 -2.1787 -0.0844  2.1286
10895TIP3   OH254175   0.290   3.921  15.342 -0.2721  0.1651 -0.6101
10895TIP3    H154176   0.297   3.831  15.374  0.5233  0.9263  1.5324
10895TIP3    H254177   0.306   3.975  15.419 -0.6784  2.1645 -1.8553
10896TIP3   OH254178   4.402   3.725  16.072  0.3304  0.4599 -0.1299
10896TIP3    H154179   4.331   3.666  16.098 -0.2123  1.6471  1.1762
10896TIP3    H254180   4.358   3.804  16.041  1.0475  1.6002  1.6510
10897TIP3   OH254181   1.683   4.274   5.513 -0.3250 -0.2270  0.1782
10897TIP3    H154182   1.609   4.335   5.524  1.0096  1.3785  0.6797
10897TIP3    H254183   1.751   4.326   5.470  0.2314 -1.9213 -1.1045
10898TIP3   OH254184   4.899   2.292   0.749  0.1430  0.2370 -0.1108
10898TIP3    H154185   4.985   2.283   0.709  0.1525  1.4266 -0.3976
10898TIP3    H254186   4.915   2.340   0.830 -0.3233  1.1218 -0.5276
10899TIP3   OH254187   1.719   2.797  13.061 -0.1668  0.0764 -0.1030
10899TIP3    H154188   1.756   2.731  13.119 -2.1809  0.3514  1.6034
10899TIP3    H254189   1.747   2.880  13.099 -0.9787  0.2485  0.1236
10900TIP3   OH254190   1.393   1.335  11.044 -0.0802  0.0613 -0.3054
10900TIP3    H154191   1.381   1.415  11.096  1.9496 -0.8333  1.6720
10900TIP3    H254192   1.435   1.273  11.103  1.3420 -1.4218 -2.7050
10901TIP3   OH254193   4.466   5.794   3.665 -0.2983  0.1413  0.1517
10901TIP3    H154194   4.406   5.729   3.629  0.0801 -0.5011  0.6486
10901TIP3    H254195   4.513   5.828   3.589 -0.6450 -0.0136 -0.1343
10902TIP3   OH254196   1.625   5.081  11.919 -0.4686 -0.5575  0.3073
10902TIP3    H154197   1.583   4.997  11.903  0.8220 -1.1871  0.1498
10902TIP3    H254198   1.554   5.145  11.911 -1.8088 -1.7389  2.0422
10903TIP3   OH254199   3.685   3.412  17.038 -0.2198  0.1194 -0.4163
10903TIP3    H154200   3.650   3.479  16.979 -2.1420 -1.1841 -0.8584
10903TIP3    H254201   3.675   3.330  16.990  1.5387 -0.6006  0.3403
10904TIP3   OH254202   0.262   2.169   1.093  0.2808 -0.5649  0.4071
10904TIP3    H154203   0.322   2.167   1.167  0.0205  0.4166  0.6560
10904TIP3    H254204   0.177   2.191   1.131  0.1328 -0.1092 -0.1733
10905TIP3   OH254205   4.072   5.371  11.565  0.2810  0.4065 -0.2027
10905TIP3    H154206   4.082   5.399  11.474  0.0276  0.1077 -0.3239
10905TIP3    H254207   4.000   5.424  11.598  1.3209  1.5720  0.2647
10906TIP3   OH254208   4.889   2.341  16.033 -0.1270  0.4014 -0.1095
10906TIP3    H154209   4.895   2.405  16.104  1.0578  1.3677 -1.0234
10906TIP3    H254210   4.855   2.391  15.959  2.0096  0.3523 -1.1944
10907TIP3   OH254211   4.772   5.775   1.221 -0.1168  1.2061  0.5167
10907TIP3    H154212   4.762   5.836   1.294 -1.2033 -0.4070  1.7848
10907TIP3    H254213   4.722   5.699   1.247 -0.1788  0.4083 -1.7680
10908TIP3   OH254214   0.991   5.321   5.423 -0.2099 -0.8870  0.0168
10908TIP3    H154215   1.070   5.352   5.466 -0.4146 -2.4274  1.6271
10908TIP3    H254216   1.019   5.295   5.336  0.8276 -0.3873  0.1925
10909TIP3   OH254217   1.490   4.675   5.460  0.0831  0.2344  0.2303
10909TIP3    H154218   1.552   4.707   5.395  1.9441 -1.5110  1.0514
10909TIP3    H254219   1.477   4.750   5.519 -1.7876  1.9167 -2.1066
10910TIP3   OH254220   4.539   2.421   5.358 -0.4632 -0.1096  0.0281
10910TIP3    H154221   4.600   2.382   5.420 -1.2810 -3.0834 -0.8247
10910TIP3    H254222   4.452   2.401   5.393 -0.9383  0.5208 -0.7391
10911TIP3   OH254223   4.100   5.962   4.762 -0.2659 -0.4314  0.4836
10911TIP3    H154224   4.073   5.884   4.713  0.7977 -0.2418 -0.4527
10911TIP3    H254225   4.095   5.936   4.854  1.1633 -1.9785  0.1640
10912TIP3   OH254226   1.396   2.175  15.501 -0.0264  0.0266 -0.3332
10912TIP3    H154227   1.431   2.263  15.520 -0.4399  0.0451  0.3979
10912TIP3    H254228   1.399   2.130  15.586 -1.3765 -0.0997 -0.3348
10913TIP3   OH254229   2.521   6.742   4.859  1.2088  0.4401 -0.1091
10913TIP3    H154230   2.563   6.825   4.837 -0.1365  1.1024 -0.2768
10913TIP3    H254231   2.572   6.708   4.932  1.3970  1.7283  0.3893
10914TIP3   OH254232   5.656   3.446  10.472  0.1957  0.1937 -0.1544
10914TIP3    H154233   5.612   3.397  10.403  0.7068 -0.4015 -0.0557
10914TIP3    H254234   5.633   3.400  10.553 -0.2454  0.7769  0.0594
10915TIP3   OH254235   2.244   6.475   4.409 -0.2783  0.6998 -0.0285
10915TIP3    H154236   2.194   6.527   4.346  0.0503  0.5318 -0.4385
10915TIP3    H254237   2.333   6.476   4.374  0.0071  0.9927  0.6878
10916TIP3   OH254238   2.112   4.221  14.828 -0.0669 -0.6984  0.5940
10916TIP3    H154239   2.166   4.210  14.749 -1.2872 -0.9568 -0.2235
10916TIP3    H254240   2.023   4.233  14.795 -0.5636 -0.5362  1.9332
10917TIP3   OH254241   0.862   3.444  17.087  0.2254  0.3379 -0.3351
10917TIP3    H154242   0.842   3.372  17.027 -1.6145 -0.7058  1.4087
10917TIP3    H254243   0.898   3.513  17.031 -0.0223 -1.1218 -2.3833
10918TIP3   OH254244   2.482   4.667  17.095 -0.5381  0.5715 -0.1438
10918TIP3    H154245   2.536   4.656  17.016  2.0763  0.5881  1.5350
10918TIP3    H254246   2.467   4.761  17.101 -0.7663  0.5687 -0.6159
10919TIP3   OH254247   3.901   0.931   4.590 -0.1778  0.0034  0.5073
10919TIP3    H154248   3.868   0.922   4.501 -3.7994 -1.1885  1.7731
10919TIP3    H254249   3.935   0.844   4.612  0.9364  0.3609  0.2430
10920TIP3   OH254250   3.190   6.746  16.867 -0.1405 -0.5220  0.2865
10920TIP3    H154251   3.117   6.803  16.844 -1.4285 -1.8836  0.8372
10920TIP3    H254252   3.258   6.806  16.897 -0.2024  0.9455 -2.1983
10921TIP3   OH254253   6.215   3.217  12.100 -0.1897  0.1759 -0.0902
10921TIP3    H154254   6.251   3.219  12.189  0.1439 -1.5010 -0.1595
10921TIP3    H254255   6.263   3.286  12.053 -0.0887  0.8032  0.9126
10922TIP3   OH254256   6.437   3.772  14.366  0.3699 -0.2782  0.0208
10922TIP3    H154257   6.457   3.687  14.406  0.7751  0.3025  1.0890
10922TIP3    H254258   6.468   3.837  14.430 -1.1951  0.6753 -0.1264
10923TIP3   OH254259   6.507   0.873   1.176  1.1517 -0.2787  0.2243
10923TIP3    H154260   6.500   0.783   1.142  1.2443 -1.5095  3.1515
10923TIP3    H254261   6.592   0.875   1.221  0.2362  0.5632  1.9961
10924TIP3   OH254262   1.498   1.309   2.705 -0.0908 -0.3867  0.0322
10924TIP3    H154263   1.580   1.295   2.754 -0.8551  2.1153  2.3001
10924TIP3    H254264   1.449   1.228   2.717  1.7123 -1.6477 -0.7419
10925TIP3   OH254265   1.755   2.858  16.049 -0.8019  0.1353  0.4093
10925TIP3    H154266   1.809   2.785  16.017 -3.3176 -2.0323  0.8071
10925TIP3    H254267   1.694   2.875  15.978  0.0201  2.2191  0.1565
10926TIP3   OH254268   6.190   2.812  13.495  0.5723  0.1366  0.3093
10926TIP3    H154269   6.110   2.782  13.452  0.4880  1.4137 -0.4916
10926TIP3    H254270   6.197   2.758  13.574 -1.6109  0.6451  0.9172
10927TIP3   OH254271   1.758   1.661   0.601 -0.0209 -0.6218 -0.2137
10927TIP3    H154272   1.845   1.623   0.590 -0.1536 -0.5577 -1.7318
10927TIP3    H254273   1.774   1.749   0.634  0.3326 -1.5708  2.3736
10928TIP3   OH254274   6.402   4.437  14.178  0.2340 -0.8317  0.1334
10928TIP3    H154275   6.404   4.508  14.241 -0.8360  0.2068 -0.9349
10928TIP3    H254276   6.350   4.369  14.220 -1.8085  0.4594 -0.1699
10929TIP3   OH254277   2.898   3.399   0.160  0.5510 -0.1170 -0.6116
10929TIP3    H154278   2.966   3.464   0.174  2.1188 -2.0600  1.5003
10929TIP3    H254279   2.943   3.327   0.115 -0.2447 -1.1505  0.1945
10930TIP3   OH254280   3.165   1.831   0.706  0.4190  0.0210  0.2336
10930TIP3    H154281   3.093   1.882   0.670  1.2738  0.0948 -1.4975
10930TIP3    H254282   3.196   1.882   0.781 -0.4072  0.7165  0.1141
10931TIP3   OH254283   0.043   6.644  11.021 -0.0761 -0.3695 -0.3335
10931TIP3    H154284   0.041   6.650  10.926 -0.0582  1.1807 -0.2534
10931TIP3    H254285  -0.049   6.629  11.046 -0.0359 -1.0869 -0.6010
10932TIP3   OH254286   6.322   5.099  13.948  0.2379 -0.0527 -0.4778
10932TIP3    H154287   6.245   5.120  14.001 -0.2146 -0.4760 -0.9611
10932TIP3    H254288   6.299   5.018  13.903 -0.3540  1.5272 -3.1938
10933TIP3   OH254289   4.990   3.204   1.506 -0.4150  0.0794  0.0958
10933TIP3    H154290   4.906   3.163   1.528  0.1860 -0.2413  1.9189
10933TIP3    H254291   5.023   3.152   1.432 -1.1045 -0.7650  0.3617
10934TIP3   OH254292   5.419   4.090   1.356 -1.1250  0.0230 -0.5337
10934TIP3    H154293   5.394   4.178   1.386  1.9336 -0.0697  2.9122
10934TIP3    H254294   5.502   4.104   1.311 -1.1540 -1.0145 -0.9228
10935TIP3   OH254295   1.332   3.320   4.757 -0.5357  0.2811 -0.5433
10935TIP3    H154296   1.356   3.330   4.665  1.2751 -0.6499 -0.2186
10935TIP3    H254297   1.281   3.398   4.777 -0.0340  1.0367 -2.0557
10936TIP3   OH254298   6.194   4.423   4.794  0.0876 -0.0915 -1.0374
10936TIP3    H154299   6.108   4.443   4.756 -1.3533 -2.5086  0.7418
10936TIP3    H254300   6.189   4.331   4.818  2.1920  0.3822  1.6610
10937TIP3   OH254301   5.825   4.438   2.665 -0.3581  0.6122 -0.2434
10937TIP3    H154302   5.802   4.472   2.752 -0.7785 -0.8856  0.2662
10937TIP3    H254303   5.919   4.455   2.657 -0.1669  0.1496  0.8127
10938TIP3   OH254304   2.365   5.922  12.178  0.4209  0.0284  0.0252
10938TIP3    H154305   2.273   5.942  12.191  0.2915  0.5391 -1.4977
10938TIP3    H254306   2.366   5.831  12.149  0.4205 -0.0321  0.2112
10939TIP3   OH254307   1.680   3.364  13.673  0.0663 -0.2000 -0.6898
10939TIP3    H154308   1.627   3.432  13.632  1.1614  0.0641 -1.6992
10939TIP3    H254309   1.767   3.373  13.634  0.4613 -1.6312 -0.2190
10940TIP3   OH254310   5.204   5.925   2.883  0.0767  0.3151  0.3394
10940TIP3    H154311   5.160   5.962   2.807  2.4615 -0.5684 -1.6351
10940TIP3    H254312   5.273   5.988   2.904  0.0563  0.0804  1.1489
10941TIP3   OH254313   4.196   4.743  10.837  0.2394 -0.1627  0.3001
10941TIP3    H154314   4.275   4.770  10.790 -0.0149  0.2804  0.1281
10941TIP3    H254315   4.149   4.687  10.775  0.7607 -1.0150  0.6520
10942TIP3   OH254316   2.824   6.102   2.037 -0.4698 -0.6473 -0.3071
10942TIP3    H154317   2.742   6.078   1.994 -0.9228 -0.3586  0.3703
10942TIP3    H254318   2.821   6.198   2.043 -0.2940 -0.6650  0.1275
10943TIP3   OH254319   0.359   2.917  16.024 -0.0030  0.0061  0.0727
10943TIP3    H154320   0.290   2.852  16.040  0.4886 -0.1182  1.9390
10943TIP3    H254321   0.420   2.872  15.966 -0.1411 -0.8921  0.5910
10944TIP3   OH254322   3.555   2.647   3.511  0.1225  0.0458 -0.1132
10944TIP3    H154323   3.561   2.626   3.604  0.8504  0.1489 -0.1326
10944TIP3    H254324   3.461   2.647   3.493 -0.0845  1.0962  0.8614
10945TIP3   OH254325   4.649   5.451  13.388  0.6318 -0.0168  0.3188
10945TIP3    H154326   4.623   5.361  13.405 -0.8586 -0.0677 -1.7408
10945TIP3    H254327   4.733   5.461  13.432 -0.4008 -1.5508  2.8274
10946TIP3   OH254328   0.308   4.420  11.861 -0.3685  0.2343  0.6121
10946TIP3    H154329   0.380   4.483  11.865  0.5807 -0.8021  0.6769
10946TIP3    H254330   0.229   4.473  11.853  0.3755  1.4217  0.8866
10947TIP3   OH254331   1.038   3.408  16.702 -0.2735 -0.4753 -0.2910
10947TIP3    H154332   1.037   3.482  16.762  0.6704 -1.9951  1.7095
10947TIP3    H254333   0.962   3.422  16.645 -0.2206  1.8995  0.1144
10948TIP3   OH254334   2.930   2.219  14.624  0.7971 -0.2739 -0.6249
10948TIP3    H154335   2.903   2.302  14.664  0.8870  0.2228 -1.5589
10948TIP3    H254336   2.889   2.220  14.538  1.4180 -0.8539 -0.9366
10949TIP3   OH254337   3.065   1.903  15.261 -0.9233  0.2996 -0.2745
10949TIP3    H154338   3.010   1.836  15.220  1.1357 -1.9258  0.4031
10949TIP3    H254339   3.004   1.954  15.315 -2.4957 -1.3153 -0.4169
10950TIP3   OH254340   2.743   4.810  16.108 -0.1262 -0.4288  0.1802
10950TIP3    H154341   2.832   4.842  16.127  0.4684 -1.3068 -1.0415
10950TIP3    H254342   2.692   4.837  16.185  0.8010  1.5499  0.1787
10951TIP3   OH254343   2.604   6.680  17.124  0.4149  0.4050  0.3886
10951TIP3    H154344   2.633   6.708  17.211 -0.7509 -2.5528  1.8860
10951TIP3    H254345   2.508   6.684  17.128  0.3144  2.7171 -1.7872
10952TIP3   OH254346   0.971   3.397  13.058 -0.3543 -0.5369 -0.0393
10952TIP3    H154347   0.939   3.356  12.977  1.2434 -5.8940  1.5908
10952TIP3    H254348   0.904   3.376  13.123  0.0557  0.5220  0.7483
10953TIP3   OH254349   4.249   5.675  16.858 -0.0264  0.5947  0.4946
10953TIP3    H154350   4.300   5.614  16.912 -0.1640  1.1207  1.2338
10953TIP3    H254351   4.304   5.753  16.850  0.2653  0.2883 -0.6812
10954TIP3   OH254352   3.098   5.200  16.090 -0.6306  0.2861 -0.1011
10954TIP3    H154353   3.013   5.225  16.126  0.2702  1.2190  1.5187
10954TIP3    H254354   3.099   5.237  16.002 -1.9907  0.0459 -0.2350
10955TIP3   OH254355   3.471   1.169  15.591  0.3585  0.0131 -0.2130
10955TIP3    H154356   3.456   1.261  15.571 -0.2850 -0.1104 -0.3007
10955TIP3    H254357   3.398   1.144  15.647  0.4503 -0.4872 -0.3129
10956TIP3   OH254358   4.939   0.085   5.957  0.0687  0.1183 -0.1382
10956TIP3    H154359   4.883   0.102   5.880  0.3872  2.0011 -0.0057
10956TIP3    H254360   5.016   0.139   5.942 -0.3047  1.3302  1.9766
10957TIP3   OH254361   6.269   1.482   1.483  0.2786 -0.0155 -0.3075
10957TIP3    H154362   6.175   1.487   1.465  0.1799  2.0431  0.3984
10957TIP3    H254363   6.284   1.392   1.512 -1.9997  0.2315  2.0111
10958TIP3   OH254364   2.149   3.020  15.008  0.0750 -0.3467  0.0553
10958TIP3    H154365   2.111   2.952  14.951  0.5634 -0.2818 -0.3551
10958TIP3    H254366   2.229   3.046  14.963 -0.3826  0.8958 -0.0669
10959TIP3   OH254367   1.413   5.390   4.164  0.9869  0.0883 -0.2795
10959TIP3    H154368   1.412   5.412   4.071 -0.2378 -0.4387 -0.3996
10959TIP3    H254369   1.486   5.328   4.173  2.5154  1.7745 -0.4670
10960TIP3   OH254370   4.211   1.578  16.625  0.1676 -0.0353  0.5075
10960TIP3    H154371   4.263   1.544  16.697 -0.8936 -3.1986 -0.0669
10960TIP3    H254372   4.266   1.566  16.547 -0.8705 -2.3624  0.0511
10961TIP3   OH254373   3.630   3.493  12.709 -0.4517 -0.1823 -0.4207
10961TIP3    H154374   3.596   3.470  12.796 -1.5375 -0.2555 -0.8576
10961TIP3    H254375   3.555   3.486  12.651 -0.0129  1.0593 -1.1727
10962TIP3   OH254376   3.944   1.399   2.085  0.6279  0.1721 -0.0854
10962TIP3    H154377   4.010   1.400   2.155  0.3578  0.5089  0.1656
10962TIP3    H254378   3.914   1.490   2.079 -0.6305 -0.1867  0.5751
10963TIP3   OH254379   6.207   4.182   3.202 -0.3971 -0.6691  0.4517
10963TIP3    H154380   6.299   4.155   3.197 -0.1877  0.1130 -0.2296
10963TIP3    H254381   6.208   4.274   3.175 -1.2858 -0.4238  1.1890
10964TIP3   OH254382   4.176   1.433   3.393  0.3100 -0.3748 -0.0898
10964TIP3    H154383   4.193   1.491   3.318 -0.5116  1.2154  0.8999
10964TIP3    H254384   4.144   1.352   3.354  0.8217  0.0665 -1.4953
10965TIP3   OH254385   2.917   2.112   6.223  0.3359  0.3228  0.6091
10965TIP3    H154386   2.983   2.182   6.217  1.4989 -0.7604  0.2998
10965TIP3    H254387   2.857   2.130   6.150  0.2211  1.3727  0.9396
10966TIP3   OH254388   6.780   6.164   2.583 -0.5001  0.0313  0.7593
10966TIP3    H154389   6.864   6.158   2.537 -1.3107 -1.9228 -0.6076
10966TIP3    H254390   6.803   6.174   2.675  1.2238 -0.3681  0.4017
10967TIP3   OH254391   3.422   0.667   2.731  0.3523  0.2201 -0.2038
10967TIP3    H154392   3.381   0.581   2.729  3.6583 -1.5215 -1.3482
10967TIP3    H254393   3.422   0.695   2.639  0.6959  0.6957 -0.0623
10968TIP3   OH254394   0.408   4.325  13.615 -1.1055  0.0247  0.6327
10968TIP3    H154395   0.415   4.370  13.700 -1.1631  0.3187  0.4823
10968TIP3    H254396   0.410   4.232  13.637  0.2606  0.0840  0.8541
10969TIP3   OH254397   3.104   2.790  16.686 -0.8048  0.5128 -0.5675
10969TIP3    H154398   3.094   2.839  16.604 -0.9087  0.7238 -0.4284
10969TIP3    H254399   3.106   2.698  16.658 -0.5705  0.5951 -0.8313
10970TIP3   OH254400   0.370   0.987   3.865  0.1129  0.5138 -0.2165
10970TIP3    H154401   0.455   1.016   3.833 -0.1578  0.7581 -0.7220
10970TIP3    H254402   0.306   1.025   3.804 -0.3758  0.5379  0.2944
10971TIP3   OH254403   2.083   6.392   5.184 -0.1445 -0.7088 -0.8340
10971TIP3    H154404   2.097   6.486   5.190  0.9019 -0.8391 -1.0609
10971TIP3    H254405   2.039   6.369   5.266  1.3423 -0.3126  0.1051
10972TIP3   OH254406   3.823   2.661  10.810 -0.0503  0.2161 -0.3176
10972TIP3    H154407   3.791   2.749  10.833  0.9445  0.6357 -0.4617
10972TIP3    H254408   3.744   2.610  10.795 -0.6553  1.0558 -0.0977
10973TIP3   OH254409   4.096   1.392   4.692 -0.0920 -0.0276  0.5114
10973TIP3    H154410   4.006   1.414   4.716 -0.2236  0.1927 -0.1781
10973TIP3    H254411   4.143   1.475   4.697 -0.3770  0.2638 -1.1273
10974TIP3   OH254412   5.412   2.809  11.657 -0.5838  0.7759  0.1720
10974TIP3    H154413   5.374   2.894  11.678 -0.3037  0.8769  0.2805
10974TIP3    H254414   5.339   2.756  11.625 -0.6504  1.2695 -0.5293
10975TIP3   OH254415   0.831   5.801   1.531 -0.1032 -0.3702  0.6236
10975TIP3    H154416   0.916   5.759   1.526 -0.0254 -0.1194 -0.5648
10975TIP3    H254417   0.849   5.887   1.569 -0.2572 -1.3156  3.0123
10976TIP3   OH254418   5.788   3.889   2.720  0.3363  0.8524 -0.0123
10976TIP3    H154419   5.808   3.982   2.720  0.5362  0.9003 -2.9892
10976TIP3    H254420   5.693   3.885   2.731  0.3047  1.4331 -0.0425
10977TIP3   OH254421   0.742   5.824   4.496  0.0371  0.5187 -0.2829
10977TIP3    H154422   0.703   5.787   4.417 -1.1222 -0.6615  0.7895
10977TIP3    H254423   0.698   5.908   4.508 -3.2038 -1.2375  1.5039
10978TIP3   OH254424   0.947   5.252  13.757 -0.0781  0.1343  0.3029
10978TIP3    H154425   1.041   5.269  13.763 -0.1431  1.2086 -1.1294
10978TIP3    H254426   0.909   5.336  13.731 -1.4114 -0.3520  0.6001
10979TIP3   OH254427   3.182   1.329   1.748  0.0654  0.3600  0.9435
10979TIP3    H154428   3.221   1.348   1.663  0.1399  2.3058  1.3564
10979TIP3    H254429   3.092   1.301   1.728 -0.2249  1.7012  0.2306
10980TIP3   OH254430   1.484   4.138   2.835  0.7487  0.2560  0.4666
10980TIP3    H154431   1.497   4.044   2.841  5.3644  0.5716 -1.2163
10980TIP3    H254432   1.498   4.170   2.924 -0.5432 -0.5246  0.9825
10981TIP3   OH254433   1.458   3.501   0.144 -0.7385 -0.0178 -0.6946
10981TIP3    H154434   1.507   3.420   0.147 -0.6924 -0.0123 -1.3419
10981TIP3    H254435   1.422   3.510   0.233  2.7699  1.4475  0.7565
10982TIP3   OH254436   6.633   5.032  14.364 -0.3988 -0.7518 -0.2217
10982TIP3    H154437   6.687   4.985  14.299 -1.5065 -1.7539 -0.4547
10982TIP3    H254438   6.694   5.091  14.407  0.8051 -1.5605 -0.7553
10983TIP3   OH254439   4.985   6.184  15.682 -0.4115 -0.2872 -0.5930
10983TIP3    H154440   5.046   6.243  15.639  0.6499 -1.0087 -0.1108
10983TIP3    H254441   4.989   6.209  15.775 -0.5586 -0.6068 -0.5003
10984TIP3   OH254442   4.000   6.666  11.716 -0.2152  0.1442  0.9655
10984TIP3    H154443   4.045   6.733  11.665 -1.4367  0.2806  0.0305
10984TIP3    H254444   3.922   6.710  11.750 -0.5448 -0.5413  1.1076
10985TIP3   OH254445   5.535   3.529  16.849  0.7458 -0.3294 -0.2755
10985TIP3    H154446   5.543   3.618  16.813  0.0222  0.3126  1.0573
10985TIP3    H254447   5.568   3.537  16.939 -0.9456 -0.9913  0.4468
10986TIP3   OH254448   0.620   1.220   3.125 -0.0604 -0.0098  0.3709
10986TIP3    H154449   0.594   1.162   3.196 -0.3963 -0.5131 -0.1478
10986TIP3    H254450   0.556   1.291   3.127  2.3721  2.3493  3.2771
10987TIP3   OH254451   6.578   3.141   4.251  0.1579 -0.4529 -0.1468
10987TIP3    H154452   6.525   3.169   4.176  2.0951 -0.3712 -1.5574
10987TIP3    H254453   6.514   3.105   4.313 -1.4848 -0.8604 -1.9627
10988TIP3   OH254454   1.120   4.725  10.426 -0.0354 -0.1198  0.0365
10988TIP3    H154455   1.213   4.705  10.435 -0.3633 -1.2631  1.1147
10988TIP3    H254456   1.118   4.812  10.385  1.4832 -0.9154 -1.8762
10989TIP3   OH254457   5.336   5.054   6.259 -0.0671  0.0437 -0.3044
10989TIP3    H154458   5.262   5.018   6.307  0.5703  1.5114  1.9414
10989TIP3    H254459   5.413   5.018   6.303  0.7167 -2.7073 -3.5501
10990TIP3   OH254460   1.091   2.292  15.127 -0.0541 -0.4367  0.1170
10990TIP3    H154461   1.094   2.239  15.206  3.1168 -2.5966 -1.2516
10990TIP3    H254462   1.007   2.271  15.087  0.3441 -3.1831  0.5298
10991TIP3   OH254463   2.140   6.662   5.234  0.0605 -0.4670 -0.5342
10991TIP3    H154464   2.235   6.646   5.230 -0.1179 -1.4890 -1.0754
10991TIP3    H254465   2.130   6.752   5.204  1.1342  0.8119  2.5905
10992TIP3   OH254466   4.070   0.332   3.132 -0.3854 -0.2432 -0.2995
10992TIP3    H154467   3.989   0.283   3.143  0.0348 -1.2503 -1.4359
10992TIP3    H254468   4.137   0.265   3.115  0.5966  0.5989  0.1025
10993TIP3   OH254469   5.491   2.696   3.360  0.2433  0.3085 -0.5798
10993TIP3    H154470   5.475   2.619   3.306  0.4665 -1.2461  1.4503
10993TIP3    H254471   5.424   2.759   3.332 -1.8407 -1.6842 -0.3848
10994TIP3   OH254472   0.509   3.498  16.592  0.0548 -0.9567  0.4915
10994TIP3    H154473   0.455   3.541  16.659  1.1052  0.6708  0.3441
10994TIP3    H254474   0.447   3.478  16.521 -0.2266  2.1611 -0.2965
10995TIP3   OH254475   1.116   6.039   5.253  0.2963 -0.2938 -0.1654
10995TIP3    H154476   1.110   5.997   5.339 -1.0782 -1.1999 -0.6653
10995TIP3    H254477   1.048   5.997   5.201  0.9611  0.3863 -1.6516
10996TIP3   OH254478   2.250   0.835  16.346  0.2470 -0.3051 -0.0116
10996TIP3    H154479   2.330   0.870  16.307  0.4729 -1.1218 -0.2952
10996TIP3    H254480   2.184   0.843  16.277  0.6040 -1.5856 -0.5210
10997TIP3   OH254481   1.614   6.223  14.624 -0.3807 -0.2118  0.1009
10997TIP3    H154482   1.541   6.248  14.567 -0.8246  0.6186  1.0052
10997TIP3    H254483   1.587   6.141  14.664  1.1400 -2.4100 -2.9952
10998TIP3   OH254484   5.148   3.829  13.112  0.6218 -0.1387  0.3245
10998TIP3    H154485   5.183   3.790  13.192 -0.6923  1.0444  1.5245
10998TIP3    H254486   5.196   3.911  13.103  1.1590 -0.5253 -0.4402
10999TIP3   OH254487   5.960   2.143   0.608  0.1503  0.5920  0.7788
10999TIP3    H154488   6.018   2.166   0.680  1.3958 -1.0114  0.3435
10999TIP3    H254489   5.873   2.139   0.647  0.7086  0.3759  2.0352
11000TIP3   OH254490   5.167   1.275   0.157  0.1246 -0.1146  0.4168
11000TIP3    H154491   5.110   1.254   0.231 -0.4407  1.8308  0.5902
11000TIP3    H254492   5.188   1.367   0.169  1.9892 -0.3694 -0.5653
11001TIP3   OH254493   1.167   5.337  12.312  0.4814 -0.1813  0.0849
11001TIP3    H154494   1.188   5.247  12.287 -1.0208 -1.6068  3.3482
11001TIP3    H254495   1.087   5.357  12.264  0.5632 -0.7383 -0.2984
11002TIP3   OH254496   4.443   2.753   3.218  0.0619  0.0325  0.0183
11002TIP3    H154497   4.482   2.794   3.142  1.3897 -1.2096 -0.0187
11002TIP3    H254498   4.514   2.749   3.283 -0.4477 -0.7797  0.5541
11003TIP3   OH254499   6.172   5.535   3.621 -0.4943  0.1330 -0.3772
11003TIP3    H154500   6.229   5.490   3.559 -0.8058 -1.6723  0.5606
11003TIP3    H254501   6.200   5.503   3.707 -1.4402  0.9440  0.2638
11004TIP3   OH254502   2.246   6.162  11.922 -0.0326 -0.4692 -0.1937
11004TIP3    H154503   2.292   6.115  11.991 -1.3260 -0.1903  0.9116
11004TIP3    H254504   2.192   6.095  11.879 -0.2748 -0.3993 -0.0049
11005TIP3   OH254505   5.775   2.414   2.179 -0.2795 -0.0886  0.5487
11005TIP3    H154506   5.721   2.338   2.156 -0.9832  0.4905  0.2565
11005TIP3    H254507   5.844   2.378   2.235 -2.0090 -0.5726  2.4647
11006TIP3   OH254508   5.011   6.302  16.055  0.4204  0.4494 -0.0298
11006TIP3    H154509   4.978   6.363  15.989 -0.3462  0.0151 -0.0651
11006TIP3    H254510   5.055   6.357  16.119  0.1774  0.9910 -0.3179
11007TIP3   OH254511   1.364   1.533  11.648  0.0922 -0.0764 -0.3504
11007TIP3    H154512   1.311   1.595  11.598 -0.5355 -0.9277 -0.7688
11007TIP3    H254513   1.308   1.505  11.720  0.4022 -0.0902 -0.1114
11008TIP3   OH254514   1.066   4.764  12.390  0.5372 -0.0720 -0.4737
11008TIP3    H154515   1.021   4.733  12.312  0.4200 -0.4937 -0.2440
11008TIP3    H254516   1.004   4.823  12.432 -0.2993 -1.5573  0.4641
11009TIP3   OH254517   6.751   3.251   2.643 -0.6730 -0.2574 -0.4882
11009TIP3    H154518   6.739   3.264   2.549  0.3785 -1.5521 -0.8350
11009TIP3    H254519   6.783   3.334   2.676 -0.5480  0.0499 -1.3697
11010TIP3   OH254520   6.167   1.161   0.287  0.1718 -0.2180  0.4520
11010TIP3    H154521   6.255   1.164   0.250  0.4613  0.1613  1.1540
11010TIP3    H254522   6.140   1.252   0.292 -0.4084 -0.3563 -0.0993
11011TIP3   OH254523   3.725   4.406  15.942 -0.1921 -1.0660  0.6388
11011TIP3    H154524   3.636   4.399  15.910  0.6287 -3.6173 -1.3626
11011TIP3    H254525   3.721   4.373  16.032 -0.8708 -3.9308 -0.3592
11012TIP3   OH254526   5.061   1.379   2.510  0.0173 -0.1018 -0.5066
11012TIP3    H154527   5.075   1.302   2.454  2.1407 -2.0083  2.3380
11012TIP3    H254528   5.034   1.342   2.595  3.4236  1.9247  1.7067
11013TIP3   OH254529   3.989   4.934  16.916  0.1258 -0.1533 -0.2762
11013TIP3    H154530   4.066   4.982  16.946 -0.0666 -1.1312  2.0194
11013TIP3    H254531   3.921   5.000  16.907  0.9136  0.5569 -1.2690
11014TIP3   OH254532   1.389   2.906  16.302  0.2835  0.5822 -0.1604
11014TIP3    H154533   1.438   2.864  16.231 -1.4536  0.6774 -1.4575
11014TIP3    H254534   1.307   2.859  16.307  0.9978 -0.5721  3.0335
11015TIP3   OH254535   1.499   4.758   2.300  0.5345 -0.4305  0.5814
11015TIP3    H154536   1.453   4.675   2.304  1.4651 -0.9752  0.4058
11015TIP3    H254537   1.509   4.785   2.392  0.5094 -0.6754  0.6558
11016TIP3   OH254538   5.257   2.910   2.874 -0.1523  0.0398 -0.1470
11016TIP3    H154539   5.294   2.843   2.817 -1.4655 -0.8879  0.0404
11016TIP3    H254540   5.333   2.961   2.903  0.9916 -1.7497  0.2155
11017TIP3   OH254541   6.051   2.436  15.758 -0.0855 -0.2464 -0.1707
11017TIP3    H154542   6.024   2.527  15.771 -0.7412 -0.4829  0.1664
11017TIP3    H254543   6.077   2.431  15.666 -2.1889 -0.2504 -0.8203
11018TIP3   OH254544   2.862   4.453   1.896 -0.0799 -0.2589 -0.1728
11018TIP3    H154545   2.928   4.426   1.832 -0.1998  1.0634 -0.8956
11018TIP3    H254546   2.785   4.475   1.843 -0.1228  1.0445  0.3930
11019TIP3   OH254547   1.022   5.434  15.976  0.0900  0.3632  0.3650
11019TIP3    H154548   0.946   5.493  15.977 -1.0995 -1.0647  2.7044
11019TIP3    H254549   0.992   5.359  15.924  0.6855  0.6595 -0.4358
11020TIP3   OH254550   5.565   3.216  10.662 -0.3140 -0.3114  0.3120
11020TIP3    H154551   5.650   3.179  10.684  0.8405  1.5891 -0.6769
11020TIP3    H254552   5.523   3.231  10.747  0.6937 -0.4687  0.8496
11021TIP3   OH254553   6.814   0.059   6.013  0.3009  0.6575  0.0963
11021TIP3    H154554   6.908   0.061   5.996  0.4995 -1.3599  0.7439
11021TIP3    H254555   6.796   0.140   6.059  2.3608 -0.3322  2.8515
11022TIP3   OH254556   6.611   2.115  15.032 -0.8748  0.1254 -0.0734
11022TIP3    H154557   6.657   2.084  14.954  0.2113 -0.9648  0.9603
11022TIP3    H254558   6.528   2.068  15.031  0.0331 -1.5427  0.5483
11023TIP3   OH254559   0.099   6.623   5.843  0.5158  0.2055 -0.4754
11023TIP3    H154560   0.086   6.546   5.787  0.6973 -1.9541  2.2378
11023TIP3    H254561   0.191   6.646   5.831  0.7562 -0.7244 -0.5005
11024TIP3   OH254562   3.286   1.131  16.795  0.1338  0.3086 -0.2584
11024TIP3    H154563   3.211   1.174  16.753 -0.3875 -2.1552 -2.1222
11024TIP3    H254564   3.262   1.127  16.888 -3.0111 -1.9555 -0.9938
11025TIP3   OH254565   4.555   1.756   2.224  0.0148  0.6979  0.7429
11025TIP3    H154566   4.622   1.782   2.287 -0.5073  1.6810  0.9097
11025TIP3    H254567   4.550   1.661   2.233 -1.5031  0.9299  3.7225
11026TIP3   OH254568   0.743   6.471  16.849  0.0971  0.9320 -0.4767
11026TIP3    H154569   0.799   6.407  16.893  1.6196  1.6743 -1.2448
11026TIP3    H254570   0.716   6.531  16.918  0.7353  0.8890 -0.1839
11027TIP3   OH254571   6.006   4.341   1.355 -0.2417  0.3757 -0.4353
11027TIP3    H154572   6.097   4.333   1.382  0.2091 -1.4175 -2.2779
11027TIP3    H254573   6.007   4.402   1.282 -0.5497  0.4474 -0.3833
11028TIP3   OH254574   1.636   5.843  13.263  0.4256 -0.1268  0.2027
11028TIP3    H154575   1.699   5.851  13.335  1.4566 -1.7039 -0.4678
11028TIP3    H254576   1.668   5.905  13.197  0.1305  0.4858  0.6174
11029TIP3   OH254577   0.025   1.964   5.696  0.6454  0.1832  0.5709
11029TIP3    H154578  -0.037   2.025   5.735 -0.7100 -0.9593  0.2824
11029TIP3    H254579  -0.024   1.920   5.627  1.8275 -0.6408  0.2231
11030TIP3   OH254580   3.183   4.142  16.129  0.4700  0.2851  0.1999
11030TIP3    H154581   3.253   4.158  16.066  0.7363  1.2191  0.7268
11030TIP3    H254582   3.103   4.140  16.076  0.6878  1.1085 -0.1721
11031TIP3   OH254583   2.786   1.195  13.227  0.2794  0.0839 -0.2160
11031TIP3    H154584   2.765   1.104  13.248 -1.3847  0.2290 -1.0814
11031TIP3    H254585   2.702   1.241  13.233  0.3401  0.8407 -3.3381
11032TIP3   OH254586   1.382   3.760  14.783 -0.3526  0.2821 -0.2519
11032TIP3    H154587   1.382   3.844  14.828  1.1799 -0.1954  0.7137
11032TIP3    H254588   1.294   3.724  14.799 -1.1213  1.7785 -0.9085
11033TIP3   OH254589   6.232   2.469  11.171 -0.4376  0.1636  0.0275
11033TIP3    H154590   6.322   2.474  11.140  0.4753 -0.4415  2.4220
11033TIP3    H254591   6.216   2.553  11.214 -1.0092  0.2421 -0.3215
11034TIP3   OH254592   1.770   4.486   5.139 -0.8028 -0.3239  0.3811
11034TIP3    H154593   1.742   4.564   5.090 -0.3250  0.3911  1.2029
11034TIP3    H254594   1.688   4.446   5.168 -1.1039 -0.8869 -1.1524
11035TIP3   OH254595   0.435   0.163  16.235 -0.3533  0.1950 -0.4936
11035TIP3    H154596   0.502   0.217  16.193 -0.9108  0.4772 -1.0373
11035TIP3    H254597   0.389   0.120  16.163 -0.6105 -0.1777 -0.1160
11036TIP3   OH254598   0.587   4.208   6.671  0.1014  1.1073 -0.0844
11036TIP3    H154599   0.530   4.136   6.644  0.3855  0.5378  0.7968
11036TIP3    H254600   0.667   4.196   6.620  0.4060  0.3935  0.5493
11037TIP3   OH254601   4.614   0.235   1.171  0.0912 -0.1334 -0.0562
11037TIP3    H154602   4.653   0.280   1.096  0.1316  0.0770  0.0918
11037TIP3    H254603   4.550   0.296   1.206 -0.4600 -0.5221 -0.3667
11038TIP3   OH254604   5.513   1.272  15.040  0.4167  0.1854  0.0769
11038TIP3    H154605   5.455   1.280  14.964  0.4193 -1.0054 -0.0739
11038TIP3    H254606   5.506   1.180  15.066  1.7482  0.1665  0.4500
11039TIP3   OH254607   3.729   1.975   1.584 -0.5426  0.1172  0.2682
11039TIP3    H154608   3.685   1.892   1.568 -0.0433 -0.4801  1.8559
11039TIP3    H254609   3.817   1.951   1.612  0.0239  1.2342 -0.4554
11040TIP3   OH254610   4.044   6.580  16.861 -0.2887 -0.5091 -0.1202
11040TIP3    H154611   4.099   6.582  16.782  1.1850  1.4808  0.8644
11040TIP3    H254612   3.963   6.538  16.833  0.0970  0.3239 -2.7399
11041TIP3   OH254613   2.398   3.197   2.199  0.5974  0.1948  0.4150
11041TIP3    H154614   2.371   3.142   2.126 -2.3878  0.3867  1.2453
11041TIP3    H254615   2.490   3.217   2.182  0.4615 -1.1464 -2.3627
11042TIP3   OH254616   6.373   1.761  14.819  0.5482 -0.6896 -0.2102
11042TIP3    H154617   6.366   1.666  14.812  0.3523 -0.9909  2.9649
11042TIP3    H254618   6.358   1.792  14.729  0.9670 -3.6250 -1.4099
11043TIP3   OH254619   5.121   5.906  12.209  0.3424  0.9185  0.7957
11043TIP3    H154620   5.140   5.824  12.163 -0.7898  0.5305  0.9759
11043TIP3    H254621   5.207   5.942  12.232  0.9981  1.4145 -2.0904
11044TIP3   OH254622   3.485   5.167   1.020 -0.3860 -0.2915 -0.5405
11044TIP3    H154623   3.531   5.125   1.093  0.6464  2.6186  0.6548
11044TIP3    H254624   3.544   5.157   0.946  0.1827 -0.3426 -0.0947
11045TIP3   OH254625   5.853   5.784  13.229 -0.5076 -0.1303  0.3151
11045TIP3    H154626   5.941   5.769  13.262 -0.3135 -0.5383 -0.3609
11045TIP3    H254627   5.822   5.862  13.275 -0.1116 -0.4610  1.1638
11046TIP3   OH254628   4.094   5.392   1.912  0.9828  0.2055  0.0594
11046TIP3    H154629   4.019   5.383   1.971  2.7406 -1.0904  2.2226
11046TIP3    H254630   4.147   5.461   1.952  1.5230  0.3269 -0.8427
11047TIP3   OH254631   1.499   6.406  11.178  0.0429 -0.3411 -0.2961
11047TIP3    H154632   1.504   6.383  11.271  0.2896 -1.5358 -0.5862
11047TIP3    H254633   1.569   6.355  11.137 -0.2953 -0.1073 -1.1839
11048TIP3   OH254634   4.177   6.569   4.030  0.4052  0.2833  0.3386
11048TIP3    H154635   4.193   6.514   4.107 -2.5121 -0.5449  0.4870
11048TIP3    H254636   4.172   6.507   3.957 -2.5396  0.2115  0.4520
11049TIP3   OH254637   5.618   2.508   0.202 -0.5061  0.6318 -0.0413
11049TIP3    H154638   5.686   2.562   0.243  0.6036  0.3133 -1.4052
11049TIP3    H254639   5.665   2.434   0.164 -1.9154 -0.9588  1.1276
11050TIP3   OH254640   0.353   6.247   2.217  0.1514 -0.0922 -0.7827
11050TIP3    H154641   0.346   6.335   2.180  0.3415 -0.0329 -0.6777
11050TIP3    H254642   0.442   6.241   2.250 -0.0037 -0.1612 -0.3724
11051TIP3   OH254643   1.150   2.922  14.836 -0.1646  0.4646 -0.4459
11051TIP3    H154644   1.078   2.916  14.899  0.9144  1.9483  1.0484
11051TIP3    H254645   1.215   2.978  14.880  2.1644 -1.2635 -1.4400
11052TIP3   OH254646   3.397   1.498   4.252  0.3650 -0.1635 -0.0439
11052TIP3    H154647   3.327   1.504   4.317  0.0576 -0.9211 -0.2990
11052TIP3    H254648   3.355   1.457   4.176  0.3659  1.8613 -1.2104
11053TIP3   OH254649   3.319   4.291  10.922  0.0401 -0.1020  0.3334
11053TIP3    H154650   3.248   4.267  10.982  0.4881  1.0289  1.3415
11053TIP3    H254651   3.309   4.230  10.849 -0.2564 -1.8063  1.7247
11054TIP3   OH254652   5.220   1.284   4.197  0.2176  0.1526  0.1774
11054TIP3    H154653   5.196   1.217   4.133  0.4722  0.3575 -0.1348
11054TIP3    H254654   5.302   1.320   4.164  0.8752 -0.4178  1.1288
11055TIP3   OH254655   3.209   0.817  15.654 -0.0040 -0.3120 -0.0720
11055TIP3    H154656   3.114   0.805  15.656 -0.0577  0.1271  1.4443
11055TIP3    H254657   3.239   0.758  15.585 -1.3564 -0.5882 -0.4578
11056TIP3   OH254658   1.056   6.467   4.400 -0.0321 -0.1274 -0.0464
11056TIP3    H154659   1.063   6.473   4.495  0.2808  1.0658 -0.1329
11056TIP3    H254660   1.145   6.451   4.370  0.0828  0.7297 -0.2021
11057TIP3   OH254661   2.432   5.343   3.552  0.8613 -0.3998 -0.3240
11057TIP3    H154662   2.487   5.418   3.532  0.8738 -0.4163 -0.3528
11057TIP3    H254663   2.465   5.273   3.495 -0.3181  0.0634 -1.6511
11058TIP3   OH254664   6.026   6.669   5.093 -0.5078 -0.2102 -0.3831
11058TIP3    H154665   5.942   6.624   5.085 -1.0564  0.3988  1.3853
11058TIP3    H254666   6.038   6.713   5.009 -1.9781 -0.2821 -0.6546
11059TIP3   OH254667   5.334   4.789   3.987  0.5555 -0.5605  0.3661
11059TIP3    H154668   5.342   4.756   3.898 -0.1636 -0.0243  0.0934
11059TIP3    H254669   5.422   4.821   4.009  0.5346  0.1105 -0.4753
11060TIP3   OH254670   0.194   2.318  12.999 -0.4144 -0.6821  0.1260
11060TIP3    H154671   0.238   2.387  13.050 -1.3421 -0.4183  0.5902
11060TIP3    H254672   0.204   2.346  12.908 -2.1452  0.9579  0.3704
11061TIP3   OH254673   5.164   6.224   0.170  0.1178  0.4831 -0.5176
11061TIP3    H154674   5.096   6.230   0.237  0.0943 -1.6410 -0.2832
11061TIP3    H254675   5.235   6.279   0.203  0.9270 -2.0236  2.3511
11062TIP3   OH254676   2.821   0.981  14.846  0.4929  0.2932 -0.1782
11062TIP3    H154677   2.731   0.948  14.845  0.3990  0.4495 -2.4746
11062TIP3    H254678   2.867   0.927  14.781  2.0132  0.3695  0.7972
11063TIP3   OH254679   1.197   3.510  10.783 -0.2766  0.1733 -0.3179
11063TIP3    H154680   1.219   3.504  10.690 -1.2690 -2.0046 -0.4849
11063TIP3    H254681   1.245   3.587  10.814  0.1567  0.9198 -2.5875
11064TIP3   OH254682   2.074   1.243  15.482  0.1330 -0.4015  0.0484
11064TIP3    H154683   2.061   1.282  15.396  0.9858  1.5307  0.7445
11064TIP3    H254684   2.069   1.148  15.467 -0.3772 -0.0868 -1.9914
11065TIP3   OH254685   0.120   0.198   2.903 -0.6334  0.0365  0.0897
11065TIP3    H154686   0.049   0.261   2.888  1.8802  3.1434  0.3032
11065TIP3    H254687   0.185   0.246   2.953 -0.2470 -4.0739  4.2581
11066TIP3   OH254688   1.267   4.756   0.231  0.1717 -0.1033  0.0352
11066TIP3    H154689   1.231   4.685   0.284  0.2092  0.2862  0.5889
11066TIP3    H254690   1.352   4.723   0.202 -0.0557 -0.5074 -0.1849
11067TIP3   OH254691   6.459   5.177  14.176 -0.1437 -0.8795 -0.1248
11067TIP3    H154692   6.529   5.117  14.201  0.9348  0.3511 -0.1410
11067TIP3    H254693   6.440   5.154  14.085  1.4091 -0.1376 -0.6680
11068TIP3   OH254694   1.803   0.497  12.682  0.2076  0.4092  0.1279
11068TIP3    H154695   1.832   0.564  12.743  0.1875  0.1497  0.4266
11068TIP3    H254696   1.845   0.520  12.599 -0.8309  1.5286 -0.1077
11069TIP3   OH254697   2.619   2.738   2.662  0.0187  0.2330 -0.0269
11069TIP3    H154698   2.600   2.831   2.675 -0.5613 -0.0092  0.9588
11069TIP3    H254699   2.591   2.696   2.743 -1.0599 -0.9973 -0.9866
11070TIP3   OH254700   3.949   4.305   6.378  0.0831  0.4102 -0.0642
11070TIP3    H154701   4.014   4.345   6.320  1.5730  0.8504  1.7918
11070TIP3    H254702   3.954   4.212   6.359  1.6089  0.3817  0.3197
11071TIP3   OH254703   2.879   6.676  12.803  0.3586  0.1827  0.0508
11071TIP3    H154704   2.825   6.755  12.801 -0.6921 -0.5071 -1.7621
11071TIP3    H254705   2.934   6.684  12.724  0.1233 -0.9632 -0.2365
11072TIP3   OH254706   2.377   6.576   2.464 -0.0526 -0.4589 -0.4853
11072TIP3    H154707   2.402   6.518   2.536  4.5471  0.4241 -1.0845
11072TIP3    H254708   2.364   6.661   2.505 -0.1103 -0.5142 -0.3889
11073TIP3   OH254709   0.670   1.181  16.326  0.0405 -0.2485  0.2051
11073TIP3    H154710   0.665   1.216  16.415 -0.2999  0.0800  0.0600
11073TIP3    H254711   0.764   1.180  16.306  0.0166  2.5675 -0.5407
11074TIP3   OH254712   2.999   4.401  10.970  0.2678  0.2637 -0.2315
11074TIP3    H154713   2.982   4.307  10.964  1.7893  0.0103 -0.9643
11074TIP3    H254714   3.070   4.409  11.034  0.0679  0.9286 -0.0797
11075TIP3   OH254715   5.969   6.717  16.410 -0.6193 -0.0772  0.4704
11075TIP3    H154716   6.023   6.665  16.350 -2.2494 -1.6598  0.3104
11075TIP3    H254717   5.957   6.800  16.364  0.2247 -0.3363 -0.2665
11076TIP3   OH254718   1.526   5.233   2.924 -0.0393 -0.6926  0.5875
11076TIP3    H154719   1.479   5.314   2.946  1.2180 -0.1370  1.3459
11076TIP3    H254720   1.470   5.163   2.956 -1.9459 -0.2604 -1.4918
11077TIP3   OH254721   1.424   1.536  14.822  0.1095 -0.4731  0.0046
11077TIP3    H154722   1.434   1.570  14.733  1.1825 -1.0510 -0.1073
11077TIP3    H254723   1.375   1.604  14.868  0.4736  0.3147 -0.7403
11078TIP3   OH254724   2.963   6.474   4.068 -0.1309  0.1685  0.5028
11078TIP3    H154725   2.911   6.553   4.056  0.7687  0.7455  0.3173
11078TIP3    H254726   3.050   6.506   4.095  0.8308 -0.6304 -1.4492
11079TIP3   OH254727   2.645   2.714  16.143  0.0276 -0.0308 -0.5580
11079TIP3    H154728   2.578   2.658  16.104  1.8060 -1.8729 -1.2121
11079TIP3    H254729   2.707   2.652  16.182  0.7319  1.6292  1.0663
11080TIP3   OH254730   0.823   4.845   0.703  0.3598 -0.5708 -0.5327
11080TIP3    H154731   0.730   4.849   0.725  0.8586  0.4000  1.5526
11080TIP3    H254732   0.850   4.756   0.728  0.1466 -0.6270 -0.5027
11081TIP3   OH254733   5.472   4.355  12.681 -0.0164  0.0355  0.6075
11081TIP3    H154734   5.413   4.404  12.624  0.1533 -0.5967 -0.1391
11081TIP3    H254735   5.479   4.408  12.760  1.2333  1.9030 -0.6764
11082TIP3   OH254736   1.213   6.561  12.149 -0.0584  0.5807 -0.5530
11082TIP3    H154737   1.226   6.474  12.187 -1.7471 -0.0194 -1.2570
11082TIP3    H254738   1.301   6.589  12.123  0.7103 -0.2936  0.9558
11083TIP3   OH254739   2.641   0.181  16.717  0.0038  0.3421  0.3794
11083TIP3    H154740   2.551   0.149  16.710  0.3983 -0.4724 -1.3241
11083TIP3    H254741   2.680   0.127  16.787 -0.2867 -0.6360 -0.1995
11084TIP3   OH254742   2.995   1.386   2.409 -0.2123  0.2411  0.0117
11084TIP3    H154743   2.976   1.462   2.465  0.4374  1.1603 -0.9542
11084TIP3    H254744   2.956   1.409   2.325  0.2223 -0.3837 -0.3640
11085TIP3   OH254745   4.859   6.471   5.377 -0.1989 -0.1488  0.2667
11085TIP3    H154746   4.919   6.546   5.377  1.7204 -1.5757 -1.5342
11085TIP3    H254747   4.784   6.501   5.325  0.9553  0.2818 -1.2146
11086TIP3   OH254748   4.488   5.412  16.187  0.2963 -0.2865 -0.0810
11086TIP3    H154749   4.512   5.433  16.277  1.1344  0.6465 -0.5126
11086TIP3    H254750   4.407   5.361  16.195 -0.3850  0.9289  1.1407
11087TIP3   OH254751   2.689   3.227   3.580  0.1423  0.0873 -0.1042
11087TIP3    H154752   2.692   3.149   3.524 -2.3405  0.6959 -1.2294
11087TIP3    H254753   2.719   3.298   3.524  1.6891  0.1012  0.6936
11088TIP3   OH254754   5.029   0.129   0.928  0.0579 -0.2150 -0.1220
11088TIP3    H154755   4.976   0.108   1.005 -0.0231 -2.8040 -0.7816
11088TIP3    H254756   4.965   0.155   0.861 -0.0059  0.4376  0.1809
11089TIP3   OH254757   0.558   0.584  15.123  0.0726  0.4320 -0.4348
11089TIP3    H154758   0.576   0.491  15.138 -3.7479 -0.0715  2.6006
11089TIP3    H254759   0.492   0.585  15.054 -2.2772  0.4613  1.6781
11090TIP3   OH254760   0.514   4.027   1.225  0.1728  0.1858  0.4812
11090TIP3    H154761   0.564   3.962   1.276 -0.1364 -0.9003 -0.5631
11090TIP3    H254762   0.429   3.985   1.210 -0.1833  1.0136  0.1255
11091TIP3   OH254763   3.373   3.998   4.144  0.8722 -0.3459  0.2447
11091TIP3    H154764   3.347   3.908   4.163  0.1430 -0.3977 -0.8993
11091TIP3    H254765   3.295   4.038   4.106  2.1231 -0.2459 -2.4601
11092TIP3   OH254766   1.391   0.454  11.351  0.3806  0.1113  0.1521
11092TIP3    H154767   1.389   0.529  11.292  1.1517 -0.3638 -0.5087
11092TIP3    H254768   1.439   0.484  11.428 -0.7215  0.7681  0.6011
11093TIP3   OH254769   2.049   6.493  11.734  0.4024  0.1209 -0.8392
11093TIP3    H154770   2.110   6.492  11.807 -2.2971  1.6440  1.6764
11093TIP3    H254771   2.050   6.584  11.704 -1.1333  0.3846 -0.1936
11094TIP3   OH254772   3.629   0.989   5.466  0.6645 -0.6665  0.3896
11094TIP3    H154773   3.720   1.018   5.459  0.3233  0.4234  0.2371
11094TIP3    H254774   3.619   0.961   5.557  0.8782  0.2221  0.6927
11095TIP3   OH254775   6.647   4.682  12.047 -0.4535  0.2744  0.1114
11095TIP3    H154776   6.638   4.776  12.032 -4.0036  0.1964  1.0237
11095TIP3    H254777   6.648   4.673  12.143  0.5854 -0.6274  0.0490
11096TIP3   OH254778   1.920   4.095  13.979 -0.2722  0.0989 -0.1423
11096TIP3    H154779   1.894   4.004  13.965 -0.6339  0.4175 -1.8424
11096TIP3    H254780   1.967   4.118  13.898  0.5703  1.1701  0.6258
11097TIP3   OH254781   4.161   2.603   2.585  0.0081 -0.2529 -0.0691
11097TIP3    H154782   4.189   2.586   2.675  2.9950 -1.5354 -1.1044
11097TIP3    H254783   4.201   2.687   2.562  1.2738 -1.0353 -0.8686
11098TIP3   OH254784   0.535   6.340   1.797  0.1542 -0.8526  0.1397
11098TIP3    H154785   0.611   6.303   1.752  0.2273 -1.1426  0.4988
11098TIP3    H254786   0.541   6.434   1.781  1.7865 -0.5878  1.9513
11099TIP3   OH254787   5.531   5.338   2.610 -0.0394 -0.0128 -0.2444
11099TIP3    H154788   5.514   5.374   2.697 -1.2884 -1.1411  0.0077
11099TIP3    H254789   5.610   5.285   2.622 -1.0698 -1.4211  0.6168
11100TIP3   OH254790   1.211   5.830  15.950  0.0358  0.1409 -0.0472
11100TIP3    H154791   1.116   5.825  15.943  0.0163  0.9132 -0.4097
11100TIP3    H254792   1.231   5.802  16.039 -0.6592  1.4985  0.5519
11101TIP3   OH254793   1.445   1.308  13.269 -0.6541 -0.1463 -0.1355
11101TIP3    H154794   1.443   1.404  13.264 -0.9643 -0.0443  1.3132
11101TIP3    H254795   1.389   1.287  13.344 -0.4196 -1.4505 -0.3012
11102TIP3   OH254796   1.756   1.569  17.152 -0.7027 -0.1940  0.3359
11102TIP3    H154797   1.801   1.653  17.154 -0.7084 -0.2048  1.3921
11102TIP3    H254798   1.826   1.504  17.165 -0.5771 -0.4246 -1.2733
11103TIP3   OH254799   6.679   1.320  15.715  0.7129  0.0939 -0.4175
11103TIP3    H154800   6.689   1.353  15.625  2.1251  1.0876  0.0589
11103TIP3    H254801   6.648   1.396  15.765  0.5767 -0.2707  0.0605
11104TIP3   OH254802   1.067   2.235   0.317  0.3555  0.1612 -0.8150
11104TIP3    H154803   1.062   2.329   0.334  0.2507 -0.0760  0.5317
11104TIP3    H254804   0.991   2.198   0.361  1.8976 -0.8750  1.1546
11105TIP3   OH254805   2.514   1.639  14.151 -0.2585 -0.0789  0.0928
11105TIP3    H154806   2.608   1.648  14.163  0.2967 -2.7910 -1.3482
11105TIP3    H254807   2.476   1.716  14.194  2.4718  0.2259  2.2081
11106TIP3   OH254808   6.329   3.626   4.407 -0.0221 -0.1847 -0.0947
11106TIP3    H154809   6.311   3.605   4.499 -1.4777  1.0088 -0.0744
11106TIP3    H254810   6.407   3.682   4.410  0.5219 -0.9278  0.2936
11107TIP3   OH254811   1.841   2.435   5.261 -0.0988 -0.1054  0.5594
11107TIP3    H154812   1.769   2.430   5.324 -0.5026  0.1704  0.1299
11107TIP3    H254813   1.920   2.424   5.314 -0.2186  2.9813  1.5649
11108TIP3   OH254814   0.783   1.544  10.951  0.0310  0.3491  0.0015
11108TIP3    H154815   0.743   1.514  10.870 -0.8269 -0.4107  0.6787
11108TIP3    H254816   0.709   1.567  11.007  0.6167  1.1444  0.4728
11109TIP3   OH254817   4.296   4.344   2.337 -0.5130 -0.8264 -0.0104
11109TIP3    H154818   4.306   4.330   2.432 -0.6457 -1.2034 -0.0477
11109TIP3    H254819   4.236   4.418   2.331  0.2059 -0.2178  0.1993
11110TIP3   OH254820   0.230   5.393   1.134 -0.2752  0.1186 -0.3889
11110TIP3    H154821   0.313   5.399   1.181 -1.3547  0.7711  1.5411
11110TIP3    H254822   0.190   5.480   1.144 -1.4477 -0.3484 -0.7698
11111TIP3   OH254823   4.793   3.551  14.978  0.5738 -0.7459 -0.0399
11111TIP3    H154824   4.863   3.554  15.044  0.1335 -1.1144  0.4532
11111TIP3    H254825   4.813   3.624  14.919  0.0281  0.7051  1.4777
11112TIP3   OH254826   4.512   4.432  13.125  0.2713 -0.0792 -0.0712
11112TIP3    H154827   4.504   4.454  13.218 -0.9614 -1.0154  0.0657
11112TIP3    H254828   4.442   4.482  13.082  0.2804 -0.3215 -0.3731
11113TIP3   OH254829   5.467   2.233  13.618 -0.5648  0.1312  0.0413
11113TIP3    H154830   5.445   2.231  13.712  0.6579  0.7734  0.3677
11113TIP3    H254831   5.439   2.320  13.589  1.8510  1.1864  0.5950
11114TIP3   OH254832   0.861   3.840  16.350  0.3709 -0.0122  0.1027
11114TIP3    H154833   0.887   3.875  16.435  0.2020  0.0201  0.1410
11114TIP3    H254834   0.780   3.792  16.368 -0.4079  1.1144 -0.2711
11115TIP3   OH254835   4.256   0.702  16.740  0.3031 -0.0559 -0.5347
11115TIP3    H154836   4.342   0.742  16.729  0.3978 -0.2435 -0.4810
11115TIP3    H254837   4.194   0.775  16.734  0.5219  0.2040  0.3161
11116TIP3   OH254838   0.931   6.284  13.427  0.4931  0.4353 -0.0560
11116TIP3    H154839   0.981   6.298  13.347  0.1873  0.9728 -0.1494
11116TIP3    H254840   0.872   6.359  13.434  0.4524  0.3532  0.6236
11117TIP3   OH254841   0.680   0.688  10.774  0.0924 -0.4516 -0.0483
11117TIP3    H154842   0.763   0.691  10.726  0.8408 -0.5280  1.1834
11117TIP3    H254843   0.632   0.615  10.734 -0.3301  0.8976 -2.1769
11118TIP3   OH254844   0.173   0.509   1.298 -0.3632 -0.4807 -0.4516
11118TIP3    H154845   0.189   0.550   1.213  0.4688  0.6200  0.1988
11118TIP3    H254846   0.180   0.581   1.361 -3.6434 -0.7359  0.3669
11119TIP3   OH254847   4.026   1.515   1.667  0.1485 -0.3377 -0.3619
11119TIP3    H154848   4.047   1.482   1.580 -1.4193 -0.4093 -0.7477
11119TIP3    H254849   4.103   1.567   1.692  2.1034 -3.0279 -0.3178
11120TIP3   OH254850   3.933   0.182  13.248 -0.0442  0.6364  0.1987
11120TIP3    H154851   3.981   0.167  13.330  0.1771  0.9565  0.1330
11120TIP3    H254852   3.988   0.244  13.200 -0.8625  1.5819  0.4321
11121TIP3   OH254853   3.465   5.636   2.944  0.3493 -0.2703  0.6071
11121TIP3    H154854   3.433   5.557   2.987 -0.3342  0.7606  2.0978
11121TIP3    H254855   3.447   5.706   3.007  0.6130  1.1239 -0.8016
11122TIP3   OH254856   3.403   0.949   4.070 -0.6659 -0.0666 -0.7185
11122TIP3    H154857   3.375   0.867   4.112  0.5652 -0.3760 -0.4690
11122TIP3    H254858   3.404   1.013   4.142 -1.3213  0.1118 -0.8543
11123TIP3   OH254859   2.181   4.402  11.119  0.2361 -0.5638 -0.4113
11123TIP3    H154860   2.251   4.359  11.168  0.5227  0.3934  0.0318
11123TIP3    H254861   2.140   4.331  11.068  0.7924 -1.3251  0.1896
11124TIP3   OH254862   2.119   5.452   6.506  0.7492  0.3286  0.0623
11124TIP3    H154863   2.096   5.511   6.434 -0.6425  2.2627  1.9594
11124TIP3    H254864   2.129   5.366   6.465 -2.1444  0.9055 -2.1434
11125TIP3   OH254865   3.819   4.314   2.386  0.0613  0.3423  0.1630
11125TIP3    H154866   3.840   4.325   2.293 -0.6284 -1.3625 -0.2463
11125TIP3    H254867   3.902   4.291   2.427  0.2971  0.7163 -0.0975
11126TIP3   OH254868   1.363   4.302  12.071  0.0783 -0.1041  0.2204
11126TIP3    H154869   1.438   4.353  12.041 -0.4027 -0.2549 -1.3319
11126TIP3    H254870   1.291   4.365  12.071 -0.4451 -0.6381 -1.3872
11127TIP3   OH254871   4.105   2.541   5.762  0.0143 -0.7823  0.1699
11127TIP3    H154872   4.190   2.525   5.720 -0.0456  0.6361 -0.5669
11127TIP3    H254873   4.086   2.633   5.742 -1.2954 -0.8374  1.0618
11128TIP3   OH254874   6.430   0.916   3.594  0.3200  0.1542  0.3781
11128TIP3    H154875   6.444   0.986   3.658  1.0707  0.5757 -0.2348
11128TIP3    H254876   6.339   0.925   3.568  0.2813  0.5981  0.6621
11129TIP3   OH254877   1.421   2.224   2.733  0.1466  0.5972  0.2020
11129TIP3    H154878   1.354   2.181   2.681  0.1956 -0.4173  0.9485
11129TIP3    H254879   1.484   2.257   2.669 -0.6048  0.7871 -0.4510
11130TIP3   OH254880   4.983   0.776   0.929  0.2031  0.5497 -0.4545
11130TIP3    H154881   5.039   0.848   0.959  1.9732 -1.4839  1.6211
11130TIP3    H254882   5.045   0.706   0.908 -1.5011 -0.9897 -0.5667
11131TIP3   OH254883   5.643   6.694  14.450  0.3760  0.3334 -0.5940
11131TIP3    H154884   5.648   6.765  14.387 -0.8797  1.6976  0.7502
11131TIP3    H254885   5.627   6.737  14.534  3.2478 -1.2757  0.9625
11132TIP3   OH254886   0.486   0.118  11.601  0.1780 -0.1353  0.2307
11132TIP3    H154887   0.436   0.190  11.562  0.2219  0.9780  2.1123
11132TIP3    H254888   0.575   0.131  11.568 -0.3689 -1.1361 -1.7936
11133TIP3   OH254889   6.343   4.117  15.312  0.3491  0.0323  0.5140
11133TIP3    H154890   6.285   4.167  15.368 -1.4103  0.3346 -1.4409
11133TIP3    H254891   6.350   4.031  15.353 -0.2344  0.4893  1.5859
11134TIP3   OH254892   5.402   2.801  16.904 -0.4041  0.2525 -0.1872
11134TIP3    H154893   5.371   2.712  16.925  0.1835  0.2641  0.7709
11134TIP3    H254894   5.490   2.805  16.942 -0.9417  1.6943  0.9616
11135TIP3   OH254895   1.503   4.826   1.487 -0.4806 -0.2692  0.2595
11135TIP3    H154896   1.554   4.824   1.568  2.2411 -2.0263 -1.3396
11135TIP3    H254897   1.471   4.736   1.477 -3.0488  0.5330  0.6185
11136TIP3   OH254898   3.432   3.964   5.747  0.4975  0.6113 -0.2172
11136TIP3    H154899   3.375   3.984   5.673 -0.2590  2.8125  0.8612
11136TIP3    H254900   3.396   3.884   5.784  0.0659  0.2268 -1.4233
11137TIP3   OH254901   1.955   5.226  15.200 -0.0932  0.1617 -0.2286
11137TIP3    H154902   2.002   5.289  15.255 -0.6188 -0.3826  0.8726
11137TIP3    H254903   1.952   5.268  15.114 -0.3270  1.5996  0.4451
11138TIP3   OH254904   5.125   2.706   4.820  0.1941  0.3094  0.4780
11138TIP3    H154905   5.152   2.797   4.833 -1.1277  1.1219 -1.7638
11138TIP3    H254906   5.137   2.692   4.726 -0.8863 -1.4148  0.5680
11139TIP3   OH254907   0.066   5.047  16.174  0.1154 -0.4110 -0.3571
11139TIP3    H154908  -0.004   4.992  16.139  0.2702 -1.0058  0.2539
11139TIP3    H254909   0.118   5.070  16.097  0.5825 -1.8907 -0.5102
11140TIP3   OH254910   2.759   2.111  17.238 -0.2681 -0.4628  0.2203
11140TIP3    H154911   2.775   2.042  17.302 -0.4043 -1.1743 -0.5008
11140TIP3    H254912   2.750   2.190  17.290  0.5752 -0.8679  1.0126
11141TIP3   OH254913   0.816   5.013  13.741 -0.4374 -0.4354 -0.3083
11141TIP3    H154914   0.889   4.952  13.744 -0.1643 -0.0882  0.9238
11141TIP3    H254915   0.854   5.097  13.765 -1.1082 -0.1145 -0.3309
11142TIP3   OH254916   6.391   3.719  11.298  0.0522 -0.0882 -0.0950
11142TIP3    H154917   6.465   3.780  11.300 -0.0191 -0.0142  1.4629
11142TIP3    H254918   6.430   3.636  11.273  1.0605 -0.4822  2.4920
11143TIP3   OH254919   3.488   0.959   3.818 -1.0317 -0.1018  0.7671
11143TIP3    H154920   3.503   0.867   3.793 -1.1115  0.0658  0.0844
11143TIP3    H254921   3.463   0.955   3.910  1.9288 -0.5248  1.6741
11144TIP3   OH254922   0.795   0.259   5.915  0.0569  0.6346 -0.1478
11144TIP3    H154923   0.700   0.264   5.922 -0.1007 -0.7995 -0.9167
11144TIP3    H254924   0.827   0.267   6.005 -1.0028 -2.2918  0.5741
11145TIP3   OH254925   3.396   4.071  13.644 -0.0515  0.3836  0.2913
11145TIP3    H154926   3.470   4.051  13.586 -0.1887 -0.0863  0.2745
11145TIP3    H254927   3.424   4.038  13.729 -1.4348 -2.6790 -0.2938
11146TIP3   OH254928   3.619   2.021  15.428  0.3956 -0.0616  0.3056
11146TIP3    H154929   3.528   2.020  15.458  0.6012 -0.3293  0.9325
11146TIP3    H254930   3.625   1.947  15.367  0.4729 -0.7748  1.1452
11147TIP3   OH254931   5.022   3.222   5.659  0.2617  0.5567  0.6104
11147TIP3    H154932   5.017   3.215   5.563  1.6576  2.0543  0.3973
11147TIP3    H254933   5.112   3.249   5.676  0.1175  0.0101  2.3885
11148TIP3   OH254934   4.780   5.141   2.477  0.2383 -0.1550 -0.5085
11148TIP3    H154935   4.731   5.160   2.397  0.9177 -0.0348 -0.9097
11148TIP3    H254936   4.789   5.225   2.522 -0.8441 -0.3608  0.1104
11149TIP3   OH254937   5.280   5.623   2.482  0.2676 -0.1542 -0.6035
11149TIP3    H154938   5.292   5.709   2.443 -1.4356 -0.2687 -1.4712
11149TIP3    H254939   5.347   5.568   2.442  0.4665  0.4452 -1.0904
11150TIP3   OH254940   1.352   0.787  13.205 -0.3474 -0.0437 -0.2245
11150TIP3    H154941   1.446   0.801  13.196 -0.2067 -0.5794  0.3835
11150TIP3    H254942   1.322   0.863  13.256 -0.2208  0.0602 -0.3040
11151TIP3   OH254943   5.405   6.617  14.942 -0.2163  0.0434  0.5173
11151TIP3    H154944   5.331   6.616  15.003 -0.2401  0.1268  0.4897
11151TIP3    H254945   5.385   6.549  14.878  1.0004 -1.8699  2.0259
11152TIP3   OH254946   6.471   6.270   4.729  0.6105 -0.9288 -0.0541
11152TIP3    H154947   6.554   6.314   4.711  0.9428 -1.3933  0.3105
11152TIP3    H254948   6.427   6.267   4.644 -0.4202  2.0531  0.2573
11153TIP3   OH254949   0.799   5.498   6.037 -0.0730 -0.4758 -0.6103
11153TIP3    H154950   0.737   5.425   6.038  0.3148 -0.8330 -1.4843
11153TIP3    H254951   0.745   5.577   6.034 -0.5277 -0.6542  1.3804
11154TIP3   OH254952   1.970   3.411  11.327  0.4901  0.1748 -0.0148
11154TIP3    H154953   1.936   3.359  11.255  0.0747 -0.5447  0.6772
11154TIP3    H254954   2.036   3.354  11.368 -0.7897 -0.3213  1.4577
11155TIP3   OH254955   2.984   4.644   6.540 -0.4485  0.2340  0.2881
11155TIP3    H154956   3.044   4.596   6.482 -1.4939  0.9633 -1.4956
11155TIP3    H254957   2.898   4.631   6.500 -1.5233 -0.7169  2.7296
11156TIP3   OH254958   4.149   0.308   0.159 -0.1569  0.0004 -0.2641
11156TIP3    H154959   4.120   0.265   0.240  0.0735  1.6105  0.7162
11156TIP3    H254960   4.197   0.240   0.112 -1.6466 -1.4311  0.1852
11157TIP3   OH254961   6.335   1.059   4.508 -0.1808 -0.1320 -0.6914
11157TIP3    H154962   6.274   1.048   4.581  1.6737  3.0798  1.6130
11157TIP3    H254963   6.422   1.058   4.549  1.0440  0.4800 -3.0668
11158TIP3   OH254964   4.402   1.029  16.801 -0.5406  0.4648 -0.0587
11158TIP3    H154965   4.461   1.008  16.874 -0.9765  0.4494  0.2960
11158TIP3    H254966   4.457   1.022  16.723 -0.4541 -1.1802  0.1099
11159TIP3   OH254967   1.472   6.384   5.145  0.3256 -0.1207  0.1787
11159TIP3    H154968   1.525   6.306   5.130 -0.9181 -0.8465 -0.6442
11159TIP3    H254969   1.382   6.355   5.129 -0.4478  0.8486  2.3196
11160TIP3   OH254970   1.022   5.484  11.408  0.7193  0.1523  0.3061
11160TIP3    H154971   1.023   5.505  11.501  3.6862 -1.0120  0.6557
11160TIP3    H254972   1.009   5.389  11.406 -1.8275  0.4552 -0.6683
11161TIP3   OH254973   5.650   5.677  12.478 -0.1229  0.1217  0.3801
11161TIP3    H154974   5.579   5.688  12.415 -0.4768 -1.4363  0.4663
11161TIP3    H254975   5.642   5.752  12.536 -1.5723  0.1032  0.2461
11162TIP3   OH254976   0.840   5.647   3.379  0.2171  0.2543  0.1277
11162TIP3    H154977   0.792   5.718   3.336  0.4029  1.1054  1.2730
11162TIP3    H254978   0.772   5.587   3.410  0.0766 -0.2782 -1.1764
11163TIP3   OH254979   2.808   2.031   4.158 -0.4454  0.1772 -0.2386
11163TIP3    H154980   2.764   1.968   4.101 -0.4832 -0.1049  0.1039
11163TIP3    H254981   2.854   1.978   4.222  0.6404  0.4632 -0.7576
11164TIP3   OH254982   4.596   5.520  13.038 -0.2036  0.0765  0.4343
11164TIP3    H154983   4.669   5.462  13.061 -0.2338  0.1070  0.6112
11164TIP3    H254984   4.576   5.498  12.947  0.0438  0.0866  0.3759
11165TIP3   OH254985   1.016   4.782  13.210  0.2444 -0.0893  0.1738
11165TIP3    H154986   1.059   4.857  13.171  0.2226  0.1333  0.5677
11165TIP3    H254987   0.960   4.819  13.279 -0.4696 -0.3834 -0.2308
11166TIP3   OH254988   3.417   0.231  14.068  0.1650  0.0660  0.0042
11166TIP3    H154989   3.464   0.265  14.144 -0.1920 -0.2422  0.3716
11166TIP3    H254990   3.399   0.308  14.014  0.3889  0.2945  0.2537
11167TIP3   OH254991   0.789   3.485  13.269 -0.2387 -0.6041 -0.2111
11167TIP3    H154992   0.694   3.482  13.279 -0.1900  1.1139  1.2307
11167TIP3    H254993   0.807   3.573  13.236  0.9126 -0.4807  0.6908
11168TIP3   OH254994   2.616   2.427   3.972 -0.1688  0.5654 -0.2784
11168TIP3    H154995   2.690   2.397   4.025 -1.0180  0.3608  0.8221
11168TIP3    H254996   2.555   2.353   3.972  0.3501  0.0562 -2.6467
11169TIP3   OH254997   4.366   0.901   4.946 -0.2607 -0.3296  0.0967
11169TIP3    H154998   4.435   0.849   4.905  0.9444  0.6730  0.7596
11169TIP3    H254999   4.299   0.838   4.971  1.1449 -1.5837  0.8460
11170TIP3   OH255000   6.227   6.165  13.263  0.4236  0.2132 -0.3624
11170TIP3    H155001   6.239   6.159  13.357 -0.5014  1.0368 -0.1737
11170TIP3    H255002   6.305   6.123  13.226  0.2345 -1.1855  0.7467
11171TIP3   OH255003   2.178   5.770   3.681  0.5450 -0.1290  0.3264
11171TIP3    H155004   2.170   5.675   3.684  0.2100 -0.0819  2.0456
11171TIP3    H255005   2.129   5.801   3.757 -0.0193  1.4797 -0.6193
11172TIP3   OH255006   5.065   1.581  16.045 -0.1069  0.0701  0.2347
11172TIP3    H155007   5.112   1.656  16.081  1.1392 -0.6837  0.2565
11172TIP3    H255008   5.133   1.514  16.034 -0.8471 -0.4527 -1.4702
11173TIP3   OH255009   0.407   4.100  12.703 -0.3627 -0.3311 -0.2380
11173TIP3    H155010   0.441   4.166  12.642  0.9328 -1.4282 -0.7312
11173TIP3    H255011   0.312   4.118  12.705 -0.1075  1.2753 -0.6619
11174TIP3   OH255012   2.467   5.121  10.600 -0.3149  0.4213 -0.0143
11174TIP3    H155013   2.476   5.122  10.505 -0.6872  0.5185 -0.0517
11174TIP3    H255014   2.374   5.138  10.615 -0.2468  0.4626  0.3677
11175TIP3   OH255015   0.219   2.719   5.563  0.1474 -0.7218  0.0656
11175TIP3    H155016   0.268   2.795   5.528 -0.4539 -0.6420 -0.6392
11175TIP3    H255017   0.272   2.643   5.537 -0.2639 -0.6601 -1.0138
11176TIP3   OH255018   0.410   1.664  13.148 -0.2802  0.3416 -0.3546
11176TIP3    H155019   0.498   1.639  13.175 -0.6931 -0.5407  0.2300
11176TIP3    H255020   0.398   1.620  13.063 -0.2647  0.2099 -0.2898
11177TIP3   OH255021   2.582   4.173   4.188  0.7974 -0.3884  0.1699
11177TIP3    H155022   2.663   4.205   4.148  0.7128  1.1094  1.0999
11177TIP3    H255023   2.521   4.246   4.182  0.0051 -0.9680  0.8539
11178TIP3   OH255024   1.633   6.049  14.400 -0.2943  0.4781  0.2849
11178TIP3    H155025   1.639   6.110  14.474 -2.8846 -1.5343  2.3595
11178TIP3    H255026   1.539   6.042  14.382  0.0563 -1.4900 -1.1204
11179TIP3   OH255027   5.348   5.372  16.108  0.2582  0.5704 -0.2681
11179TIP3    H155028   5.290   5.426  16.161  2.2253  1.6373  0.9151
11179TIP3    H255029   5.420   5.430  16.083  1.8328 -1.1450 -0.0099
11180TIP3   OH255030   5.211   1.400  16.619  0.0665 -0.7245 -0.3288
11180TIP3    H155031   5.161   1.481  16.609  1.2199  0.3525  1.9842
11180TIP3    H255032   5.300   1.423  16.592  0.2617 -1.4407 -0.3174
11181TIP3   OH255033   2.622   3.244  13.487  0.1518 -0.1585  0.4266
11181TIP3    H155034   2.694   3.288  13.443 -1.0590 -1.0860 -2.7433
11181TIP3    H255035   2.660   3.162  13.519  1.2113  0.8424  1.8977
11182TIP3   OH255036   1.975   0.830  12.255 -0.3659 -0.3308  0.4507
11182TIP3    H155037   1.919   0.811  12.180  0.5170  0.5312 -0.4391
11182TIP3    H255038   1.920   0.807  12.331 -2.0205  0.7007 -0.3664
11183TIP3   OH255039   2.420   0.053   0.545 -0.6162 -0.3168 -0.3249
11183TIP3    H155040   2.391   0.132   0.589  3.7925  1.0003  0.7496
11183TIP3    H255041   2.477   0.085   0.475  0.5718 -2.4942 -0.4295
11184TIP3   OH255042   6.358   0.160   3.975  0.0498  0.2727  0.2435
11184TIP3    H155043   6.315   0.079   4.002 -0.3388 -0.1651 -1.5822
11184TIP3    H255044   6.288   0.226   3.975  0.0823  0.3086  0.4229
11185TIP3   OH255045   1.438   2.363   3.187 -0.0615 -0.7617 -0.3345
11185TIP3    H155046   1.402   2.428   3.248 -0.3832  0.4278 -1.7400
11185TIP3    H255047   1.394   2.281   3.211 -0.6331 -0.1901  0.6327
11186TIP3   OH255048   0.361   6.263   4.499 -0.8638  0.1084 -0.0184
11186TIP3    H155049   0.451   6.234   4.485 -0.0413  2.1834  0.4936
11186TIP3    H255050   0.318   6.253   4.414  0.6757  1.6382 -1.0491
11187TIP3   OH255051   1.442   1.679   1.995 -0.0620  0.5377  0.3021
11187TIP3    H155052   1.464   1.586   1.994 -0.5168  0.4298 -0.4748
11187TIP3    H255053   1.515   1.721   2.041  1.2309  0.0566 -1.2141
11188TIP3   OH255054   1.543   5.109   2.018  0.2208 -0.4860 -0.1344
11188TIP3    H155055   1.582   5.025   2.038 -0.0350 -0.5809 -0.0286
11188TIP3    H255056   1.468   5.116   2.077  1.1203  0.4897  0.9325
11189TIP3   OH255057   0.595   1.722  14.294 -0.0499 -0.0523  0.1580
11189TIP3    H155058   0.683   1.755  14.276  0.0002 -1.1850 -2.0780
11189TIP3    H255059   0.605   1.662  14.367  1.2672 -0.9917 -0.7598
11190TIP3   OH255060   4.039   2.365  15.606  0.0598  0.5373  0.1043
11190TIP3    H155061   3.979   2.433  15.636 -1.6230  0.1221 -2.0243
11190TIP3    H255062   3.991   2.320  15.536  3.3292  1.0700 -2.7862
11191TIP3   OH255063   5.677   0.290   1.153 -0.3766  0.2806  0.5224
11191TIP3    H155064   5.724   0.235   1.090  0.5111 -0.3756  1.7189
11191TIP3    H255065   5.604   0.235   1.182 -0.8855  0.6466 -0.0388
11192TIP3   OH255066   2.429   1.062  13.890 -0.1809  0.5714  0.0103
11192TIP3    H155067   2.489   0.990  13.870 -0.5953  0.0103  0.7734
11192TIP3    H255068   2.342   1.025  13.882 -0.3924  0.3297  2.6442
11193TIP3   OH255069   0.887   3.084   0.166  0.3210  0.2773  0.0014
11193TIP3    H155070   0.956   3.149   0.151  0.2323  0.5301  0.6922
11193TIP3    H255071   0.848   3.072   0.079  1.8728 -0.6134 -0.6104
11194TIP3   OH255072   6.538   5.830  16.433  0.2509  0.5993 -0.3784
11194TIP3    H155073   6.562   5.763  16.496  0.8510 -0.5882 -1.8188
11194TIP3    H255074   6.456   5.799  16.395  1.1335  0.0389 -1.8943
11195TIP3   OH255075   0.633   4.977  16.476  0.0364 -0.1720 -0.7521
11195TIP3    H155076   0.696   4.916  16.438  1.6498  0.7660  0.2678
11195TIP3    H255077   0.658   5.062  16.441 -0.5253  0.2440 -0.1641
11196TIP3   OH255078   1.006   4.322  10.536 -0.1022  0.5211 -0.0406
11196TIP3    H155079   1.025   4.367  10.454 -1.0420 -1.2003 -1.2730
11196TIP3    H255080   0.911   4.326  10.545 -0.2982 -1.6669 -0.5331
11197TIP3   OH255081   3.243   1.403  12.182 -0.2376  0.0740  0.1277
11197TIP3    H155082   3.249   1.310  12.160 -1.4658  0.1024 -0.4082
11197TIP3    H255083   3.260   1.448  12.099 -0.5704  0.2989  0.1808
11198TIP3   OH255084   5.616   3.300  13.229  0.3841  0.2705  0.2607
11198TIP3    H155085   5.576   3.338  13.150  0.4689 -2.9488 -1.4885
11198TIP3    H255086   5.704   3.275  13.200  0.1042 -1.7839  1.0685
11199TIP3   OH255087   2.995   6.124  11.496  0.3980  0.1511  0.0693
11199TIP3    H155088   3.050   6.132  11.418  0.2740 -1.4189 -0.2151
11199TIP3    H255089   2.982   6.030  11.507 -2.1295  0.4363  0.1995
11200TIP3   OH255090   3.979   2.015  15.370  0.2363  0.0499 -0.3022
11200TIP3    H155091   4.003   2.072  15.296  0.3206 -0.6257 -0.8031
11200TIP3    H255092   4.033   1.937  15.358 -2.8352 -2.0288 -2.0831
11201TIP3   OH255093   0.061   5.241  16.558 -0.0595  0.2058 -0.1461
11201TIP3    H155094   0.053   5.332  16.529 -0.4622  0.8186  1.7880
11201TIP3    H255095  -0.029   5.212  16.571  0.0635 -0.5167 -0.8113
11202TIP3   OH255096   2.317   2.099   1.247 -0.8393  0.6348  0.0620
11202TIP3    H155097   2.292   2.094   1.154  1.1089 -1.1132 -0.4409
11202TIP3    H255098   2.268   2.027   1.288  1.1092 -1.0667 -0.4175
11203TIP3   OH255099   2.165   1.482  10.868 -0.0089  0.4851  0.3652
11203TIP3    H155100   2.146   1.576  10.871  0.8655  0.6393  1.9061
11203TIP3    H255101   2.173   1.463  10.775 -2.5709  1.4182 -0.1459
11204TIP3   OH255102   0.346   4.197  14.504 -0.7993  0.0725 -0.3394
11204TIP3    H155103   0.332   4.142  14.426 -2.4498  1.0798 -0.8023
11204TIP3    H255104   0.338   4.287  14.472 -0.6105  0.5293  0.8404
11205TIP3   OH255105   0.805   5.588  11.888  0.0206  0.0477 -0.0368
11205TIP3    H155106   0.776   5.535  11.962  0.6356 -1.3613 -0.7726
11205TIP3    H255107   0.741   5.571  11.819  0.4445 -0.0628 -0.4087
11206TIP3   OH255108   4.190   5.228  13.340 -0.0230  0.4503 -0.1228
11206TIP3    H155109   4.159   5.267  13.259  1.3059  1.8148 -0.0234
11206TIP3    H255110   4.283   5.250  13.343  0.4016 -1.2853  0.8066
11207TIP3   OH255111   1.410   3.938  16.055  0.0934  0.0030 -0.0171
11207TIP3    H155112   1.314   3.943  16.058 -0.0060 -0.7941 -1.2316
11207TIP3    H255113   1.437   4.027  16.029 -0.2731  0.3781  0.8511
11208TIP3   OH255114   5.629   2.425  11.245  0.0473  0.0295 -0.2688
11208TIP3    H155115   5.606   2.473  11.165  1.0445  0.2812 -0.4249
11208TIP3    H255116   5.699   2.478  11.285 -0.2238 -0.2644  0.6019
11209TIP3   OH255117   6.640   1.097  11.643  0.4415  0.1790  0.2587
11209TIP3    H155118   6.567   1.159  11.643  0.1598 -0.1426 -0.6821
11209TIP3    H255119   6.602   1.016  11.609  0.7748 -0.5631  1.5956
11210TIP3   OH255120   2.694   5.690  12.742 -0.0965 -0.2967  0.0847
11210TIP3    H155121   2.617   5.730  12.700 -0.2004 -0.5206  0.0576
11210TIP3    H255122   2.706   5.607  12.695  0.4437 -0.0503 -0.2123
11211TIP3   OH255123   3.192   6.759  15.662 -0.3432 -0.3024  0.1391
11211TIP3    H155124   3.252   6.793  15.596 -1.3202  2.1191  0.3897
11211TIP3    H255125   3.123   6.715  15.612  0.8172 -1.7813 -0.2153
11212TIP3   OH255126   1.408   2.188  11.700  0.2218  0.2861 -0.1878
11212TIP3    H155127   1.411   2.279  11.672 -1.6524  0.1880 -0.8610
11212TIP3    H255128   1.483   2.147  11.657  0.3800  1.2556 -0.8658
11213TIP3   OH255129   4.961   6.137   5.041  0.0205 -0.8992 -0.6296
11213TIP3    H155130   4.987   6.229   5.043 -0.3927 -0.7487 -1.4672
11213TIP3    H255131   4.869   6.138   5.013 -0.0308 -1.5560 -0.5134
11214TIP3   OH255132   1.550   3.264   1.352  0.0159  0.1343  0.3620
11214TIP3    H155133   1.580   3.296   1.267  0.1941  0.7367  0.6416
11214TIP3    H255134   1.512   3.179   1.334 -1.3506  0.9086 -0.5772
11215TIP3   OH255135   0.299   0.652   5.507 -0.2465 -0.1674 -0.3822
11215TIP3    H155136   0.390   0.651   5.539 -0.3407 -1.0836 -0.1066
11215TIP3    H255137   0.249   0.691   5.579  0.0042  0.9501 -0.7920
11216TIP3   OH255138   0.837   4.467  15.216  0.1262  0.6604  0.3121
11216TIP3    H155139   0.750   4.448  15.183  1.0957 -2.2281 -0.9274
11216TIP3    H255140   0.864   4.547  15.169 -2.0039  1.9711  1.2071
11217TIP3   OH255141   0.642   5.388  13.119  0.2134 -0.4996 -0.2501
11217TIP3    H155142   0.701   5.430  13.181  0.6305  0.0816 -1.0280
11217TIP3    H255143   0.611   5.309  13.165 -0.4663  0.5440  1.1813
11218TIP3   OH255144   2.530   5.852  11.045 -0.3384 -0.0804  0.7977
11218TIP3    H155145   2.616   5.859  11.002 -0.8521 -0.9821 -0.4416
11218TIP3    H255146   2.496   5.941  11.047  1.2553  0.5539  2.7146
11219TIP3   OH255147   1.649   0.729   4.356 -0.4700 -0.6795 -0.6717
11219TIP3    H155148   1.687   0.691   4.435 -0.0856  0.9885 -0.0080
11219TIP3    H255149   1.557   0.742   4.379 -0.5700 -1.0666 -0.8478
11220TIP3   OH255150   1.459   0.036  10.451  0.1153 -0.1814  1.1300
11220TIP3    H155151   1.463  -0.054  10.417  0.0397 -0.1647  1.0761
11220TIP3    H255152   1.549   0.055  10.479  0.1071 -0.3158  1.2492
11221TIP3   OH255153   6.486   4.609  14.001 -0.7005  0.6770  0.5803
11221TIP3    H155154   6.572   4.566  13.999 -0.3045  1.4762 -0.2619
11221TIP3    H255155   6.446   4.576  14.082  0.8164  1.0974  1.5652
11222TIP3   OH255156   0.894   5.666  14.231  0.3533  0.1169  0.7469
11222TIP3    H155157   0.835   5.601  14.192  0.5656 -0.3178  1.1476
11222TIP3    H255158   0.971   5.616  14.258  0.5461  0.5476  1.0028
11223TIP3   OH255159   6.581   2.690   4.277 -0.0008 -0.3208  0.1502
11223TIP3    H155160   6.639   2.762   4.304 -0.6659 -0.3182  1.6368
11223TIP3    H255161   6.495   2.730   4.269 -0.3433 -0.9188  0.8238
11224TIP3   OH255162   0.001   5.790   3.184  0.1239  0.0125  0.0418
11224TIP3    H155163  -0.049   5.807   3.104  1.7354  4.2079 -0.3152
11224TIP3    H255164   0.092   5.797   3.157  0.7360 -0.1266  1.9565
11225TIP3   OH255165   0.186   5.632  12.638 -0.0105  0.5222 -0.1761
11225TIP3    H155166   0.275   5.597  12.641 -0.0588  0.2505 -1.4074
11225TIP3    H255167   0.193   5.719  12.677  0.5023 -0.0570  1.0527
11226TIP3   OH255168   4.331   1.558  12.393 -0.0394  0.0723  0.0500
11226TIP3    H155169   4.322   1.639  12.443  0.1775  0.8155 -1.0842
11226TIP3    H255170   4.403   1.575  12.332 -1.1679 -0.3011 -1.4455
11227TIP3   OH255171   3.565   2.276   4.021  0.5710 -0.1601  0.2883
11227TIP3    H155172   3.628   2.237   3.961 -0.9359 -0.9969 -0.8130
11227TIP3    H255173   3.494   2.212   4.027 -0.2143  0.7611  1.4657
11228TIP3   OH255174   6.358   3.666  14.717  0.1671  0.0603  0.5582
11228TIP3    H155175   6.341   3.752  14.757  3.6618  1.4832 -0.6523
11228TIP3    H255176   6.410   3.619  14.782 -1.5863 -1.1758  1.1411
11229TIP3   OH255177   3.545   1.065  16.773  0.3512 -0.4124  0.1283
11229TIP3    H155178   3.450   1.069  16.782  0.3630 -0.7880  0.4529
11229TIP3    H255179   3.578   1.104  16.853  0.5397  4.3772 -1.9574
11230TIP3   OH255180   3.962   3.363   0.953 -0.5280 -0.0586  0.2053
11230TIP3    H155181   3.923   3.451   0.953 -1.6712 -0.5295  1.5195
11230TIP3    H255182   3.896   3.308   0.995  0.8756 -1.2331  0.9437
11231TIP3   OH255183   6.604   3.362   2.026 -0.4603  0.4728 -0.0403
11231TIP3    H155184   6.697   3.378   2.044 -0.2534 -1.9315  1.4443
11231TIP3    H255185   6.604   3.288   1.966 -1.4253  0.6442 -0.2596
11232TIP3   OH255186   5.140   0.116   0.519  0.1031  0.6236 -0.0344
11232TIP3    H155187   5.142   0.107   0.424 -1.3499  0.1960 -0.0536
11232TIP3    H255188   5.146   0.027   0.552 -0.1563  0.7106  0.2515
11233TIP3   OH255189   0.208   4.068   0.975  0.1812  0.1696 -0.3291
11233TIP3    H155190   0.298   4.086   0.946  1.0650  1.5908  2.7894
11233TIP3    H255191   0.204   3.973   0.982  1.2511  0.0479 -1.1004
11234TIP3   OH255192   0.931   5.922   2.855 -0.5669 -0.1265  0.3607
11234TIP3    H155193   1.007   5.960   2.898 -1.4363  1.1336  0.8344
11234TIP3    H255194   0.875   5.997   2.835 -3.2992 -1.2282  3.1196
11235TIP3   OH255195   5.801   4.554  11.135  0.5922  0.0334 -0.2362
11235TIP3    H155196   5.812   4.621  11.202  0.3242  1.1900 -1.3112
11235TIP3    H255197   5.888   4.541  11.099  0.9400 -1.3845  1.0399
11236TIP3   OH255198   4.100   6.145   5.217  0.5410 -0.2046  0.4400
11236TIP3    H155199   4.094   6.155   5.312 -0.7848 -0.9242  0.4673
11236TIP3    H255200   4.184   6.183   5.193  1.2318 -0.6751  2.0015
11237TIP3   OH255201   6.368   4.842   1.787 -0.3550  0.5940 -0.4387
11237TIP3    H155202   6.441   4.790   1.819 -0.5988  1.0889  0.9885
11237TIP3    H255203   6.408   4.905   1.727  0.4044  0.8518  0.3119
11238TIP3   OH255204   1.909   4.695   6.233  0.6584  0.1646  0.5215
11238TIP3    H155205   1.824   4.667   6.266  1.0101 -3.3601 -1.1868
11238TIP3    H255206   1.898   4.789   6.218 -3.3360 -0.2969 -0.6964
11239TIP3   OH255207   6.267   2.054   4.334  0.0882 -0.1187  0.3231
11239TIP3    H155208   6.271   2.002   4.414 -0.2281 -0.7516 -0.0602
11239TIP3    H255209   6.342   2.113   4.339  0.3485 -0.4950  0.8494
11240TIP3   OH255210   2.395   2.756   1.332  0.0507  0.0334 -0.4263
11240TIP3    H155211   2.328   2.740   1.265  0.6744 -1.5966 -0.6953
11240TIP3    H255212   2.463   2.691   1.314  1.4660  1.2963  0.1757
11241TIP3   OH255213   1.436   2.092  17.050  0.1951  0.8402  0.5938
11241TIP3    H155214   1.523   2.091  17.010 -0.3324  1.5455 -0.6308
11241TIP3    H255215   1.384   2.033  16.995 -0.3170  1.0931  0.8020
11242TIP3   OH255216   2.896   4.830  16.654 -0.3140  0.3376 -0.2592
11242TIP3    H155217   2.986   4.799  16.647 -0.1879  0.8729 -1.1729
11242TIP3    H255218   2.876   4.865  16.568 -1.3908  0.2587 -0.0521
11243TIP3   OH255219   6.186   5.483  11.836 -0.5344 -0.1638 -0.1589
11243TIP3    H155220   6.181   5.576  11.860 -0.5756 -0.3187  0.4374
11243TIP3    H255221   6.099   5.462  11.803 -1.1566 -0.5052  1.6155
11244TIP3   OH255222   5.031   2.823  15.899 -1.1048  0.2073  0.2030
11244TIP3    H155223   5.048   2.757  15.967 -0.6276 -1.5820 -1.5637
11244TIP3    H255224   4.978   2.890  15.943 -0.7737 -0.8488  2.3278
11245TIP3   OH255225   5.892   1.387  16.396 -0.2828  0.4772  0.6352
11245TIP3    H155226   5.882   1.317  16.332 -1.0947  0.3712  0.8587
11245TIP3    H255227   5.856   1.350  16.477  1.5422  0.2947  1.3889
11246TIP3   OH255228   4.125   3.848   4.056  0.4713 -0.0104 -0.0900
11246TIP3    H155229   4.036   3.880   4.040  0.3932  1.3565  2.4870
11246TIP3    H255230   4.178   3.928   4.055  1.5259 -0.7089 -0.6579
11247TIP3   OH255231   1.386   0.514   1.629 -0.0494 -0.2455 -0.2414
11247TIP3    H155232   1.416   0.446   1.690 -1.2014  0.3874  1.0912
11247TIP3    H255233   1.461   0.571   1.617  0.7410 -1.3931 -0.8697
11248TIP3   OH255234   6.025   3.410   0.895  0.3167 -0.3636 -0.8502
11248TIP3    H155235   6.005   3.320   0.868 -0.9742  0.2560 -2.1485
11248TIP3    H255236   6.113   3.426   0.861  1.0861 -1.5072  0.4900
11249TIP3   OH255237   4.083   4.244  17.148  0.0166 -0.1409 -0.5872
11249TIP3    H155238   3.989   4.228  17.153 -0.1875  0.6317 -1.5039
11249TIP3    H255239   4.121   4.159  17.128 -0.6159 -0.2692 -1.3111
11250TIP3   OH255240   1.684   0.499   3.755 -0.3952 -0.0587 -0.3598
11250TIP3    H155241   1.731   0.582   3.753 -1.2156  0.4621  0.9116
11250TIP3    H255242   1.690   0.470   3.846 -0.5360 -1.1496 -0.6862
11251TIP3   OH255243   5.825   6.395   6.133  0.0033 -0.0635  0.2268
11251TIP3    H155244   5.735   6.421   6.113 -0.7040 -2.0523  0.5456
11251TIP3    H255245   5.847   6.444   6.212 -1.2380 -0.3646  0.7882
11252TIP3   OH255246   5.357   2.471  11.419 -0.7253 -0.2993 -0.2473
11252TIP3    H155247   5.307   2.479  11.338 -2.1897 -0.5850  0.5952
11252TIP3    H255248   5.323   2.392  11.460  2.0649 -1.9038 -0.7072
11253TIP3   OH255249   2.729   0.895  15.625  0.6198 -0.0357 -0.8577
11253TIP3    H155250   2.802   0.956  15.608  0.0754  0.8170 -0.2178
11253TIP3    H255251   2.698   0.870  15.538 -0.0997  1.7810 -1.1775
11254TIP3   OH255252   1.157   1.058   3.071  0.2825 -0.3984  0.4935
11254TIP3    H155253   1.108   1.074   2.991  1.0656 -0.4223 -0.0049
11254TIP3    H255254   1.248   1.074   3.047  0.7347 -2.0676  0.9079
11255TIP3   OH255255   3.098   3.748   5.582  0.3785  0.3104 -0.2438
11255TIP3    H155256   3.043   3.692   5.637  3.0843  0.0903  2.5436
11255TIP3    H255257   3.079   3.721   5.492 -1.2919 -2.2890  0.7833
11256TIP3   OH255258   0.169   5.528  14.239 -0.0234 -0.5571  0.1067
11256TIP3    H155259   0.114   5.474  14.182 -0.5771 -1.4479  1.4278
11256TIP3    H255260   0.107   5.574  14.296  0.5459 -0.5746  0.7538
11257TIP3   OH255261   6.299   3.049   3.884 -0.2235 -0.3170 -0.4274
11257TIP3    H155262   6.375   3.057   3.826  0.3231  3.2553  0.5182
11257TIP3    H255263   6.223   3.059   3.826  0.2269  0.8143 -0.8440
11258TIP3   OH255264   0.732   1.488  11.616 -0.3509  0.0282 -0.1283
11258TIP3    H155265   0.711   1.480  11.523 -0.1799 -0.1274 -0.1528
11258TIP3    H255266   0.800   1.555  11.620  0.2955 -0.6083 -0.2077
11259TIP3   OH255267   6.443   6.432  14.220  0.6048  0.2429 -0.2859
11259TIP3    H155268   6.416   6.343  14.197  1.4634 -0.1666  0.2334
11259TIP3    H255269   6.524   6.445  14.170  2.3809 -0.5742  2.1753
11260TIP3   OH255270   6.000   4.641  13.735 -0.0629  0.5069 -0.1788
11260TIP3    H155271   6.062   4.624  13.664  0.6944 -1.3870  0.8599
11260TIP3    H255272   6.037   4.594  13.811 -1.2278  1.8299  1.2802
11261TIP3   OH255273   0.489   5.553  13.703  0.4313  0.3274  0.3777
11261TIP3    H155274   0.401   5.568  13.737  0.9629  0.4097  1.7894
11261TIP3    H255275   0.514   5.637  13.663 -0.7037 -0.1675 -1.4537
11262TIP3   OH255276   0.848   2.810   0.131  0.2068 -0.3700 -0.3230
11262TIP3    H155277   0.924   2.805   0.072  1.1604 -1.0004  0.9219
11262TIP3    H255278   0.845   2.901   0.159 -0.8015  0.1590 -2.0002
11263TIP3   OH255279   4.554   6.102  11.591 -0.6883  0.3172  0.0664
11263TIP3    H155280   4.519   6.017  11.565 -0.1697  0.2187 -0.3174
11263TIP3    H255281   4.648   6.096  11.576 -0.6125  0.8796  0.2607
11264TIP3   OH255282   5.336   5.154   5.589 -0.4689 -0.2415 -0.3779
11264TIP3    H155283   5.375   5.153   5.501  1.6372 -1.0769  0.4964
11264TIP3    H255284   5.401   5.111   5.644 -1.8889 -0.0308  1.5541
11265TIP3   OH255285   1.778   2.025  11.141 -0.0819  0.3771 -0.1381
11265TIP3    H155286   1.823   1.992  11.219 -0.3515  0.2127 -0.0524
11265TIP3    H255287   1.844   2.021  11.072  1.2816  3.6625  0.7635
11266TIP3   OH255288   2.265   3.604   5.027  0.0063  0.3943  0.5001
11266TIP3    H155289   2.194   3.577   4.969  0.1764 -0.3868  0.6481
11266TIP3    H255290   2.232   3.587   5.116  0.0631  0.8045  0.6014
11267TIP3   OH255291   4.298   4.515  13.979 -0.5398  0.1940  0.6382
11267TIP3    H155292   4.297   4.525  13.884 -0.7009  1.0419  0.7224
11267TIP3    H255293   4.365   4.575  14.009 -0.4778 -0.0831  1.0614
11268TIP3   OH255294   0.294   2.158   1.856 -0.0031 -0.2386  0.3391
11268TIP3    H155295   0.327   2.145   1.767  1.7040 -0.6679  1.0049
11268TIP3    H255296   0.357   2.217   1.897 -1.7720  1.4619  0.7388
11269TIP3   OH255297   6.258   1.781   4.455  0.2256 -0.4217  0.0726
11269TIP3    H155298   6.187   1.720   4.437  0.1162  0.1541 -1.6144
11269TIP3    H255299   6.337   1.737   4.422  0.1857  0.1994 -0.8960
11270TIP3   OH255300   5.568   0.868   5.945 -0.3074  0.6722 -0.1749
11270TIP3    H155301   5.643   0.887   6.001  0.1363  0.7055 -0.7701
11270TIP3    H255302   5.548   0.951   5.901 -0.5847  0.6227 -0.1476
11271TIP3   OH255303   5.970   0.426  16.848  0.6002 -0.8649  0.0746
11271TIP3    H155304   5.939   0.338  16.869 -1.7296 -0.4562 -1.2459
11271TIP3    H255305   5.978   0.469  16.933  0.1180 -1.8665  0.6456
11272TIP3   OH255306   3.013   1.674   4.863  0.2322 -0.2234  0.2064
11272TIP3    H155307   2.944   1.709   4.919  0.9451 -0.9183  1.5661
11272TIP3    H255308   3.003   1.579   4.869 -0.3105 -0.3335 -1.6913
11273TIP3   OH255309   2.411   3.772   0.093  0.0477 -0.1699  0.8353
11273TIP3    H155310   2.499   3.784   0.129  1.5773 -1.2265 -2.2735
11273TIP3    H255311   2.376   3.861   0.085  1.0175  0.3020  1.6300
11274TIP3   OH255312   4.259   4.014   5.438  0.2105 -0.4169  0.0202
11274TIP3    H155313   4.277   3.935   5.489  0.8688 -1.0314 -1.1369
11274TIP3    H255314   4.251   4.084   5.504 -0.7323 -1.4817  1.0865
11275TIP3   OH255315   5.079   3.586   1.859  0.1964  0.3509 -0.1929
11275TIP3    H155316   5.048   3.549   1.776  0.9412 -0.6188 -0.0524
11275TIP3    H255317   5.170   3.558   1.866  0.1443  0.4092  0.9643
11276TIP3   OH255318   3.008   1.020  13.882  0.2239  0.2278 -0.0174
11276TIP3    H155319   3.102   1.005  13.877  0.2229  0.4398 -0.8584
11276TIP3    H255320   2.996   1.073  13.960  0.9753  1.3862 -0.6637
11277TIP3   OH255321   2.088   2.227  15.081 -0.0503  0.0032 -0.0968
11277TIP3    H155322   2.128   2.276  15.152 -4.1154  1.1117  1.6915
11277TIP3    H255323   2.067   2.293  15.015 -0.7334 -0.2165 -0.1052
11278TIP3   OH255324   4.353   5.628  16.475 -0.0753  0.5191  0.3927
11278TIP3    H155325   4.312   5.579  16.547  1.3307 -0.5233  0.5198
11278TIP3    H255326   4.285   5.634  16.408 -1.0369  0.4944  1.3397
11279TIP3   OH255327   2.903   3.787  16.115  0.8678 -0.5684 -0.3416
11279TIP3    H155328   2.865   3.795  16.027 -2.8247 -0.3628  1.1023
11279TIP3    H255329   2.997   3.804  16.102  0.3478  0.3602 -4.0597
11280TIP3   OH255330   5.484   2.114   4.871 -0.0119  0.0662 -0.3253
11280TIP3    H155331   5.414   2.093   4.934  0.6928  0.3137  0.5540
11280TIP3    H255332   5.496   2.033   4.821 -1.1878  0.1380 -0.7567
11281TIP3   OH255333   5.579   6.039  12.454  0.0464  0.1038 -0.6690
11281TIP3    H155334   5.545   6.045  12.543 -0.6926  0.5388 -0.9645
11281TIP3    H255335   5.670   6.066  12.461 -0.0521  0.2980 -0.0714
11282TIP3   OH255336   5.472   0.066  16.058 -0.2836  0.1009 -0.2414
11282TIP3    H155337   5.385   0.046  16.021 -0.9641  0.1987  1.2327
11282TIP3    H255338   5.458   0.066  16.152  1.0182  1.5475 -0.0062
11283TIP3   OH255339   5.727   5.516  12.855  0.7485 -0.4978 -0.0918
11283TIP3    H155340   5.682   5.562  12.926 -1.0903 -0.3990 -1.2491
11283TIP3    H255341   5.728   5.424  12.883  0.7117 -0.3527  0.3951
11284TIP3   OH255342   4.765   2.358  13.647  0.0485  0.5795  0.4450
11284TIP3    H155343   4.716   2.421  13.701  0.6964  1.0321  0.5262
11284TIP3    H255344   4.827   2.413  13.599  0.4713  0.0140  0.3477
11285TIP3   OH255345   1.733   0.336   4.957  0.5377 -0.2306  0.2226
11285TIP3    H155346   1.693   0.272   5.015  1.8433 -2.4522 -1.1953
11285TIP3    H255347   1.692   0.320   4.872 -0.0598  1.7605  0.0849
11286TIP3   OH255348   2.760   6.680   1.087 -0.2773  0.6995 -0.3346
11286TIP3    H155349   2.730   6.721   1.168  1.5156 -0.4667  1.0022
11286TIP3    H255350   2.791   6.753   1.034  1.0826  1.2993  1.1932
11287TIP3   OH255351   0.248   5.969   1.435  0.0638  0.2950 -0.1887
11287TIP3    H155352   0.342   5.953   1.447  0.5401  1.7713 -1.5489
11287TIP3    H255353   0.237   5.971   1.340 -1.0484  1.6584 -0.0528
11288TIP3   OH255354   6.642   1.224   5.247 -0.6777  0.6664 -0.4395
11288TIP3    H155355   6.695   1.260   5.177 -0.8131  0.5303 -0.6118
11288TIP3    H255356   6.669   1.133   5.255  0.6388  1.1262  0.9082
11289TIP3   OH255357   5.933   1.766   3.956  0.7561  0.1340 -0.1493
11289TIP3    H155358   5.870   1.747   3.886  0.0116 -0.8265  0.7556
11289TIP3    H255359   6.018   1.759   3.914  0.4149 -2.3486 -0.5528
11290TIP3   OH255360   5.019   1.932   0.205  0.3726 -0.2667 -0.3853
11290TIP3    H155361   4.993   1.990   0.277 -0.9335 -0.6853 -0.5064
11290TIP3    H255362   5.058   1.990   0.140 -2.0065  0.6785 -1.0352
11291TIP3   OH255363   2.904   4.655   0.914 -0.2881  0.1431 -0.2846
11291TIP3    H155364   2.916   4.637   1.007 -0.4390  1.7085  0.0768
11291TIP3    H255365   2.934   4.576   0.869  0.6430 -0.2885  1.0483
11292TIP3   OH255366   4.287   2.368   5.477  0.1009  0.4740  0.0511
11292TIP3    H155367   4.328   2.417   5.548 -0.0493  0.2797  0.2708
11292TIP3    H255368   4.283   2.278   5.508  2.4131 -0.1376 -1.2314
11293TIP3   OH255369   4.428   2.353   3.528 -0.1336  0.1376  0.2692
11293TIP3    H155370   4.453   2.436   3.568 -1.7629  0.8194 -0.0382
11293TIP3    H255371   4.459   2.360   3.437 -1.5894  1.0879 -0.1899
11294TIP3   OH255372   0.518   5.920   3.058  0.0354 -0.1606  0.0749
11294TIP3    H155373   0.466   5.845   3.028  0.0067  0.4344 -1.4541
11294TIP3    H255374   0.608   5.897   3.035 -0.0757  0.6333 -1.2787
11295TIP3   OH255375   0.965   3.959   1.656  0.0909 -0.3628 -0.5806
11295TIP3    H155376   1.033   3.946   1.590  0.1847  1.1277 -0.8165
11295TIP3    H255377   0.939   3.870   1.682  1.4733 -0.9589 -1.1429
11296TIP3   OH255378   2.954   2.215   3.291  0.2156 -0.9159  0.1868
11296TIP3    H155379   2.918   2.236   3.206  0.0430  2.6660  1.0112
11296TIP3    H255380   3.047   2.237   3.285  0.4020 -1.5228  0.6697
11297TIP3   OH255381   2.384   5.500  17.096  0.1021  0.2202  0.0746
11297TIP3    H155382   2.472   5.524  17.066  0.1466 -1.6098 -1.4321
11297TIP3    H255383   2.331   5.578  17.077  0.9295  0.4814 -1.3166
11298TIP3   OH255384   2.812   0.462  16.824 -0.4929  0.1532 -0.3785
11298TIP3    H155385   2.848   0.406  16.892 -0.2760 -0.3011 -0.8615
11298TIP3    H255386   2.717   0.447  16.827 -0.3204 -1.2896 -1.4060
11299TIP3   OH255387   3.187   5.702   3.132 -0.0023  0.5383 -0.4998
11299TIP3    H155388   3.224   5.784   3.100 -2.0648  1.7709  0.0616
11299TIP3    H255389   3.130   5.671   3.062 -0.3855  0.4044 -0.1414
11300TIP3   OH255390   2.964   2.116   3.580 -0.3807  0.2039  0.2067
11300TIP3    H155391   2.959   2.132   3.485 -0.6132 -0.1472  0.1588
11300TIP3    H255392   2.978   2.022   3.587  0.4068  0.3338  0.5039
11301TIP3   OH255393   3.387   5.986  11.934  0.4513  0.5675 -0.3799
11301TIP3    H155394   3.464   6.015  11.981 -0.4923  0.2684  1.4195
11301TIP3    H255395   3.325   6.059  11.940  0.1462  0.3480 -0.7480
11302TIP3   OH255396   6.139   4.834  16.328  0.5437  0.4154 -0.1775
11302TIP3    H155397   6.173   4.766  16.386 -0.0701  0.4915  0.2910
11302TIP3    H255398   6.186   4.913  16.353 -0.2663  0.6195  0.7829
11303TIP3   OH255399   4.865   4.673   6.386  0.1352  0.4264  0.2438
11303TIP3    H155400   4.886   4.718   6.467  0.9455 -0.7582  0.7285
11303TIP3    H255401   4.950   4.652   6.348 -0.2256  0.0363 -0.3686
11304TIP3   OH255402   4.163   3.647  16.948  0.3014 -0.2944 -0.2396
11304TIP3    H155403   4.248   3.627  16.987  0.6900  1.1512 -0.2890
11304TIP3    H255404   4.179   3.642  16.853  0.3377 -0.0451 -0.2490
11305TIP3   OH255405   5.307   1.528  12.066  0.3263 -0.3442 -0.4653
11305TIP3    H155406   5.368   1.502  11.997 -1.1999 -0.7825 -1.7130
11305TIP3    H255407   5.259   1.448  12.088 -0.9005  0.3084 -0.6807
11306TIP3   OH255408   4.489   1.958  14.759 -0.8889 -0.1980 -0.1007
11306TIP3    H155409   4.529   2.040  14.788  2.8996 -1.9938  0.4331
11306TIP3    H255410   4.398   1.964  14.788 -0.4615  3.2424  1.0124
11307TIP3   OH255411   0.026   5.604  13.519 -0.3176 -0.0219  0.1575
11307TIP3    H155412   0.013   5.513  13.547  0.7578 -0.1170  0.3875
11307TIP3    H255413   0.008   5.656  13.598  0.2712 -0.1278  0.3703
11308TIP3   OH255414   2.115   2.104   2.099  0.0114  0.4074  0.5636
11308TIP3    H155415   2.057   2.033   2.127  2.3275 -1.1514  1.7302
11308TIP3    H255416   2.064   2.183   2.112 -1.6972 -0.8422  1.9896
11309TIP3   OH255417   0.196   2.758  12.079 -0.2213  0.0558 -0.1100
11309TIP3    H155418   0.212   2.802  11.995  0.8233  1.9543  1.0001
11309TIP3    H255419   0.128   2.811  12.121 -0.0844 -0.3209  0.6004
11310TIP3   OH255420   5.343   2.475  12.544 -0.0608  0.0636  0.8619
11310TIP3    H155421   5.396   2.395  12.543 -1.4822 -0.9176 -0.4531
11310TIP3    H255422   5.405   2.544  12.568  1.2703 -1.3697  1.7572
11311TIP3   OH255423   6.043   4.730  13.060  0.2070 -0.0627  0.2362
11311TIP3    H155424   6.064   4.811  13.013  0.7889 -0.5739 -0.3993
11311TIP3    H255425   6.017   4.759  13.147  0.1185  0.8279 -0.0760
11312TIP3   OH255426   1.973   4.429  16.652  0.4547 -0.2208 -0.3679
11312TIP3    H155427   2.031   4.365  16.611  0.2377  0.1032 -1.2000
11312TIP3    H255428   1.910   4.376  16.701 -0.6560 -0.7469 -2.2649
11313TIP3   OH255429   2.255   1.941  12.699  0.4911  0.2361  0.5271
11313TIP3    H155430   2.349   1.943  12.682  0.3198 -1.1876 -0.7701
11313TIP3    H255431   2.216   1.994  12.629  0.2610  0.1203  0.5649
11314TIP3   OH255432   2.423   4.695   4.000 -0.3345  0.0501  0.1646
11314TIP3    H155433   2.490   4.710   4.067  1.0397 -0.3646 -1.0715
11314TIP3    H255434   2.447   4.754   3.928 -0.1515 -1.4739 -1.0752
11315TIP3   OH255435   3.829   1.209  13.805 -0.0322 -0.7859 -0.0211
11315TIP3    H155436   3.910   1.207  13.754 -0.6832 -0.5832 -1.0875
11315TIP3    H255437   3.816   1.301  13.826  0.9785 -0.9968  1.7932
11316TIP3   OH255438   2.963   5.733   1.715  0.3268 -0.1930  0.0399
11316TIP3    H155439   2.999   5.779   1.791  1.1328 -0.8010  0.0447
11316TIP3    H255440   2.868   5.738   1.726  0.3938  1.4207  0.0555
11317TIP3   OH255441   3.732   5.693   1.356  0.2519 -0.3376  0.6920
11317TIP3    H155442   3.679   5.738   1.290  1.2727  3.0333  1.9781
11317TIP3    H255443   3.774   5.622   1.308  0.3476  1.4798 -2.1626
11318TIP3   OH255444   3.974   5.754   4.213 -0.3566  0.0027 -0.5439
11318TIP3    H155445   3.983   5.672   4.262  2.8508 -1.0840 -2.5724
11318TIP3    H255446   3.886   5.750   4.176 -1.1316 -1.3634  1.2947
11319TIP3   OH255447   6.633   5.058   1.860 -0.1644  0.4349 -0.3087
11319TIP3    H155448   6.633   5.003   1.782 -1.9282  0.0671 -0.0831
11319TIP3    H255449   6.679   5.138   1.833  1.6847 -0.7492 -0.8864
11320TIP3   OH255450   0.451   6.065   6.321  0.0173  0.1346  0.0683
11320TIP3    H155451   0.372   6.023   6.286  0.1852 -2.4388  2.3679
11320TIP3    H255452   0.519   5.998   6.312  1.2659  1.2821  0.6491
11321TIP3   OH255453   4.232   4.658   4.224 -0.1130  0.4919  0.4202
11321TIP3    H155454   4.183   4.658   4.142 -1.3701 -0.1681  1.1545
11321TIP3    H255455   4.323   4.676   4.197 -0.1269 -1.6728 -1.3515
11322TIP3   OH255456   3.133   4.834  15.650 -0.7960 -0.6337  0.1257
11322TIP3    H155457   3.128   4.912  15.594 -1.4497 -0.8092 -0.0718
11322TIP3    H255458   3.209   4.786  15.618 -0.5681 -0.2285  0.0506
11323TIP3   OH255459   1.030   4.311  15.387  0.3968 -0.8443  0.2761
11323TIP3    H155460   1.105   4.283  15.334  0.2884  0.1077 -0.4035
11323TIP3    H255461   0.959   4.325  15.324 -0.5464 -2.2623  0.9634
11324TIP3   OH255462   4.681   6.282   6.084  0.1161 -0.8222 -0.1276
11324TIP3    H155463   4.750   6.344   6.111 -0.2555  0.8275 -2.5530
11324TIP3    H255464   4.717   6.241   6.005 -1.8066  0.5384 -1.8293
11325TIP3   OH255465   1.299   1.046   4.126 -0.2163 -0.5917  0.0201
11325TIP3    H155466   1.249   0.964   4.118  0.2616 -0.9895  0.9830
11325TIP3    H255467   1.237   1.114   4.099 -0.4381 -1.3049 -1.3837
11326TIP3   OH255468   4.550   5.644   3.206  0.1060  0.1244 -0.2404
11326TIP3    H155469   4.547   5.563   3.258 -1.3780 -0.3612 -1.0035
11326TIP3    H255470   4.634   5.640   3.161  0.4320 -0.5641  0.4061
11327TIP3   OH255471   5.116   4.188  14.106  0.4304  0.8189 -0.2328
11327TIP3    H155472   5.125   4.275  14.067  0.8393  1.0491  0.3535
11327TIP3    H255473   5.043   4.197  14.167  0.2794  0.6650 -0.3891
11328TIP3   OH255474   4.945   1.908   2.268 -0.8155  0.1713  0.0490
11328TIP3    H155475   4.917   1.937   2.354  0.0916 -0.7568  0.6743
11328TIP3    H255476   4.911   1.819   2.260  0.9574 -0.5823  0.3936
11329TIP3   OH255477   6.253   4.940   0.382 -0.0340  0.4729  0.0190
11329TIP3    H155478   6.219   5.029   0.389  2.3996  1.4450  0.5540
11329TIP3    H255479   6.342   4.946   0.417  0.3153 -2.1147 -0.2549
11330TIP3   OH255480   4.886   3.551  14.624 -0.3575  0.7562 -0.7031
11330TIP3    H155481   4.801   3.594  14.620 -0.6676  0.0892 -1.4509
11330TIP3    H255482   4.936   3.590  14.552 -0.6091 -0.0598 -1.3267
11331TIP3   OH255483   6.648   0.496  13.706  0.1132 -0.0580 -0.1730
11331TIP3    H155484   6.576   0.503  13.644 -2.0641  0.3882  2.2483
11331TIP3    H255485   6.655   0.403  13.725 -1.7215  0.1194  1.5961
11332TIP3   OH255486   5.718   5.913   1.092  0.4050 -0.7270 -0.4461
11332TIP3    H155487   5.624   5.894   1.099 -0.5276  3.4912  1.5005
11332TIP3    H255488   5.751   5.905   1.182  0.5230  3.0539 -0.0012
11333TIP3   OH255489   2.560   0.781   3.322  0.2775  0.5456  0.3643
11333TIP3    H155490   2.488   0.740   3.371 -0.3337 -0.0014 -0.9438
11333TIP3    H255491   2.516   0.847   3.268  1.1168  2.2351  1.6149
11334TIP3   OH255492   4.925   3.699  12.730  0.7867  0.2372 -0.5973
11334TIP3    H155493   4.986   3.719  12.801  1.4271  0.7941 -1.2827
11334TIP3    H255494   4.911   3.783  12.687 -0.0089  0.0024 -0.8205
11335TIP3   OH255495   1.607   4.930  11.494 -0.1986  0.6622 -0.5497
11335TIP3    H155496   1.600   5.026  11.496 -1.1109  0.5977 -0.2735
11335TIP3    H255497   1.664   4.909  11.568 -1.1275  0.9181  0.2651
11336TIP3   OH255498   0.373   0.600   0.117  0.8869  0.9403  0.0585
11336TIP3    H155499   0.291   0.565   0.081 -0.4146  2.4857  1.3416
11336TIP3    H255500   0.381   0.560   0.203  0.9500  1.4986  0.3204
11337TIP3   OH255501   1.596   0.595   1.198 -0.4956 -0.2948  0.4216
11337TIP3    H155502   1.624   0.507   1.223  1.1744  0.0880  0.0442
11337TIP3    H255503   1.501   0.593   1.206 -0.3700 -1.5306  2.3832
11338TIP3   OH255504   2.001   1.440   1.635 -0.2518 -0.0704 -0.3019
11338TIP3    H155505   2.036   1.438   1.546 -0.9092 -3.1647 -0.5946
11338TIP3    H255506   2.037   1.520   1.673  0.4128  1.1315 -3.1686
11339TIP3   OH255507   6.544   5.458  13.406  0.5523  0.5997  0.3142
11339TIP3    H155508   6.595   5.531  13.442  1.4416 -0.3187  0.9704
11339TIP3    H255509   6.494   5.424  13.480 -1.1231  1.5301 -0.3371
11340TIP3   OH255510   5.099   6.221   2.211 -0.1108  0.1452  0.1800
11340TIP3    H155511   5.062   6.154   2.268  1.2177  0.0424  0.9624
11340TIP3    H255512   5.085   6.188   2.122 -0.8526 -0.4178  0.4983
11341TIP3   OH255513   3.232   6.615  14.506  0.1379  0.3091  0.3910
11341TIP3    H155514   3.147   6.597  14.466 -0.2082  2.8254 -0.1649
11341TIP3    H255515   3.289   6.638  14.433  0.4602  1.5294  1.0063
11342TIP3   OH255516   0.181   3.305  17.169 -1.1918  0.5245  0.3987
11342TIP3    H155517   0.168   3.239  17.237  0.1723  1.2597  1.4422
11342TIP3    H255518   0.268   3.340  17.186 -0.2233 -0.1662 -2.5847
11343TIP3   OH255519   6.369   5.016  15.590  0.6324 -0.3205  0.0878
11343TIP3    H155520   6.430   5.047  15.524  0.5531 -0.4542 -0.0475
11343TIP3    H255521   6.424   4.977  15.658  0.8586  1.5143  1.0359
11344TIP3   OH255522   1.943   0.402   4.293 -0.2799  0.0503 -0.0784
11344TIP3    H155523   1.980   0.353   4.219  0.8422  0.8059 -0.0517
11344TIP3    H255524   1.985   0.488   4.287 -1.0237  0.4824  0.7898
11345TIP3   OH255525   1.662   0.818  10.452  0.9432  0.8254  0.0607
11345TIP3    H155526   1.710   0.805  10.534 -1.0115 -1.2695  0.9525
11345TIP3    H255527   1.580   0.860  10.478 -0.1041 -0.7072 -0.6424
11346TIP3   OH255528   2.513   3.881   0.832  0.0607  0.4248 -0.2538
11346TIP3    H155529   2.479   3.836   0.909  0.4735 -1.8196 -1.2990
11346TIP3    H255530   2.444   3.871   0.766  0.5835  0.4300 -0.8091
11347TIP3   OH255531   4.088   6.636   5.809  0.0796  0.4393  0.4449
11347TIP3    H155532   4.162   6.658   5.753  0.5995  0.2093  1.0256
11347TIP3    H255533   4.109   6.676   5.893 -0.2496  0.0001  0.7406
11348TIP3   OH255534   5.484   3.328   2.068  0.2439 -0.3485  0.6099
11348TIP3    H155535   5.510   3.267   2.137 -1.7222 -1.2496  0.5989
11348TIP3    H255536   5.411   3.285   2.024  0.8010  0.6553 -1.4137
11349TIP3   OH255537   5.520   3.928   2.728 -0.1021 -0.1103 -0.3968
11349TIP3    H155538   5.514   3.936   2.823  1.9866  2.3655 -0.3725
11349TIP3    H255539   5.431   3.943   2.696 -0.5070  0.8518  1.1053
11350TIP3   OH255540   2.526   6.261   3.053 -0.3453 -0.0861 -0.6115
11350TIP3    H155541   2.511   6.204   2.977  1.2642 -2.2370  0.5385
11350TIP3    H255542   2.597   6.217   3.101 -0.5083  1.8098  1.5166
11351TIP3   OH255543   1.567   5.533  13.733  0.2475  0.3318 -0.4829
11351TIP3    H155544   1.633   5.575  13.789  0.3669 -1.0323  0.4643
11351TIP3    H255545   1.501   5.501  13.794 -0.8464  0.8873 -1.3495
11352TIP3   OH255546   3.214   3.142   1.373  0.0687  0.6845  0.3200
11352TIP3    H155547   3.226   3.237   1.367  0.1841  0.6596  0.1340
11352TIP3    H255548   3.303   3.107   1.368  0.0014  0.5505  0.0541
11353TIP3   OH255549   3.449   6.391  15.281  0.3776  0.0509  0.1502
11353TIP3    H155550   3.531   6.343  15.264  0.5185  1.2267 -3.3272
11353TIP3    H255551   3.387   6.324  15.307  1.0414 -1.8907 -2.7526
11354TIP3   OH255552   1.927   3.817  13.236  0.1137 -0.6848  0.4522
11354TIP3    H155553   1.848   3.789  13.189  1.1291 -1.5958 -0.8054
11354TIP3    H255554   1.916   3.783  13.324 -0.3473 -1.9374 -0.0546
11355TIP3   OH255555   4.472   1.058   1.132  0.0492 -0.9242  0.4063
11355TIP3    H155556   4.490   1.088   1.221 -2.1731  2.2075 -0.0275
11355TIP3    H255557   4.401   0.994   1.142 -0.2665 -0.5058  0.8935
11356TIP3   OH255558   3.462   0.891  12.697  0.2904  0.5537 -0.0582
11356TIP3    H155559   3.537   0.951  12.693  0.3742  0.5747  1.2712
11356TIP3    H255560   3.484   0.821  12.636  0.9655  1.0381 -0.3813
11357TIP3   OH255561   4.780   1.163   1.989  0.0686 -0.5144 -0.2750
11357TIP3    H155562   4.716   1.122   1.930 -0.5626  0.8099 -0.5436
11357TIP3    H255563   4.743   1.150   2.076 -0.7462  0.5072 -0.4502
11358TIP3   OH255564   5.829   0.052   1.906 -0.1772  0.0605  0.1429
11358TIP3    H155565   5.872   0.035   1.990 -0.2455  0.3498  0.2370
11358TIP3    H255566   5.736   0.040   1.924 -0.2499  0.8034  0.2787
11359TIP3   OH255567   4.202   6.099  13.682 -0.0570 -0.3610  0.3227
11359TIP3    H155568   4.253   6.171  13.643  1.5569 -0.8937  1.3442
11359TIP3    H255569   4.112   6.115  13.654  0.6095  0.7981 -1.3255
11360TIP3   OH255570   0.208   4.087   1.691  0.2833  0.7814  0.1124
11360TIP3    H155571   0.296   4.124   1.686 -0.0317  1.6941  0.8805
11360TIP3    H255572   0.188   4.088   1.785 -0.0697 -0.6001  0.0708
11361TIP3   OH255573   1.779   5.770  12.676 -0.3507  0.0544  0.0451
11361TIP3    H155574   1.726   5.837  12.634 -2.0803 -0.4757  1.2920
11361TIP3    H255575   1.867   5.783  12.640 -1.1322  1.4841 -1.4573
11362TIP3   OH255576   6.017   6.008   2.367 -0.1001  0.1436  0.4004
11362TIP3    H155577   5.991   6.094   2.336  1.3272  0.9008  1.2445
11362TIP3    H255578   5.990   6.006   2.459  0.1444 -0.2017  0.4686
11363TIP3   OH255579   2.103   5.488   3.378  0.0054 -0.3441  0.0971
11363TIP3    H155580   2.059   5.572   3.364  0.1391 -0.6591 -2.6857
11363TIP3    H255581   2.131   5.491   3.470 -2.1309  1.5968  0.7775
11364TIP3   OH255582   2.110   1.672   1.750 -0.1520 -0.4106  0.0583
11364TIP3    H155583   2.093   1.633   1.835 -1.0089  1.3380  0.7374
11364TIP3    H255584   2.118   1.765   1.767  0.9648 -0.1465 -1.6133
11365TIP3   OH255585   2.412   4.743  10.599 -0.6661  0.3006  0.0099
11365TIP3    H155586   2.456   4.772  10.678 -1.2064  1.6720 -0.1675
11365TIP3    H255587   2.467   4.671  10.566  1.1959  1.6477  0.0185
11366TIP3   OH255588   6.523   5.470  12.558  0.5094  0.0335  0.8054
11366TIP3    H155589   6.494   5.393  12.508  0.2613 -0.7092  2.0447
11366TIP3    H255590   6.611   5.488  12.525  1.0938 -1.5838  1.3326
11367TIP3   OH255591   5.146   3.923   6.283  0.3329  0.3359  1.0706
11367TIP3    H155592   5.133   4.017   6.268 -2.3399 -0.3368 -2.0792
11367TIP3    H255593   5.076   3.899   6.344  0.1755  0.1964  0.8370
11368TIP3   OH255594   4.318   1.831  15.367  0.0509  0.0687  0.0568
11368TIP3    H155595   4.400   1.784  15.383  0.6716  0.5164 -1.5869
11368TIP3    H255596   4.250   1.769  15.391  0.8674 -1.0807 -0.5137
11369TIP3   OH255597   3.603   5.684   1.077 -0.1084 -0.1657  0.1924
11369TIP3    H155598   3.656   5.759   1.049 -0.9464  0.2145 -0.3970
11369TIP3    H255599   3.519   5.722   1.102 -0.6439 -0.9416 -0.3939
11370TIP3   OH255600   3.119   5.792  13.421  0.6586  0.2111 -0.0073
11370TIP3    H155601   3.065   5.827  13.349 -0.4957 -1.1631  0.1419
11370TIP3    H255602   3.164   5.718  13.382  0.4873 -0.1758  0.5273
11371TIP3   OH255603   4.439   2.991  12.818 -0.0968  0.0993 -0.7646
11371TIP3    H155604   4.504   3.061  12.822 -1.6401  1.5820 -0.2864
11371TIP3    H255605   4.356   3.034  12.843 -1.0025 -2.0352  0.1194
11372TIP3   OH255606   5.700   2.814   1.995 -0.3627  0.2012  0.1377
11372TIP3    H155607   5.719   2.734   1.945  0.5867 -0.2595  1.1841
11372TIP3    H255608   5.613   2.841   1.965 -0.3306 -0.7325 -0.8650
11373TIP3   OH255609   3.633   1.224  16.999 -0.2679  0.0981 -0.1805
11373TIP3    H155610   3.614   1.314  16.973  1.8935  0.7881  0.4085
11373TIP3    H255611   3.601   1.216  17.088 -0.1383  0.4134 -0.1065
11374TIP3   OH255612   5.449   6.165  11.444  0.4219 -0.0582  0.0546
11374TIP3    H155613   5.485   6.106  11.378  0.3211  0.3591 -0.3784
11374TIP3    H255614   5.453   6.251  11.404 -1.9576 -0.1012 -0.4211
11375TIP3   OH255615   2.148   4.531  14.197  1.0215  0.2551 -0.2910
11375TIP3    H155616   2.065   4.490  14.173  0.3909 -1.2016  3.6389
11375TIP3    H255617   2.214   4.479  14.151 -0.1006  0.3867 -2.1595
11376TIP3   OH255618   1.032   1.383   4.695  0.2540 -0.9200  0.6094
11376TIP3    H155619   1.000   1.468   4.724  0.9688 -0.6260  0.5547
11376TIP3    H255620   0.965   1.352   4.634  0.7086  0.3268 -0.6022
11377TIP3   OH255621   1.766   5.587  10.620 -0.0032  0.6630 -0.4014
11377TIP3    H155622   1.861   5.596  10.628 -0.0153 -0.5841  5.1616
11377TIP3    H255623   1.751   5.493  10.614 -0.8922  0.7646  0.0542
11378TIP3   OH255624   5.612   5.309  16.731  0.0176  0.6757  0.1092
11378TIP3    H155625   5.670   5.288  16.658  2.7468  1.4710  1.8576
11378TIP3    H255626   5.632   5.243  16.797 -1.8711  0.3773  0.4200
11379TIP3   OH255627   6.669   2.593  13.567 -0.3449  0.0040  0.6040
11379TIP3    H155628   6.622   2.667  13.527  1.9697  1.8989  1.2076
11379TIP3    H255629   6.757   2.598  13.531  0.8388 -0.3711  3.2370
11380TIP3   OH255630   3.890   4.418  15.742 -0.6144 -0.1071  0.2958
11380TIP3    H155631   3.955   4.352  15.767  1.1313  1.8975  1.3494
11380TIP3    H255632   3.820   4.409  15.807 -0.9397 -1.5974 -0.2288
11381TIP3   OH255633   3.340   1.425   4.905 -0.5491  0.0627 -0.2548
11381TIP3    H155634   3.252   1.395   4.882 -1.4746  1.9663  0.6046
11381TIP3    H255635   3.370   1.361   4.970 -0.3742 -1.8324 -2.1029
11382TIP3   OH255636   0.025   1.441   5.011  0.3250 -0.0201  0.1992
11382TIP3    H155637  -0.052   1.479   4.966  0.0216 -1.0070 -0.1363
11382TIP3    H255638   0.020   1.348   4.992  2.3486  0.0477 -0.9469
11383TIP3   OH255639   6.766   6.689  12.496 -0.6220 -0.3755  0.2831
11383TIP3    H155640   6.710   6.686  12.419 -0.6651  1.4065  0.2136
11383TIP3    H255641   6.809   6.775  12.492 -0.1510 -0.4974  1.9051
11384TIP3   OH255642   4.928   1.752  15.900  0.3172  0.0988  0.4872
11384TIP3    H155643   4.965   1.689  15.962  0.3395 -0.2204  0.1562
11384TIP3    H255644   4.996   1.819  15.891  1.1420 -0.8459 -0.6605
11385TIP3   OH255645   0.894   4.352  14.049 -0.4419  0.4286  0.3154
11385TIP3    H155646   0.954   4.278  14.037  0.5560  1.2353  0.2472
11385TIP3    H255647   0.951   4.428  14.058 -1.4368  1.1131  1.0249
11386TIP3   OH255648   5.226   2.525  14.768 -0.4572  0.7003 -0.3489
11386TIP3    H155649   5.310   2.505  14.728 -1.5907 -3.0762 -1.2820
11386TIP3    H255650   5.245   2.541  14.860  1.3550  1.0358 -0.7503
11387TIP3   OH255651   3.849   5.388  16.006 -0.4374 -0.0912  0.4295
11387TIP3    H155652   3.894   5.331  16.069 -1.6950  0.0815  1.5307
11387TIP3    H255653   3.870   5.477  16.036  0.2169  0.0157 -0.3312
11388TIP3   OH255654   2.709   1.565  12.558  0.2447  0.2407 -0.7309
11388TIP3    H155655   2.736   1.484  12.601  0.0659  0.0749 -0.9292
11388TIP3    H255656   2.753   1.634  12.607 -0.2691  0.0798 -0.0338
11389TIP3   OH255657   4.319   4.579   5.785  0.4249  0.2845  0.5105
11389TIP3    H155658   4.323   4.502   5.729  1.5264 -0.3503  1.4219
11389TIP3    H255659   4.394   4.633   5.759  0.1027  0.6850  0.3971
11390TIP3   OH255660   3.702   2.157  13.009  0.7525  0.3955  0.1282
11390TIP3    H155661   3.696   2.099  12.933  2.4454 -0.6726  0.7347
11390TIP3    H255662   3.647   2.116  13.075 -1.1941  1.6369 -0.6371
11391TIP3   OH255663   5.015   4.140   0.755 -0.0845 -0.6027 -0.0047
11391TIP3    H155664   5.059   4.224   0.768 -0.6658  0.0628 -1.9783
11391TIP3    H255665   5.009   4.102   0.843  1.5633  0.7031  0.7173
11392TIP3   OH255666   3.801   6.491   2.233  0.5101  0.4834 -0.2484
11392TIP3    H155667   3.891   6.464   2.249  0.4940  0.2298 -0.5723
11392TIP3    H255668   3.757   6.480   2.317  0.3090 -1.2743 -0.5525
11393TIP3   OH255669   4.720   6.757   2.546  0.3129  0.3747  0.2381
11393TIP3    H155670   4.793   6.815   2.528  0.1380  0.9289  1.2591
11393TIP3    H255671   4.738   6.678   2.494 -1.2529  2.6000 -4.1868
11394TIP3   OH255672   5.770   0.917   4.571 -0.0915  0.3118  0.1891
11394TIP3    H155673   5.769   0.832   4.614  0.2943  0.0595 -0.2893
11394TIP3    H255674   5.840   0.911   4.506 -1.2743  0.3373 -1.1484
11395TIP3   OH255675   1.119   2.599  16.515  0.1162  0.2008  0.2377
11395TIP3    H155676   1.166   2.640  16.588 -0.4933 -0.7115  1.1768
11395TIP3    H255677   1.098   2.672  16.456  1.2049  0.8581  0.6365
11396TIP3   OH255678   3.236   2.082  14.377 -0.1045  0.3472 -0.1036
11396TIP3    H155679   3.308   2.135  14.411 -0.2649  1.2334 -1.0686
11396TIP3    H255680   3.255   1.993  14.407  0.3015  0.8983  1.3560
11397TIP3   OH255681   3.562   3.779  15.022 -0.6797 -0.2086 -0.1318
11397TIP3    H155682   3.623   3.711  14.993 -0.1267 -0.4993  1.6056
11397TIP3    H255683   3.490   3.774  14.959  0.3231 -0.9579 -1.2732
11398TIP3   OH255684   5.535   2.407  12.202  0.2574 -0.3937  0.0948
11398TIP3    H155685   5.457   2.390  12.150  0.1836  0.4825 -0.0824
11398TIP3    H255686   5.535   2.501  12.218 -0.3641 -0.7418  2.6971
11399TIP3   OH255687   0.890   6.238   5.520  0.2309 -0.1908  0.3695
11399TIP3    H155688   0.966   6.196   5.560 -1.7034 -2.8803  1.5296
11399TIP3    H255689   0.915   6.251   5.429  1.6445 -2.2957  0.3889
11400TIP3   OH255690   1.363   5.743  13.175  0.3182  0.0536 -0.0487
11400TIP3    H155691   1.300   5.743  13.247  1.3623 -0.2424  0.8924
11400TIP3    H255692   1.443   5.778  13.214  0.9913 -0.4209 -0.9831
11401TIP3   OH255693   4.219   3.153   4.236 -0.2072  0.1931  0.0850
11401TIP3    H155694   4.181   3.069   4.261  0.2204 -0.2019 -0.5717
11401TIP3    H255695   4.145   3.214   4.240 -0.4022 -0.0878  1.1110
11402TIP3   OH255696   6.023   4.837   0.763  0.8234  0.4211 -0.4558
11402TIP3    H155697   6.043   4.744   0.776  0.5470  0.3740 -0.3521
11402TIP3    H255698   5.932   4.846   0.791  1.7370  1.3544  2.6553
11403TIP3   OH255699   2.263   3.660  15.948 -0.2536  0.4093 -0.0088
11403TIP3    H155700   2.223   3.745  15.965 -0.7485  0.0688  0.6138
11403TIP3    H255701   2.329   3.650  16.017  1.7495  1.4503 -1.6828
11404TIP3   OH255702   5.027   0.230   4.974 -0.5589 -0.3488  0.5380
11404TIP3    H155703   5.102   0.252   5.030 -0.3624  1.5600 -0.4040
11404TIP3    H255704   5.014   0.307   4.919 -0.5153 -2.2639 -2.3484
11405TIP3   OH255705   4.928   1.494  17.080  0.3197 -0.1574 -0.0669
11405TIP3    H155706   4.946   1.535  16.996 -0.2675  0.0889 -0.0760
11405TIP3    H255707   4.933   1.400  17.063  0.0067 -0.1112 -0.4228
11406TIP3   OH255708   2.405   1.664  11.030  0.2129 -0.0729  0.5375
11406TIP3    H155709   2.317   1.637  11.058  0.6044 -1.1350  0.7996
11406TIP3    H255710   2.389   1.738  10.971 -0.9469 -0.8675 -0.2157
11407TIP3   OH255711   6.304   5.567   5.929 -0.1950 -0.3782  0.5754
11407TIP3    H155712   6.392   5.603   5.915 -0.1111 -0.8685 -0.2227
11407TIP3    H255713   6.254   5.640   5.966 -0.2120  0.8301 -1.6271
11408TIP3   OH255714   2.150   2.683  15.322  0.2413  0.1733  0.6529
11408TIP3    H155715   2.151   2.633  15.240 -0.2257 -0.6517  1.1396
11408TIP3    H255716   2.191   2.766  15.299  0.9093 -0.3727 -0.2153
11409TIP3   OH255717   2.939   2.992   4.695  0.4761 -0.1834  0.2517
11409TIP3    H155718   2.889   2.990   4.776 -0.0638  0.6375 -0.0521
11409TIP3    H255719   2.899   3.061   4.643  0.9603 -0.5437 -0.6281
11410TIP3   OH255720   6.085   5.748   5.382  0.5280  0.3510  0.1677
11410TIP3    H155721   6.059   5.664   5.344  0.4031 -0.2395  1.5023
11410TIP3    H255722   6.179   5.754   5.365  0.4868  0.0586 -0.1713
11411TIP3   OH255723   6.620   1.320  12.175  0.1990 -0.0673  0.0742
11411TIP3    H155724   6.560   1.392  12.151  0.6998  0.1734 -0.4784
11411TIP3    H255725   6.699   1.365  12.204 -0.3085 -0.3505  2.0530
11412TIP3   OH255726   5.846   1.328   5.064  0.5360  0.0032 -0.4291
11412TIP3    H155727   5.798   1.400   5.105  1.3821  0.3855 -0.0908
11412TIP3    H255728   5.840   1.256   5.127  2.4745  0.8240  0.7768
11413TIP3   OH255729   4.890   4.978   0.687 -0.0254  0.2450  0.1578
11413TIP3    H155730   4.818   4.986   0.750  0.4621  0.3601  0.7101
11413TIP3    H255731   4.943   4.906   0.720 -1.1002 -1.4169 -1.5047
11414TIP3   OH255732   1.923   4.127  11.808  0.1424  0.1369  0.1157
11414TIP3    H155733   1.851   4.063  11.809  1.2463 -1.1482 -0.1313
11414TIP3    H255734   1.961   4.119  11.720  2.4755 -1.4327  1.1704
11415TIP3   OH255735   4.000   0.914   4.149 -0.2882  0.1853 -0.3923
11415TIP3    H155736   4.055   0.837   4.165 -0.8451 -0.0383  0.4866
11415TIP3    H255737   4.009   0.930   4.054  0.2731 -0.6132 -0.4850
11416TIP3   OH255738   1.237   6.248  15.562 -0.3651 -0.1047  0.3370
11416TIP3    H155739   1.255   6.334  15.524 -0.5028 -0.4490 -0.5111
11416TIP3    H255740   1.146   6.254  15.592 -0.1664  0.2592  0.8919
11417TIP3   OH255741   5.184   5.404  10.802 -0.0366  0.2656  0.1053
11417TIP3    H155742   5.251   5.415  10.733  0.2218 -0.0795  0.2933
11417TIP3    H255743   5.186   5.310  10.821 -0.8901  0.1788 -0.1956
11418TIP3   OH255744   0.765   3.730   4.530  0.1147 -0.4309  0.2594
11418TIP3    H155745   0.818   3.702   4.455 -1.5453 -1.0162 -0.7595
11418TIP3    H255746   0.701   3.790   4.492 -1.0771 -1.1376  1.0929
11419TIP3   OH255747   0.641   3.064  10.843 -0.3789 -0.2757 -0.2203
11419TIP3    H155748   0.556   3.059  10.889 -1.2927  1.7504 -1.5672
11419TIP3    H255749   0.628   3.014  10.763  0.4804 -1.8452  0.5614
11420TIP3   OH255750   2.131   1.850  14.841 -0.1279 -0.4463 -0.4853
11420TIP3    H155751   2.076   1.782  14.880  0.9413 -1.3081 -0.4203
11420TIP3    H255752   2.179   1.888  14.915  0.4023 -0.6803 -0.7028
11421TIP3   OH255753   0.876   3.701  14.136  0.1664 -0.1419  0.1166
11421TIP3    H155754   0.892   3.639  14.064  0.0975 -0.6310  0.5170
11421TIP3    H255755   0.964   3.726  14.165  0.2815  2.3315 -2.0217
11422TIP3   OH255756   4.524   2.009   5.759 -0.2405  0.3158  0.7742
11422TIP3    H155757   4.514   1.917   5.781 -1.1457  0.5300  1.3489
11422TIP3    H255758   4.590   2.042   5.820  0.0695  0.0559  0.5798
11423TIP3   OH255759   2.115   3.926   3.299 -0.1214  0.2490  0.0199
11423TIP3    H155760   2.168   3.846   3.301 -2.3067 -1.2635  0.9261
11423TIP3    H255761   2.145   3.976   3.376  0.3244 -0.3259  0.2288
11424TIP3   OH255762   5.010   2.814  13.672 -0.1289  0.0183  0.8118
11424TIP3    H155763   5.039   2.898  13.708 -0.7365  0.5771  0.0231
11424TIP3    H255764   5.022   2.752  13.744 -0.0255  0.8468  1.5265
11425TIP3   OH255765   5.521   6.013   5.585 -0.1089 -0.2820 -0.3902
11425TIP3    H155766   5.465   5.937   5.601  0.9816 -0.8983  0.6668
11425TIP3    H255767   5.507   6.069   5.661  2.3914 -1.5296  1.1029
11426TIP3   OH255768   2.361   4.731   0.681  0.4219 -0.7101  0.3096
11426TIP3    H155769   2.378   4.678   0.603  0.5272 -2.4920  1.4639
11426TIP3    H255770   2.448   4.751   0.716  0.4384  1.3235 -0.7424
11427TIP3   OH255771   4.646   2.942   0.783  0.1466 -0.2859  0.2875
11427TIP3    H155772   4.553   2.924   0.798 -0.4096  0.8734 -1.4583
11427TIP3    H255773   4.666   3.014   0.843 -0.4895  0.4206 -0.3235
11428TIP3   OH255774   0.039   4.329  12.050  0.0737 -0.6556  0.2141
11428TIP3    H155775  -0.027   4.394  12.027  0.7045  0.1103  0.5137
11428TIP3    H255776   0.028   4.260  11.985 -0.6366 -0.2711 -0.0880
11429TIP3   OH255777   2.115   4.620  16.911 -0.2290 -0.1703 -0.1223
11429TIP3    H155778   2.174   4.639  16.838 -3.0720  0.6226 -2.4063
11429TIP3    H255779   2.130   4.691  16.974  2.9488 -1.3872  0.6642
11430TIP3   OH255780   2.079   0.110   3.285 -0.1549  0.7978 -0.5157
11430TIP3    H155781   1.998   0.059   3.284 -0.2715  0.9440  0.3839
11430TIP3    H255782   2.052   0.196   3.318  0.5790  0.4267  1.1620
11431TIP3   OH255783   2.233   0.415   6.491 -0.5813  0.0158  0.0862
11431TIP3    H155784   2.262   0.483   6.429 -0.8158 -0.2461 -0.3145
11431TIP3    H255785   2.295   0.422   6.564  0.0627 -0.0598 -0.4383
11432TIP3   OH255786   5.669   2.345   0.482 -0.5613  0.1320 -0.2878
11432TIP3    H155787   5.638   2.372   0.395  1.2021 -0.4933 -1.1751
11432TIP3    H255788   5.747   2.400   0.496  0.2023 -1.0200  0.0795
11433TIP3   OH255789   3.398   4.046   1.890  0.1688  0.0475  0.4378
11433TIP3    H155790   3.393   4.141   1.879 -0.6453  0.1526  1.5111
11433TIP3    H255791   3.491   4.027   1.894  0.3860  0.5880 -1.3289
11434TIP3   OH255792   5.609   0.019  11.432  0.5400  0.0066  0.3244
11434TIP3    H155793   5.594   0.066  11.515 -0.0345  0.0278  0.2145
11434TIP3    H255794   5.532  -0.037  11.423  0.8409 -0.3638  0.0486
11435TIP3   OH255795   3.626   4.706   4.167 -0.3998 -0.1649  0.1585
11435TIP3    H155796   3.684   4.706   4.243  0.6210 -0.2164 -0.6006
11435TIP3    H255797   3.572   4.784   4.178 -1.2143 -0.9024  1.6223
11436TIP3   OH255798   4.793   3.805  14.116  0.6909 -0.0369  0.2797
11436TIP3    H155799   4.717   3.752  14.142  1.0080 -0.3167  0.6585
11436TIP3    H255800   4.828   3.761  14.039 -1.0814  1.5772 -1.5615
11437TIP3   OH255801   3.966   6.113   5.782 -0.0698  0.1465  0.3511
11437TIP3    H155802   4.012   6.124   5.866  0.8199 -0.9527  0.0263
11437TIP3    H255803   4.035   6.110   5.717 -0.5214 -1.8032 -0.1253
11438TIP3   OH255804   4.414   5.119   5.484 -0.0182 -0.0107 -0.1115
11438TIP3    H155805   4.423   5.213   5.468  1.4799  0.2030  1.6694
11438TIP3    H255806   4.329   5.111   5.528  0.2063  0.6403  0.4700
11439TIP3   OH255807   5.864   1.867  16.256  0.1095  0.0453 -0.2437
11439TIP3    H155808   5.859   1.896  16.347 -0.4873 -0.2738 -0.1751
11439TIP3    H255809   5.932   1.923  16.217 -1.2815  1.8457 -0.2144
11440TIP3   OH255810   5.184   3.628  12.888  0.0531  0.6065  0.4231
11440TIP3    H155811   5.174   3.553  12.946 -0.4191 -1.3403 -1.9903
11440TIP3    H255812   5.184   3.704  12.946 -3.0314 -0.9736  2.7827
11441TIP3   OH255813   0.718   6.448  11.054  0.9847  0.0206 -0.0611
11441TIP3    H155814   0.750   6.535  11.076  0.9199 -0.2286  1.0658
11441TIP3    H255815   0.756   6.391  11.120  2.9030 -1.2001 -2.0769
11442TIP3   OH255816   1.632   0.532  12.323  0.2597  0.1168 -0.6572
11442TIP3    H155817   1.557   0.572  12.366  0.9915  0.0990  0.6866
11442TIP3    H255818   1.708   0.575  12.361  0.9756 -0.7596 -1.0556
11443TIP3   OH255819   4.929   0.329   6.557 -0.1814  0.0830 -0.6668
11443TIP3    H155820   4.868   0.397   6.585  0.9923  1.4329 -1.2550
11443TIP3    H255821   4.873   0.259   6.523 -1.4196  0.9326 -0.4412
11444TIP3   OH255822   3.002   3.451  12.895  0.5300 -0.4243  0.2134
11444TIP3    H155823   3.053   3.377  12.862  2.0867  0.2380  1.0538
11444TIP3    H255824   2.947   3.477  12.821  1.8583 -0.7804 -0.9425
11445TIP3   OH255825   5.400   1.152   5.599  0.4581 -0.4358 -0.3203
11445TIP3    H155826   5.336   1.220   5.574 -0.8041 -0.9241  1.3662
11445TIP3    H255827   5.481   1.179   5.556 -0.3247  1.4514 -0.7490
11446TIP3   OH255828   5.103   4.421   0.479  0.5249  0.4006  0.2491
11446TIP3    H155829   5.158   4.362   0.530  0.0162 -0.8183 -0.5591
11446TIP3    H255830   5.149   4.505   0.481  1.3297 -0.0466  1.3298
11447TIP3   OH255831   5.277   5.426  16.422 -0.6637 -0.3617 -0.3064
11447TIP3    H155832   5.234   5.359  16.368 -0.3585 -1.1351  0.3742
11447TIP3    H255833   5.366   5.392  16.434 -0.0097  0.9452 -1.2435
11448TIP3   OH255834   1.597   5.891   5.626  0.0420  0.4585 -0.1891
11448TIP3    H155835   1.676   5.911   5.577  0.8462  0.4279  1.0512
11448TIP3    H255836   1.530   5.878   5.559  1.1260  0.2568 -1.2731
11449TIP3   OH255837   3.308   2.443  13.462  0.3593 -0.2965 -0.1798
11449TIP3    H155838   3.333   2.372  13.521 -0.1262  1.4665  2.2804
11449TIP3    H255839   3.387   2.497  13.453  0.2610 -0.2264 -0.6793
11450TIP3   OH255840   6.179   6.471  11.744 -0.3007  0.5834 -0.6255
11450TIP3    H155841   6.180   6.537  11.674  1.6556  0.5223 -0.6904
11450TIP3    H255842   6.215   6.392  11.704  1.5416  0.7440  0.5899
11451TIP3   OH255843   5.135   0.205  12.414 -0.2141 -0.4348  0.3333
11451TIP3    H155844   5.204   0.206  12.347 -0.4992 -0.2642  0.0438
11451TIP3    H255845   5.171   0.150  12.484  0.6686  0.5259  0.6566
11452TIP3   OH255846   4.092   2.331   1.727  0.3606  0.2959 -0.5472
11452TIP3    H155847   4.028   2.270   1.763  1.5787 -0.0701  1.1537
11452TIP3    H255848   4.043   2.384   1.665 -1.3669 -0.5611  0.0195
11453TIP3   OH255849   4.915   4.053  15.079  0.3423 -0.6409  0.0587
11453TIP3    H155850   4.965   4.014  15.007  1.9048 -1.9826  1.7745
11453TIP3    H255851   4.855   3.984  15.108 -1.1982  0.3149 -0.7143
11454TIP3   OH255852   1.547   6.692   1.993  0.4951  0.0844  0.2939
11454TIP3    H155853   1.549   6.600   2.020  0.7474  0.2996  1.0209
11454TIP3    H255854   1.462   6.724   2.023 -0.8689 -0.6295 -2.4549
11455TIP3   OH255855   0.180   2.835   1.500  0.4667  0.3025  0.5337
11455TIP3    H155856   0.204   2.776   1.571 -0.9020 -0.5932  0.2734
11455TIP3    H255857   0.091   2.863   1.520 -0.8614 -1.7684 -1.9531
11456TIP3   OH255858   4.854   2.627   2.349  0.2177  0.1715 -0.3922
11456TIP3    H155859   4.857   2.536   2.321  1.2442  0.1263 -0.1747
11456TIP3    H255860   4.761   2.647   2.357 -0.0345 -0.6348 -1.1506
11457TIP3   OH255861   5.477   3.613  13.567 -0.7834  0.5058 -0.3645
11457TIP3    H155862   5.552   3.575  13.521 -1.0693 -1.0392  0.3657
11457TIP3    H255863   5.510   3.635  13.654 -1.0910  0.0944 -0.1387
11458TIP3   OH255864   5.919   3.475   6.571 -0.0238 -0.2339 -0.3348
11458TIP3    H155865   5.936   3.428   6.652  3.3779 -2.2009 -1.9669
11458TIP3    H255866   5.841   3.433   6.535  1.3341 -2.8885 -0.4114
11459TIP3   OH255867   0.541   3.732  10.447  0.6251  0.0814  1.0870
11459TIP3    H155868   0.486   3.790  10.394 -1.3352 -0.4623  2.4002
11459TIP3    H255869   0.555   3.655  10.392 -2.5431 -1.0828  1.7071
11460TIP3   OH255870   3.787   5.484  15.152  0.1165 -0.5613  0.0049
11460TIP3    H155871   3.709   5.461  15.203 -0.8523 -1.3831 -1.7690
11460TIP3    H255872   3.768   5.454  15.063  0.8904  2.5477 -1.3722
11461TIP3   OH255873   2.452   5.709   2.756 -0.1559 -0.1582  0.1152
11461TIP3    H155874   2.431   5.703   2.849  1.0289  1.5983  0.5607
11461TIP3    H255875   2.387   5.769   2.720  0.9875  1.3391  0.4396
11462TIP3   OH255876   5.360   0.600   2.223  0.5036 -0.0824  0.1490
11462TIP3    H155877   5.348   0.647   2.306  3.4165  1.8836 -0.3854
11462TIP3    H255878   5.280   0.618   2.173 -0.6689 -0.0836  1.9155
11463TIP3   OH255879   1.552   3.677  14.407  0.1908 -0.5858  0.0409
11463TIP3    H155880   1.482   3.663  14.343  1.4886 -1.6330 -1.1993
11463TIP3    H255881   1.530   3.760  14.448 -1.4533 -0.5891 -0.7340
11464TIP3   OH255882   4.145   1.245   2.290  0.8369  0.0413  0.0763
11464TIP3    H155883   4.060   1.202   2.301  0.0493  1.0796 -1.5950
11464TIP3    H255884   4.205   1.194   2.345 -0.4155 -2.0607 -0.3997
11465TIP3   OH255885   5.076   0.024   0.010  0.3028  0.2377 -0.1767
11465TIP3    H155886   5.012  -0.020  -0.045 -0.0442 -0.8396  1.0455
11465TIP3    H255887   5.024   0.073   0.074  0.6749 -0.1980  0.4810
11466TIP3   OH255888   1.937   5.199  16.213 -0.2483 -0.3607  0.6023
11466TIP3    H155889   1.874   5.184  16.143 -2.0745 -1.2960  2.3438
11466TIP3    H255890   1.897   5.267  16.267  0.8340 -0.0853  1.0993
11467TIP3   OH255891   1.667   1.062  16.111  0.5512 -0.1287  0.7468
11467TIP3    H155892   1.667   1.048  16.016  0.7657  0.4018  0.6670
11467TIP3    H255893   1.612   1.140  16.123 -1.3283 -1.4698  1.2564
11468TIP3   OH255894   4.083   3.306   6.092 -0.2005  0.6619  0.4391
11468TIP3    H155895   4.128   3.250   6.029 -0.1013 -2.0426  2.7167
11468TIP3    H255896   3.991   3.302   6.065 -0.2753 -1.0749  0.8107
11469TIP3   OH255897   3.889   4.509   2.742  0.2983 -0.0049 -0.2083
11469TIP3    H155898   3.868   4.559   2.821 -0.8865 -0.3607 -0.2775
11469TIP3    H255899   3.815   4.450   2.731  0.5868 -0.1604 -1.4324
11470TIP3   OH255900   1.523   0.646   3.445 -0.2582  0.1166  1.2189
11470TIP3    H155901   1.464   0.718   3.424 -0.6003 -0.7324 -0.9620
11470TIP3    H255902   1.470   0.587   3.499 -0.2668  1.0135  2.2153
11471TIP3   OH255903   5.426   4.945  14.424  0.2781 -0.3002 -0.6073
11471TIP3    H155904   5.414   4.917  14.334 -1.7237 -0.0287 -0.4713
11471TIP3    H255905   5.441   5.040  14.418 -0.0207 -0.2544 -0.6629
11472TIP3   OH255906   5.027   2.097  17.094 -1.1290  0.0459  0.1668
11472TIP3    H155907   5.110   2.095  17.142 -1.0982  0.2449  0.1255
11472TIP3    H255908   4.991   2.009  17.103 -0.4134 -0.3415 -0.7006
11473TIP3   OH255909   6.087   0.360   1.218 -0.5164 -0.2021  0.0443
11473TIP3    H155910   5.993   0.373   1.231 -0.3955 -0.7225  1.5939
11473TIP3    H255911   6.126   0.373   1.304  0.9396  0.7293 -0.7027
11474TIP3   OH255912   6.263   1.610   0.218  0.3527  0.4455  0.0940
11474TIP3    H155913   6.208   1.568   0.152  0.7152  1.7269 -1.0573
11474TIP3    H255914   6.328   1.544   0.240  0.2130 -0.0106 -0.8228
11475TIP3   OH255915   1.575   0.645  15.561 -0.0537 -0.3263  0.5053
11475TIP3    H155916   1.497   0.674  15.610 -1.2203 -1.3351 -0.6711
11475TIP3    H255917   1.648   0.667  15.618 -1.2829 -0.5074  2.2397
11476TIP3   OH255918   0.766   1.139   5.920  0.0532  0.7955  0.2955
11476TIP3    H155919   0.861   1.153   5.922 -0.0867  1.7800  0.4812
11476TIP3    H255920   0.730   1.223   5.892 -0.7844  0.5130  0.5070
11477TIP3   OH255921   3.271   2.337   3.105 -0.5446  0.4261 -0.3586
11477TIP3    H155922   3.267   2.289   3.023 -0.1212 -0.0920 -0.0829
11477TIP3    H255923   3.340   2.403   3.091 -1.4351  1.2593 -0.8889
11478TIP3   OH255924   3.522   3.941   0.015 -0.2138  0.2634  0.1154
11478TIP3    H155925   3.605   3.896  -0.002 -0.0862  1.3282 -2.6158
11478TIP3    H255926   3.455   3.883  -0.021 -0.2863  1.0124 -1.0000
11479TIP3   OH255927   1.652   5.950   2.186 -0.5386  0.1878 -0.3302
11479TIP3    H155928   1.740   5.913   2.174 -1.2235 -1.4515 -0.5642
11479TIP3    H255929   1.635   5.941   2.279 -1.2219 -1.4130 -0.5729
11480TIP3   OH255930   2.661   1.562   5.699 -0.0697  0.1926 -0.4541
11480TIP3    H155931   2.600   1.635   5.703 -0.2681  0.0837 -1.3039
11480TIP3    H255932   2.708   1.564   5.783  0.1088  1.4452 -0.5775
11481TIP3   OH255933   5.813   5.273  16.491 -0.6567  0.2831 -0.1657
11481TIP3    H155934   5.883   5.332  16.518 -0.9407 -0.0248  1.3241
11481TIP3    H255935   5.854   5.213  16.429  1.2538 -1.7771  2.7939
11482TIP3   OH255936   6.686   1.429   4.190  0.7275 -0.1202 -0.0990
11482TIP3    H155937   6.640   1.416   4.272  0.1604 -1.6323 -0.6306
11482TIP3    H255938   6.763   1.481   4.213  0.2880 -0.0554  1.2729
11483TIP3   OH255939   2.886   2.181  17.019 -0.1950  0.0027 -0.6270
11483TIP3    H155940   2.847   2.140  17.097  3.5261 -0.2179  1.3554
11483TIP3    H255941   2.858   2.126  16.946 -0.4703 -2.3650  1.1528
11484TIP3   OH255942   2.956   2.225   0.506  0.4796  0.3361  0.7396
11484TIP3    H155943   2.904   2.300   0.535  1.8552  1.3664  0.6508
11484TIP3    H255944   2.984   2.248   0.417 -1.3325 -1.5269 -0.3990
11485TIP3   OH255945   1.286   6.137   5.037  0.0561 -0.4266  0.2655
11485TIP3    H155946   1.367   6.093   5.011 -0.9459 -1.5794 -1.1128
11485TIP3    H255947   1.254   6.085   5.111  0.2510 -0.3612  0.3971
11486TIP3   OH255948   5.767   3.783  16.594 -0.0037  0.0281 -0.2806
11486TIP3    H155949   5.797   3.701  16.633 -0.7922  0.5761  1.5918
11486TIP3    H255950   5.774   3.768  16.499  0.9405 -1.7696  0.0198
11487TIP3   OH255951   2.098   0.518  15.869 -0.2684 -0.3310 -0.2093
11487TIP3    H155952   2.189   0.520  15.900  0.3679 -4.0683 -1.4130
11487TIP3    H255953   2.048   0.487  15.944 -0.4275  0.6057  0.0929
11488TIP3   OH255954   5.973   2.770   4.225  0.1595 -0.1083 -0.1079
11488TIP3    H155955   5.938   2.761   4.313 -0.1497  0.0179 -0.2151
11488TIP3    H255956   5.936   2.695   4.177 -0.1251  0.1325 -0.2711
11489TIP3   OH255957   0.448   2.656   1.932 -0.0908  0.4421  0.1200
11489TIP3    H155958   0.510   2.596   1.974 -0.8749  1.1278  2.3655
11489TIP3    H255959   0.378   2.668   1.996 -0.8639  2.3411 -0.9889
11490TIP3   OH255960   5.740   0.381   4.875  0.2198 -0.0736  0.1085
11490TIP3    H155961   5.656   0.335   4.881 -0.7665  1.7174  0.8552
11490TIP3    H255962   5.772   0.385   4.965  0.4672  0.3721  0.0031
11491TIP3   OH255963   0.967   1.965   2.725 -0.2139 -0.4277 -0.3969
11491TIP3    H155964   0.872   1.955   2.717 -0.3223 -1.6589  1.7987
11491TIP3    H255965   1.003   1.902   2.663 -0.7812  0.0583 -1.2592
11492TIP3   OH255966   1.468   6.054  13.813  0.5024  0.1876 -0.0797
11492TIP3    H155967   1.394   6.101  13.850  1.2114  1.3546 -0.1053
11492TIP3    H255968   1.536   6.059  13.880  0.2288 -1.8648  0.4361
11493TIP3   OH255969   4.026   5.896  13.113 -0.2512 -0.7365  0.8294
11493TIP3    H155970   4.081   5.972  13.090  0.0223 -1.1577  0.0346
11493TIP3    H255971   4.014   5.850  13.030 -1.1943 -1.0598  1.1325
11494TIP3   OH255972   5.707   4.285  10.789 -0.0990 -0.5600  0.1082
11494TIP3    H155973   5.648   4.210  10.786 -0.4511 -0.3003  0.3713
11494TIP3    H255974   5.772   4.262  10.855 -1.2654  0.1048  1.5520
11495TIP3   OH255975   3.479   6.698  11.323  0.0718  0.1050  0.1543
11495TIP3    H155976   3.479   6.769  11.386  2.1299  1.1236 -0.8655
11495TIP3    H255977   3.549   6.640  11.352 -0.4581 -0.6094  0.0351
11496TIP3   OH255978   5.658   2.995   3.503  0.0876 -0.2466 -0.1710
11496TIP3    H155979   5.609   3.008   3.584 -1.3114  0.4070 -1.0824
11496TIP3    H255980   5.688   3.083   3.479  0.8348 -0.4948 -0.1686
11497TIP3   OH255981   1.801   4.682   0.275 -0.2890  0.2877  0.7486
11497TIP3    H155982   1.840   4.748   0.332  0.7261 -0.5830  1.1067
11497TIP3    H255983   1.858   4.605   0.285 -0.8272 -0.2979 -0.4577
11498TIP3   OH255984   2.702   3.662  13.571  0.6636 -0.5778 -0.2124
11498TIP3    H155985   2.656   3.579  13.561 -0.0213 -0.5993  2.3833
11498TIP3    H255986   2.655   3.723  13.513 -1.4487 -1.0874  0.8528
11499TIP3   OH255987   2.682   3.241  12.037  0.9721 -0.1596  0.5053
11499TIP3    H155988   2.755   3.230  12.098 -0.1135  0.8118  2.0258
11499TIP3    H255989   2.605   3.252  12.092 -0.0772  0.5917 -1.0397
11500TIP3   OH255990   5.046   5.508  13.690  0.2032 -0.0213  0.0210
11500TIP3    H155991   4.958   5.512  13.726  0.2809 -0.5504  0.2777
11500TIP3    H255992   5.098   5.564  13.748 -0.0202  0.5605 -0.3245
11501TIP3   OH255993   3.534   1.394   0.447 -0.3124 -0.0686 -0.1847
11501TIP3    H155994   3.587   1.468   0.477 -0.0709 -0.0543 -0.6527
11501TIP3    H255995   3.510   1.348   0.528 -0.2981  0.4055  0.0937
11502TIP3   OH255996   4.101   1.122   4.633 -0.2772  0.0308  0.1378
11502TIP3    H155997   4.025   1.064   4.623 -0.3098  0.3579 -2.3552
11502TIP3    H255998   4.064   1.204   4.665 -1.0214  0.1928 -1.0669
11503TIP3   OH255999   2.797   4.474   5.216  0.2050 -0.2253 -0.3197
11503TIP3    H156000   2.744   4.477   5.296  1.8855  2.0701  0.8038
11503TIP3    H256001   2.745   4.521   5.151 -0.2552 -0.2696  0.0137
11504TIP3   OH256002   0.985   3.973  16.567  0.2663 -0.0261 -0.2994
11504TIP3    H156003   0.968   4.048  16.624 -0.1867 -1.9385  2.2590
11504TIP3    H256004   1.074   3.986  16.535  0.1821  1.6000  0.0821
11505TIP3   OH256005   0.323   2.902  17.174 -0.0577  0.1751 -0.7573
11505TIP3    H156006   0.379   2.914  17.250 -0.3453  1.3575 -0.7077
11505TIP3    H256007   0.339   2.980  17.120 -0.6034 -0.1568 -1.4131
11506TIP3   OH256008   6.539   2.454  16.613 -0.6283 -0.7606  0.4286
11506TIP3    H156009   6.597   2.379  16.601  0.8644  0.3787  0.2676
11506TIP3    H256010   6.494   2.437  16.696  2.4911 -0.1289  2.4287
11507TIP3   OH256011   5.030   0.573  12.931  0.0723  0.3780 -0.0289
11507TIP3    H156012   5.036   0.652  12.878 -1.1760  1.0478  0.7768
11507TIP3    H256013   4.994   0.603  13.015 -1.4986 -1.1668 -0.0856
11508TIP3   OH256014   6.268   5.299   6.661  0.6350  0.6240 -0.6022
11508TIP3    H156015   6.267   5.209   6.692  0.3526  0.8096 -0.0631
11508TIP3    H256016   6.177   5.328   6.665  0.9805  1.6356  1.3775
11509TIP3   OH256017   6.324   1.284   2.432  0.0208  0.4039  0.4988
11509TIP3    H156018   6.261   1.312   2.499 -0.5785 -0.7602  0.4446
11509TIP3    H256019   6.407   1.323   2.459 -0.1599 -0.2251  2.0391
11510TIP3   OH256020   2.190   2.575  11.048 -0.5242 -0.1781 -0.3249
11510TIP3    H156021   2.097   2.567  11.071 -0.4722  1.6121  0.7235
11510TIP3    H256022   2.206   2.670  11.048  1.4119 -0.4736 -0.0477
11511TIP3   OH256023   5.548   3.364   1.787 -0.3942 -0.1480  0.6084
11511TIP3    H156024   5.502   3.334   1.866 -1.2215  1.2042  0.6708
11511TIP3    H256025   5.603   3.436   1.817 -0.4607  0.1551  0.0080
11512TIP3   OH256026   6.786   4.455  11.357  0.7765  0.2544 -0.4365
11512TIP3    H156027   6.865   4.404  11.338 -0.2412 -1.5577 -0.0336
11512TIP3    H256028   6.727   4.434  11.284  0.3423  0.8889 -0.2701
11513TIP3   OH256029   5.853   5.176  15.299  0.6901  0.3921 -0.9572
11513TIP3    H156030   5.805   5.243  15.349  1.3601 -0.0060  0.2664
11513TIP3    H256031   5.921   5.224  15.253 -0.0169  0.7829 -1.6241
11514TIP3   OH256032   5.079   2.136   6.467 -0.0924 -0.0295  0.3720
11514TIP3    H156033   5.036   2.196   6.406  0.4679  0.9277  0.8900
11514TIP3    H256034   5.127   2.193   6.527  0.1367 -0.9878  1.1293
11515TIP3   OH256035   6.236   1.543   2.221 -0.6745 -0.4633  0.0544
11515TIP3    H156036   6.293   1.540   2.144  0.7279 -1.7212  1.0739
11515TIP3    H256037   6.250   1.458   2.265 -1.5910  0.1216  1.5710
11516TIP3   OH256038   3.089   0.522   0.841 -0.1667  0.9247 -0.0691
11516TIP3    H156039   3.050   0.583   0.779 -0.9388  1.0168  0.4892
11516TIP3    H256040   3.148   0.575   0.894 -0.2800  1.0440 -0.0631
11517TIP3   OH256041   0.918   5.262   2.746 -0.6163  0.0322  0.0059
11517TIP3    H156042   0.912   5.357   2.735  4.0430  0.6980  1.0667
11517TIP3    H256043   0.958   5.232   2.665  1.0889 -0.4295  0.9812
11518TIP3   OH256044   6.227   6.004  12.919 -0.1951  0.0179 -0.2324
11518TIP3    H156045   6.217   6.043  12.832 -2.5760 -1.7014 -0.8220
11518TIP3    H256046   6.246   5.912  12.902 -0.3143 -0.2664  1.0792
11519TIP3   OH256047   2.106   5.845  12.433  0.0220 -0.6482 -0.1276
11519TIP3    H156048   2.067   5.812  12.514 -1.5596 -0.2456 -0.7059
11519TIP3    H256049   2.036   5.893  12.389  0.9113 -0.6389 -1.6236
11520TIP3   OH256050   2.369   6.114  16.962  0.1679  0.2256 -0.0528
11520TIP3    H156051   2.356   6.139  17.054 -0.9596 -0.8363  0.0962
11520TIP3    H256052   2.282   6.118  16.923  0.6044  0.4435 -1.0357
11521TIP3   OH256053   6.093   1.482  13.311  0.1873 -0.2075  0.7335
11521TIP3    H156054   6.164   1.524  13.359  1.0217 -1.6863  0.8344
11521TIP3    H256055   6.134   1.450  13.231 -0.3519 -1.1455  0.8257
11522TIP3   OH256056   5.075   3.657  14.432 -0.0634 -0.1344 -0.1919
11522TIP3    H156057   5.167   3.683  14.433  0.6185 -2.3609  0.2066
11522TIP3    H256058   5.028   3.738  14.412  2.1542  0.5762 -3.5615
11523TIP3   OH256059   5.408   4.223  14.053 -0.1500  0.2835 -0.3171
11523TIP3    H156060   5.487   4.239  14.104 -0.2698 -0.0843 -0.0100
11523TIP3    H256061   5.364   4.151  14.099 -1.1503  1.1223  0.0706
11524TIP3   OH256062   2.094   5.081   1.016 -0.7045  0.2698 -0.0980
11524TIP3    H156063   2.118   5.174   1.020 -0.9629  0.3178  0.3923
11524TIP3    H256064   2.166   5.040   0.968 -1.6521  1.0698 -2.2957
11525TIP3   OH256065   2.612   2.841   4.300  0.2818 -0.1074  0.2990
11525TIP3    H156066   2.679   2.808   4.240  0.9547  0.7907  0.5190
11525TIP3    H256067   2.634   2.802   4.384  1.8083  1.7513  0.8277
11526TIP3   OH256068   0.828   4.389  15.559  0.0612 -0.1907 -0.6052
11526TIP3    H156069   0.835   4.484  15.551 -3.3432  0.0899 -2.6786
11526TIP3    H256070   0.882   4.355  15.487  0.1372  0.2937 -0.7814
11527TIP3   OH256071   3.107   2.888   4.497 -0.6358  0.1687  0.3576
11527TIP3    H156072   3.073   2.917   4.582  2.9272  0.5351  1.8169
11527TIP3    H256073   3.160   2.961   4.466  0.4467 -1.0493 -0.7953
11528TIP3   OH256074   1.978   4.464   3.869 -0.4229  0.1465 -0.0275
11528TIP3    H156075   1.940   4.539   3.916  0.4443 -0.2729  1.4058
11528TIP3    H256076   2.072   4.477   3.875 -0.2488 -1.1903  0.4943
11529TIP3   OH256077   4.835   2.038   1.550  0.2731  0.4873 -0.1030
11529TIP3    H156078   4.838   1.997   1.463 -1.5368  0.8743 -0.3892
11529TIP3    H256079   4.786   1.976   1.604  0.0124  0.9628  0.2147
11530TIP3   OH256080   5.465   4.181   1.742  0.1249 -0.1357 -0.0330
11530TIP3    H156081   5.511   4.099   1.756  1.7011  0.8694  1.0214
11530TIP3    H256082   5.418   4.197   1.824 -0.9924 -0.4442 -0.5917
11531TIP3   OH256083   1.949   4.315   1.898  0.1587  0.0872  0.1841
11531TIP3    H156084   2.003   4.333   1.976  0.6009 -0.7998  0.0932
11531TIP3    H256085   2.012   4.285   1.832 -0.1974  0.9158 -0.5631
11532TIP3   OH256086   0.764   3.280  15.349 -0.1484  0.5330 -0.0577
11532TIP3    H156087   0.807   3.245  15.427 -1.9631 -1.5013  0.1117
11532TIP3    H256088   0.811   3.239  15.276 -0.8787 -0.6162  0.0947
11533TIP3   OH256089   3.655   2.271  15.239 -0.1271  0.2818  0.1952
11533TIP3    H156090   3.678   2.235  15.325  0.4255 -1.3243 -0.5839
11533TIP3    H256091   3.560   2.282  15.242 -0.0271  1.0014  1.2698
11534TIP3   OH256092   6.583   5.214   0.691 -0.0811 -0.2069  0.0751
11534TIP3    H156093   6.527   5.214   0.768 -0.0364  0.5677  0.1120
11534TIP3    H256094   6.662   5.259   0.719 -1.0297  2.3397 -1.0897
11535TIP3   OH256095   0.783   5.429  14.495  0.0217  0.3891  0.2983
11535TIP3    H156096   0.859   5.371  14.496  0.3526  0.6967 -1.8497
11535TIP3    H256097   0.742   5.413  14.411 -0.3030  2.6969 -0.0495
11536TIP3   OH256098   4.925   5.170   1.887 -0.1816 -0.5307 -0.0850
11536TIP3    H156099   4.969   5.253   1.904 -0.6285 -0.1033 -0.9724
11536TIP3    H256100   4.913   5.131   1.974 -0.6548  0.6783  0.4179
11537TIP3   OH256101   5.954   4.635  10.769  0.4483 -0.5487 -0.0185
11537TIP3    H156102   6.046   4.660  10.761 -0.0788  1.4976 -0.0993
11537TIP3    H256103   5.907   4.717  10.782 -1.2894 -1.6364  1.0220
11538TIP3   OH256104   2.376   0.953   5.582 -0.2239  0.4255 -0.1019
11538TIP3    H156105   2.456   1.004   5.595  0.7657 -0.5280 -2.0155
11538TIP3    H256106   2.319   0.977   5.656  1.6744  1.3955  1.1126
11539TIP3   OH256107   1.985   5.401  16.960  0.2212  0.5689 -0.3129
11539TIP3    H156108   1.915   5.354  17.006 -1.9773  1.3079 -2.6994
11539TIP3    H256109   1.985   5.488  17.001 -0.3152  0.5899 -0.3484
11540TIP3   OH256110   6.374   1.315   3.404 -0.4870 -0.1273 -0.1348
11540TIP3    H156111   6.281   1.311   3.424 -0.4721  0.3548  0.0376
11540TIP3    H256112   6.415   1.347   3.484 -0.4134  1.7275 -0.8554
11541TIP3   OH256113   2.295   5.869  14.869 -0.1801  0.6552  0.4806
11541TIP3    H156114   2.277   5.796  14.928  1.0777  0.4032  0.5905
11541TIP3    H256115   2.231   5.936  14.893 -0.4806  0.0954  1.2888
11542TIP3   OH256116   2.900   1.283  14.795  0.1084 -0.1302  0.2996
11542TIP3    H156117   2.867   1.288  14.705  0.4214 -1.0611  0.1250
11542TIP3    H256118   2.858   1.205  14.831 -0.5875  0.6480  1.2083
11543TIP3   OH256119   4.402   4.766  13.777  0.0212  0.7565  0.2727
11543TIP3    H156120   4.428   4.838  13.835  0.9341  0.1497  0.6337
11543TIP3    H256121   4.314   4.791  13.746  0.7346  2.5401 -0.4572
11544TIP3   OH256122   0.700   3.019  11.235  0.0004 -1.1515  0.4312
11544TIP3    H156123   0.634   2.974  11.182 -0.3296  0.4683 -0.6460
11544TIP3    H256124   0.657   3.101  11.261  1.8948  0.4727 -1.2241
11545TIP3   OH256125   1.452   4.847   3.121 -0.1984 -0.0015  0.3976
11545TIP3    H156126   1.511   4.890   3.059  0.1856 -2.5922 -1.1657
11545TIP3    H256127   1.507   4.783   3.165 -1.2263 -0.4766  1.0244
11546TIP3   OH256128   2.699   0.015   0.102  0.0021  0.1902  0.1420
11546TIP3    H156129   2.737  -0.059   0.148  0.1729  0.6038  0.6753
11546TIP3    H256130   2.750   0.091   0.130 -0.4235  0.5743 -0.0824
11547TIP3   OH256131   0.366   4.516  16.738 -0.9441 -0.5666 -0.0752
11547TIP3    H156132   0.406   4.533  16.652 -1.1180 -1.3250 -0.3142
11547TIP3    H256133   0.346   4.603  16.772 -0.9364 -0.2521 -0.8402
11548TIP3   OH256134   2.067   0.263   0.980 -0.2995 -0.5031  0.0778
11548TIP3    H156135   2.126   0.190   0.997  1.4121  0.5453 -1.1050
11548TIP3    H256136   2.020   0.275   1.063 -0.0623 -2.3885  0.5476
11549TIP3   OH256137   3.824   6.640   1.059 -0.0755 -0.0632 -0.3455
11549TIP3    H156138   3.862   6.553   1.067 -1.3896 -0.5427  1.4564
11549TIP3    H256139   3.766   6.648   1.135  0.6568  2.7213  0.0303
11550TIP3   OH256140   5.081   2.372   4.337  0.5853  0.0844 -0.5528
11550TIP3    H156141   5.039   2.374   4.423  1.6843 -0.3090  0.0144
11550TIP3    H256142   5.163   2.325   4.352  1.3025  0.9734 -1.5925
11551TIP3   OH256143   4.204   3.921   0.100  0.3332 -0.4378  0.4423
11551TIP3    H156144   4.276   3.969   0.140  0.6778 -0.3168 -0.3114
11551TIP3    H256145   4.226   3.829   0.113  1.2128 -0.4203 -0.7831
11552TIP3   OH256146   3.390   2.524   3.758  0.5368 -0.1354  0.2297
11552TIP3    H156147   3.481   2.497   3.764  0.7235  0.4818  0.2416
11552TIP3    H256148   3.340   2.445   3.777  1.0626  0.1623  3.2761
11553TIP3   OH256149   5.724   4.573  16.553 -0.2847  0.1422  0.4553
11553TIP3    H156150   5.698   4.661  16.580 -0.5166  1.0731 -2.4230
11553TIP3    H256151   5.819   4.576  16.548 -0.3745  0.9191 -1.5229
11554TIP3   OH256152   3.588   1.530   4.056  0.6936  0.2212  0.7276
11554TIP3    H156153   3.549   1.508   4.140  0.4387 -2.6919 -0.0390
11554TIP3    H256154   3.613   1.445   4.018  0.6118  1.3917 -2.2242
11555TIP3   OH256155   2.914   6.159   2.832  0.5637 -0.1988 -0.7466
11555TIP3    H156156   2.899   6.068   2.806 -0.2588 -0.0430 -0.8447
11555TIP3    H256157   2.901   6.159   2.927  0.7526 -0.2206 -0.7210
11556TIP3   OH256158   5.983   5.678   0.145 -0.6103  0.0175 -0.3480
11556TIP3    H156159   5.938   5.737   0.085 -1.4949 -0.4368 -0.1464
11556TIP3    H256160   6.022   5.736   0.211 -1.8327  0.3637  0.0900
11557TIP3   OH256161   0.597   5.091  14.725 -0.6073  0.0505 -0.3146
11557TIP3    H156162   0.517   5.042  14.744 -0.2399 -0.5152 -0.1792
11557TIP3    H256163   0.622   5.063  14.637  0.3779 -1.1328  0.2953
11558TIP3   OH256164   0.411   1.363   4.330  0.3070  0.3843 -0.3505
11558TIP3    H156165   0.444   1.428   4.392 -1.7513 -0.1232  1.4071
11558TIP3    H256166   0.440   1.279   4.365 -2.5606 -0.0755  1.2362
11559TIP3   OH256167   5.331   1.784   2.662  0.3002  0.3444  0.4685
11559TIP3    H156168   5.415   1.738   2.659  0.0964 -0.0911  1.3124
11559TIP3    H256169   5.354   1.874   2.684  0.7185  0.7338 -1.3904
11560TIP3   OH256170   4.065   4.832  16.212  0.0037 -0.1377 -0.3058
11560TIP3    H156171   3.981   4.865  16.180 -0.0264  2.4056  1.9501
11560TIP3    H256172   4.130   4.884  16.166  0.2992 -1.0954 -0.9905
11561TIP3   OH256173   5.533   5.121   1.562 -0.4038 -1.3897  0.3546
11561TIP3    H156174   5.485   5.084   1.488  0.1099  0.4491 -0.9727
11561TIP3    H256175   5.544   5.047   1.623 -2.1291 -2.6000 -0.7041
11562TIP3   OH256176   5.386   4.831   2.456  0.3034 -0.7781 -0.1682
11562TIP3    H156177   5.330   4.897   2.496  1.3830 -0.5752  1.0877
11562TIP3    H256178   5.361   4.749   2.501 -0.3723 -1.0657 -1.0458
11563TIP3   OH256179   3.556   0.663  11.837  0.6758 -0.2437  0.1295
11563TIP3    H156180   3.495   0.659  11.912  2.6369 -0.0835  1.8297
11563TIP3    H256181   3.575   0.756  11.826 -1.5867  0.0326 -2.3833
11564TIP3   OH256182   0.005   4.287   6.828  0.2216  0.2777 -0.6127
11564TIP3    H156183   0.014   4.279   6.733 -1.7181  0.9728 -0.8970
11564TIP3    H256184   0.074   4.231   6.863  0.9522 -0.0350 -2.4215
11565TIP3   OH256185   0.990   4.345  11.825 -0.2838 -0.3302 -0.2184
11565TIP3    H156186   0.979   4.328  11.732 -1.9358  0.0060 -0.1169
11565TIP3    H256187   0.960   4.265  11.868 -0.3147 -0.1804  0.0430
11566TIP3   OH256188   3.786   0.656  15.479 -0.0114 -0.9113 -0.1026
11566TIP3    H156189   3.711   0.690  15.431  1.2797  1.4830 -0.5697
11566TIP3    H256190   3.801   0.569  15.441 -0.4743 -0.0458 -2.4435
11567TIP3   OH256191   3.819   0.756   6.656  0.5641  0.1409 -0.1295
11567TIP3    H156192   3.907   0.795   6.651  1.3363 -1.6018 -1.2573
11567TIP3    H256193   3.806   0.716   6.570 -1.0874 -0.1736  0.2398
11568TIP3   OH256194   2.827   4.912  16.393  0.0292 -0.1359  0.1655
11568TIP3    H156195   2.878   4.944  16.318  1.4030  0.1279  1.1785
11568TIP3    H256196   2.763   4.982  16.409  1.3387  0.9754  0.7549
11569TIP3   OH256197   3.433   1.454  13.818  0.2982  0.3138  0.4309
11569TIP3    H156198   3.383   1.378  13.788  1.1659  0.3722 -1.3150
11569TIP3    H256199   3.375   1.529  13.803  1.2443  0.5485 -2.8832
11570TIP3   OH256200   2.469   2.496  11.566  0.1871  0.2633 -0.0961
11570TIP3    H156201   2.514   2.506  11.650 -1.0014  1.4208  0.4400
11570TIP3    H256202   2.540   2.498  11.501  1.0319  0.4508  0.7981
11571TIP3   OH256203   6.631   3.675   2.137 -0.0177 -0.2206  0.2980
11571TIP3    H156204   6.680   3.599   2.170  1.9935 -0.1946 -2.3408
11571TIP3    H256205   6.689   3.750   2.155 -0.6330  0.2948  0.1648
11572TIP3   OH256206   1.722   4.458  14.820 -0.1188  0.4211 -0.1282
11572TIP3    H156207   1.727   4.531  14.759 -0.1543 -0.7789 -1.6214
11572TIP3    H256208   1.768   4.386  14.775 -0.6476 -0.6628  1.0075
11573TIP3   OH256209   3.951   3.372   2.591  0.1831 -0.2298  0.1826
11573TIP3    H156210   3.990   3.338   2.510  3.8958 -1.9065  2.4044
11573TIP3    H256211   3.902   3.297   2.626 -0.8572  0.2869 -0.1284
11574TIP3   OH256212   0.453   6.174  11.986  0.2061  0.1259  0.3260
11574TIP3    H156213   0.453   6.096  12.041 -2.6223  0.1440  0.5099
11574TIP3    H256214   0.426   6.143  11.900  1.7454  0.5454 -0.3455
11575TIP3   OH256215   5.944   5.973   3.147 -0.1481  0.0685 -0.6546
11575TIP3    H156216   5.852   5.952   3.160  0.2336 -0.6241  1.1418
11575TIP3    H256217   5.986   5.889   3.129  0.5307 -0.0618  1.2705
11576TIP3   OH256218   6.046   6.122  16.477  0.0004 -0.1979 -0.0407
11576TIP3    H156219   6.120   6.143  16.420 -0.9246 -1.8722 -1.9764
11576TIP3    H256220   5.988   6.197  16.470  0.5362  0.2051 -0.2061
11577TIP3   OH256221   6.765   0.824   1.238  0.0383  0.3070  0.4324
11577TIP3    H156222   6.788   0.760   1.170 -0.2328  0.4563  0.1993
11577TIP3    H256223   6.849   0.863   1.264  0.2983 -0.6121  1.0564
11578TIP3   OH256224   4.366   5.038   3.585 -0.2756  0.2473  0.0260
11578TIP3    H156225   4.372   5.102   3.655  2.5622 -1.3899  1.4916
11578TIP3    H256226   4.405   5.082   3.509 -0.8122  1.1050  0.2334
11579TIP3   OH256227   3.860   6.813  15.443  0.2291 -0.0397  0.1978
11579TIP3    H156228   3.771   6.798  15.474  0.2621 -0.5760  0.0436
11579TIP3    H256229   3.855   6.894  15.393 -0.2183 -0.1792  0.0139
11580TIP3   OH256230   1.325   4.240   3.653  0.0781  0.1435 -0.5120
11580TIP3    H156231   1.289   4.166   3.605  2.5597  0.4355 -3.1281
11580TIP3    H256232   1.281   4.317   3.616  0.0842  0.2056 -0.3909
11581TIP3   OH256233   1.428   3.405  16.640 -0.4127  0.0975  0.0827
11581TIP3    H156234   1.384   3.471  16.586 -0.6735 -0.0487  0.1157
11581TIP3    H256235   1.359   3.342  16.662  0.2580 -1.3155 -1.6544
11582TIP3   OH256236   6.401   5.954   4.900  0.1055  0.2116 -0.4211
11582TIP3    H156237   6.487   5.949   4.941  0.0407  1.5612 -0.0830
11582TIP3    H256238   6.340   5.927   4.968  0.2359 -0.5448 -0.5970
11583TIP3   OH256239   2.737   4.419   0.051  0.0439  0.3694 -0.2534
11583TIP3    H156240   2.767   4.495   0.000  0.5970  0.8822  0.7962
11583TIP3    H256241   2.813   4.361   0.055  0.0316  0.3768  0.0723
11584TIP3   OH256242   4.347   5.376  14.455 -0.7297 -0.2264  0.3194
11584TIP3    H156243   4.386   5.453  14.497  1.6430 -1.0549 -0.2030
11584TIP3    H256244   4.263   5.365  14.499 -0.4417  1.7205  1.4942
11585TIP3   OH256245   3.897   2.214   3.567  0.0991 -0.1075  0.1676
11585TIP3    H156246   3.981   2.261   3.570 -0.7353  1.4148  0.5916
11585TIP3    H256247   3.877   2.197   3.659  0.1034 -0.7956  0.0465
11586TIP3   OH256248   0.084   4.997   3.020 -0.7766 -0.0414 -0.4495
11586TIP3    H156249   0.072   4.961   2.932 -1.6899 -2.3283  0.5414
11586TIP3    H256250   0.132   4.929   3.068  3.6279  2.8352 -0.1948
11587TIP3   OH256251   6.654   1.677  13.358 -0.2468  0.1469  0.2428
11587TIP3    H156252   6.669   1.764  13.322  1.1981 -0.8002 -1.6777
11587TIP3    H256253   6.657   1.689  13.453  0.6892  2.0679  0.0248
11588TIP3   OH256254   1.344   4.095  10.733  0.0133  0.4611 -0.1049
11588TIP3    H156255   1.270   4.064  10.785  0.9072  1.8808  2.1184
11588TIP3    H256256   1.308   4.166  10.680 -0.1731  1.5069  1.3543
11589TIP3   OH256257   5.369   2.936  15.102  0.3790  0.1375 -0.4318
11589TIP3    H156258   5.435   2.882  15.145 -0.6157  1.2455  2.7618
11589TIP3    H256259   5.392   2.933  15.009  3.6037 -1.2218  0.2942
11590TIP3   OH256260   0.007   0.718  14.361 -0.3280 -0.1235  0.1995
11590TIP3    H156261   0.074   0.660  14.397 -0.3313 -0.4394 -0.2907
11590TIP3    H256262  -0.068   0.707  14.419  0.3651  1.0022  1.3544
11591TIP3   OH256263   3.212   1.964  16.895 -0.3046  0.0883 -0.4689
11591TIP3    H156264   3.288   2.005  16.935 -0.6717 -0.4230  0.7940
11591TIP3    H256265   3.248   1.910  16.825  0.3791  0.7325 -0.6283
11592TIP3   OH256266   4.027   0.696  14.529 -0.2396 -0.5133  0.2541
11592TIP3    H156267   4.110   0.743  14.524 -0.2357 -0.6186 -2.3490
11592TIP3    H256268   3.971   0.740  14.465 -1.1633 -2.2912 -0.2342
11593TIP3   OH256269   0.163   4.512  12.236 -0.4057  0.7485  0.4094
11593TIP3    H156270   0.120   4.450  12.178  2.7291 -0.2877 -1.0236
11593TIP3    H256271   0.165   4.594  12.186 -1.5580  1.1087  0.9188
11594TIP3   OH256272   4.692   1.144   3.998  0.0993 -0.1952 -0.2065
11594TIP3    H156273   4.721   1.126   3.909  1.0856 -0.8158  0.2188
11594TIP3    H256274   4.772   1.140   4.050 -0.4515  0.2542  0.6950
11595TIP3   OH256275   0.900   4.035  14.311  0.0293  1.0433 -0.3160
11595TIP3    H156276   0.813   4.012  14.276  0.6943 -1.3142 -0.5758
11595TIP3    H256277   0.884   4.056  14.403 -0.8103  0.4654 -0.3180
11596TIP3   OH256278   6.153   6.063   3.446  0.5842  0.2968  0.1427
11596TIP3    H156279   6.229   6.117   3.471 -0.0525  1.4067 -0.2253
11596TIP3    H256280   6.108   6.045   3.528 -0.2004  1.9232  0.1209
11597TIP3   OH256281   5.314   2.574   1.518  0.0406  0.2998  0.0180
11597TIP3    H156282   5.389   2.560   1.576  0.9008 -0.4885 -1.2524
11597TIP3    H256283   5.259   2.497   1.530  0.7075 -0.3394 -0.9092
11598TIP3   OH256284   3.660   6.345  13.579 -0.4620  0.2496 -0.0724
11598TIP3    H156285   3.749   6.318  13.559 -0.0192  1.1281  0.6295
11598TIP3    H256286   3.605   6.276  13.543  0.5973 -1.5152  1.5473
11599TIP3   OH256287   1.482   6.438   3.595  0.4094  0.3765  0.0271
11599TIP3    H156288   1.448   6.359   3.636  0.8948  0.3042  0.2889
11599TIP3    H256289   1.557   6.463   3.648  0.5796  0.7135 -0.3652
11600TIP3   OH256290   2.365   1.766   5.260  0.7251 -0.1251  0.2406
11600TIP3    H156291   2.299   1.787   5.194  0.5027 -1.0506  0.1684
11600TIP3    H256292   2.374   1.671   5.257  2.7289  0.0258 -0.4138
11601TIP3   OH256293   2.749   1.890  12.820  0.2381  0.2767 -0.1209
11601TIP3    H156294   2.802   1.968  12.834 -0.7954  1.1623 -0.9038
11601TIP3    H256295   2.812   1.822  12.794  0.9984  1.3049 -1.0812
11602TIP3   OH256296   6.483   3.206  10.914  0.1963  0.0934 -0.1441
11602TIP3    H156297   6.546   3.272  10.885 -0.1211  0.5974  0.2953
11602TIP3    H256298   6.491   3.135  10.850  1.5312 -0.0494  0.1499
11603TIP3   OH256299   1.841   1.448   3.173 -0.0762  0.0281  0.1323
11603TIP3    H156300   1.823   1.530   3.127  0.0931  0.3846  0.6957
11603TIP3    H256301   1.936   1.445   3.180 -0.1401  0.7675  1.8406
11604TIP3   OH256302   6.661   4.904  11.499 -0.3537 -0.1261 -0.3876
11604TIP3    H156303   6.640   4.991  11.533 -1.2242 -0.2758 -0.5080
11604TIP3    H256304   6.702   4.920  11.414  0.5859  0.1980  0.1105
11605TIP3   OH256305   4.593   0.670   0.589  0.4521 -0.2220 -0.1403
11605TIP3    H156306   4.637   0.637   0.511  0.4006 -0.7895  0.0658
11605TIP3    H256307   4.649   0.741   0.620  0.3208  0.2004 -0.8537
11606TIP3   OH256308   0.712   6.161  15.837  0.0683  0.0417 -0.5214
11606TIP3    H156309   0.652   6.117  15.777 -1.2782  2.4488 -1.0386
11606TIP3    H256310   0.717   6.102  15.913 -2.9937 -0.2694 -0.4497
11607TIP3   OH256311   5.852   3.658  12.375  0.9830  0.1740 -0.3301
11607TIP3    H156312   5.948   3.653  12.369  1.2039  0.0343  2.3174
11607TIP3    H256313   5.829   3.601  12.448 -1.0981  0.5923 -0.5926
11608TIP3   OH256314   2.487   1.996  17.224  0.0193  0.4373  0.0134
11608TIP3    H156315   2.462   2.021  17.313  0.5563 -0.3912  0.4019
11608TIP3    H256316   2.581   2.012  17.220  0.0491  0.1850 -0.3085
11609TIP3   OH256317   0.085   6.536  15.647  0.1848 -0.4903 -0.0401
11609TIP3    H156318   0.136   6.467  15.603  1.2659  2.4261 -3.9328
11609TIP3    H256319   0.146   6.610  15.653 -1.7869  1.1275  1.0282
11610TIP3   OH256320   6.732   6.104   5.254 -0.2785  0.6885 -0.0303
11610TIP3    H156321   6.740   6.014   5.224  2.0876  0.5498  0.7988
11610TIP3    H256322   6.718   6.097   5.348 -4.4202  1.1942 -0.4151
11611TIP3   OH256323   5.137   0.693   1.629 -0.1326 -0.1313 -0.0440
11611TIP3    H156324   5.043   0.673   1.633  0.1280 -2.2159 -2.0528
11611TIP3    H256325   5.154   0.711   1.536  1.6478 -1.0795  0.0533
11612TIP3   OH256326   1.551   5.710  14.776  0.0754 -0.2084 -0.0078
11612TIP3    H156327   1.456   5.716  14.790 -0.1673 -0.8394 -1.2841
11612TIP3    H256328   1.561   5.648  14.704  1.3623  1.3135 -1.1935
11613TIP3   OH256329   1.572   2.093  13.282  0.3677 -0.0154 -0.2301
11613TIP3    H156330   1.507   2.027  13.257 -2.2015  1.8136  1.1413
11613TIP3    H256331   1.604   2.128  13.199 -2.1258  0.5581 -1.0312
11614TIP3   OH256332   2.307   4.299  12.212 -0.6912  0.1122 -0.0949
11614TIP3    H156333   2.361   4.315  12.135 -2.0335 -1.9274 -1.5297
11614TIP3    H256334   2.363   4.325  12.286  1.0765  0.9467 -1.6568
11615TIP3   OH256335   5.306   0.135  12.630  0.3744 -0.2434  0.6042
11615TIP3    H156336   5.354   0.217  12.646  0.5876 -0.2879  0.1859
11615TIP3    H256337   5.242   0.132  12.701 -1.6890  1.8055 -1.0032
11616TIP3   OH256338   3.307   4.989   0.754 -0.1946  0.7955  0.3934
11616TIP3    H156339   3.265   4.997   0.668  0.3103  1.4905  0.1987
11616TIP3    H256340   3.253   4.926   0.801 -2.1545  2.4727  0.5621
11617TIP3   OH256341   4.350   4.380  14.520  0.1017 -0.2930 -0.1795
11617TIP3    H156342   4.402   4.323  14.463  0.5990  0.7167 -0.7597
11617TIP3    H256343   4.259   4.363  14.494  0.2932 -0.2482 -0.8973
11618TIP3   OH256344   1.448   0.443  16.483  0.0872 -0.3918  0.0664
11618TIP3    H156345   1.520   0.423  16.542 -0.2730 -1.3501  0.2080
11618TIP3    H256346   1.482   0.427  16.396 -0.0690 -1.2954  0.1560
11619TIP3   OH256347   2.181   6.527  12.435  0.7207 -0.2508  0.1393
11619TIP3    H156348   2.233   6.501  12.511 -1.3409 -1.5874  1.2161
11619TIP3    H256349   2.203   6.462  12.367  2.0859  0.5599 -0.2235
11620TIP3   OH256350   4.810   0.994  13.927 -0.5407  0.2929  0.7394
11620TIP3    H156351   4.787   0.914  13.879  0.5246  0.2662  0.2518
11620TIP3    H256352   4.767   0.983  14.012 -0.9764 -0.4784  0.4381
11621TIP3   OH256353   0.351   5.380   6.000 -0.2877 -0.3193 -0.3374
11621TIP3    H156354   0.341   5.289   5.974 -0.1923 -0.0478 -1.3688
11621TIP3    H256355   0.304   5.430   5.932 -0.9528  0.3626  0.6002
11622TIP3   OH256356   5.061   3.909   1.794 -0.7024  0.3754 -0.1994
11622TIP3    H156357   5.075   3.949   1.879  1.3436  1.0662 -0.8156
11622TIP3    H256358   5.086   3.817   1.806  0.1393  0.6026 -0.1934
11623TIP3   OH256359   2.589   6.164   4.693 -0.1488  0.1154  0.0611
11623TIP3    H156360   2.669   6.125   4.657  0.0411 -0.0694  0.6598
11623TIP3    H256361   2.606   6.170   4.787 -1.4099 -1.3747  0.4355
11624TIP3   OH256362   0.810   0.189   5.473  0.5597  0.6231 -0.3338
11624TIP3    H156363   0.837   0.117   5.530 -0.0479  0.0647 -0.7394
11624TIP3    H256364   0.749   0.149   5.412  1.6388  1.0731 -1.7628
11625TIP3   OH256365   3.216   0.019  12.719 -0.0897 -0.7126  0.2275
11625TIP3    H156366   3.175   0.091  12.767  0.4855  0.0693 -0.4208
11625TIP3    H256367   3.144  -0.032  12.685 -0.5443  0.4328 -0.5976
11626TIP3   OH256368   4.151   1.968  10.906  0.0562 -0.0330  0.5280
11626TIP3    H156369   4.198   1.937  10.828 -1.1753 -1.3588  0.2725
11626TIP3    H256370   4.212   2.029  10.948  0.8137  0.6198 -1.3860
11627TIP3   OH256371   0.543   3.211   5.537 -0.3881 -0.5135  0.3927
11627TIP3    H156372   0.489   3.281   5.501 -1.3958 -1.1051  0.7172
11627TIP3    H256373   0.621   3.255   5.569 -1.2692  0.5543  1.1385
11628TIP3   OH256374   6.042   6.175  17.130 -0.2332 -0.3233  0.1465
11628TIP3    H156375   5.947   6.187  17.131 -0.2216  1.6230 -4.0777
11628TIP3    H256376   6.055   6.087  17.095 -0.3997 -0.7602  1.1335
11629TIP3   OH256377   0.508   5.335  11.752  0.1268  0.1619 -0.0351
11629TIP3    H156378   0.583   5.278  11.773  0.2169 -0.4215 -1.7590
11629TIP3    H256379   0.455   5.335  11.831  0.8193 -1.2523  0.4661
11630TIP3   OH256380   0.577   4.687  13.171  0.0011 -0.4032 -0.0767
11630TIP3    H156381   0.482   4.703  13.176 -0.5837 -3.2034 -0.3997
11630TIP3    H256382   0.599   4.648  13.255  0.9423  0.4098  0.0696
11631TIP3   OH256383   0.150   3.041   3.657 -0.5778  0.1613  0.0240
11631TIP3    H156384   0.237   3.072   3.683 -0.0612 -0.2628 -1.1557
11631TIP3    H256385   0.090   3.109   3.688  0.3734  1.5422 -1.0425
11632TIP3   OH256386   4.415   0.252   5.994  0.1573  0.0115 -0.2987
11632TIP3    H156387   4.390   0.183   6.057  0.4833  0.3245  0.1811
11632TIP3    H256388   4.368   0.330   6.024  0.0426  0.0790 -0.6528
11633TIP3   OH256389   0.696   5.799  15.444  0.0623  0.0173 -0.0181
11633TIP3    H156390   0.700   5.706  15.426 -0.8454  0.0887 -0.6673
11633TIP3    H256391   0.780   5.820  15.486  0.8292 -0.8267 -1.0863
11634TIP3   OH256392   4.475   3.841  16.671  0.9264  0.1243  0.2297
11634TIP3    H156393   4.566   3.811  16.666  1.1188  0.8356 -0.8444
11634TIP3    H256394   4.432   3.801  16.596  0.0675 -1.0541  1.3105
11635TIP3   OH256395   4.121   2.061   3.779  0.0778  0.3552 -0.2732
11635TIP3    H156396   4.092   1.991   3.837  1.4241  0.0884  0.1074
11635TIP3    H256397   4.123   2.139   3.835  1.2885  0.1159  0.0449
11636TIP3   OH256398   0.232   4.848   2.559  0.4388  0.1761  0.0634
11636TIP3    H156399   0.173   4.777   2.581 -0.5318  0.0460 -2.6293
11636TIP3    H256400   0.196   4.886   2.478  1.9254  2.5620  0.4036
11637TIP3   OH256401   2.086   0.035   0.701  0.0286  0.4208  0.3091
11637TIP3    H156402   2.062   0.047   0.609  1.5402 -0.3106 -0.2011
11637TIP3    H256403   2.148   0.106   0.719  0.0503  0.3136  0.6643
11638TIP3   OH256404   1.501   5.337   1.475 -0.0966  0.2605 -0.7145
11638TIP3    H156405   1.593   5.343   1.503  0.0833  1.9322 -1.5907
11638TIP3    H256406   1.472   5.252   1.509  2.0198 -0.7182 -1.1457
11639TIP3   OH256407   1.870   2.691   4.566 -0.2049  0.2101  0.4350
11639TIP3    H156408   1.885   2.608   4.520 -4.0987 -0.2771 -0.3339
11639TIP3    H256409   1.895   2.672   4.657  0.2639 -1.3608  0.0216
11640TIP3   OH256410   4.600   5.862   5.471 -0.0235 -0.3164 -0.0529
11640TIP3    H156411   4.661   5.882   5.400 -0.0027  1.5079  0.4299
11640TIP3    H256412   4.654   5.821   5.538  0.4312  0.1510 -0.1294
11641TIP3   OH256413   5.346   3.352   2.918 -0.2707 -0.6535 -0.1202
11641TIP3    H156414   5.274   3.308   2.962 -0.3217  0.2931  0.7681
11641TIP3    H256415   5.327   3.445   2.926  1.1803 -0.3648  0.3672
11642TIP3   OH256416   0.114   1.617  11.964  0.2183  0.9872 -0.0452
11642TIP3    H156417   0.192   1.591  11.916  0.8960  2.5118  0.1958
11642TIP3    H256418   0.088   1.700  11.924 -2.4905 -0.4041 -1.5023
11643TIP3   OH256419   5.335   5.393   2.849  0.0732  0.1691  0.2454
11643TIP3    H156420   5.391   5.379   2.925 -0.0162  1.2589  0.5275
11643TIP3    H256421   5.248   5.407   2.885 -0.1066 -0.0481 -0.1012
11644TIP3   OH256422   4.844   2.645  15.064 -0.2687 -0.2826  0.4185
11644TIP3    H156423   4.816   2.713  15.002 -0.0486 -0.5020  0.0762
11644TIP3    H256424   4.804   2.671  15.147 -0.2561  0.2199  0.2719
11645TIP3   OH256425   1.671   0.257   1.621 -0.2350 -0.5139  0.8274
11645TIP3    H156426   1.630   0.271   1.706  0.2433  0.2835  0.9403
11645TIP3    H256427   1.609   0.295   1.558  2.3149  5.6055  1.2945
11646TIP3   OH256428   2.228   4.958  14.975  0.1916  0.3400 -0.5042
11646TIP3    H156429   2.189   4.876  14.945  0.2407  0.3797 -0.6738
11646TIP3    H256430   2.225   4.952  15.071 -1.0337  0.7056 -0.5011
11647TIP3   OH256431   0.801   2.193   2.187 -0.1889 -0.7773  0.0920
11647TIP3    H156432   0.826   2.224   2.274  1.4757 -1.3516 -0.1343
11647TIP3    H256433   0.806   2.098   2.192 -0.1598 -0.8208 -0.5929
11648TIP3   OH256434   5.084   1.004  16.676 -0.5521  0.4841 -0.2211
11648TIP3    H156435   5.025   0.935  16.707 -0.9413  0.9536  0.0802
11648TIP3    H256436   5.137   1.027  16.752 -0.4293  0.5296 -0.3188
11649TIP3   OH256437   6.504   2.845  12.968  0.1499  0.5448  0.2484
11649TIP3    H156438   6.457   2.838  13.051  1.1841 -1.6179  0.7186
11649TIP3    H256439   6.496   2.938  12.944 -2.0021  0.8017  1.6375
11650TIP3   OH256440   5.119   6.710   1.377  0.4512 -0.3534 -0.0477
11650TIP3    H156441   5.085   6.633   1.332 -0.6517  1.1864 -2.0019
11650TIP3    H256442   5.049   6.775   1.371  2.2665  1.6781 -0.8256
11651TIP3   OH256443   6.412   3.571   1.447 -0.0807  0.4816  0.0852
11651TIP3    H156444   6.461   3.533   1.521 -0.8438  0.2795  0.4981
11651TIP3    H256445   6.340   3.619   1.488 -1.3685 -0.8227 -0.5486
11652TIP3   OH256446   5.439   4.261   3.583  0.0189 -0.3222  0.5198
11652TIP3    H156447   5.378   4.244   3.655 -2.8921  3.1971 -0.8004
11652TIP3    H256448   5.386   4.253   3.504  2.0049  0.1352 -0.9397
11653TIP3   OH256449   6.166   4.413  13.358  0.0361  0.1446  0.0662
11653TIP3    H156450   6.117   4.485  13.397  1.3975  0.0959  2.0387
11653TIP3    H256451   6.257   4.440  13.364  0.5216 -1.4192  0.1865
11654TIP3   OH256452   0.253   0.050  15.782 -0.2059 -0.6507  0.1300
11654TIP3    H156453   0.224   0.133  15.744  0.8317 -0.1258  0.4299
11654TIP3    H256454   0.276  -0.005  15.707 -0.8382 -0.6536 -0.0681
11655TIP3   OH256455   3.855   0.216   1.905  0.1644 -0.0341 -0.0678
11655TIP3    H156456   3.793   0.145   1.890  0.2823  0.0347 -0.9793
11655TIP3    H256457   3.832   0.251   1.990 -2.0037  0.9340 -0.9834
11656TIP3   OH256458   4.679   5.411  14.223  0.3050  0.3383  0.0205
11656TIP3    H156459   4.671   5.459  14.306  0.4944 -1.3136  1.0399
11656TIP3    H256460   4.592   5.373  14.209  0.9822 -1.6803  0.9644
11657TIP3   OH256461   1.947   0.918   3.202  0.0301 -0.2348  0.3222
11657TIP3    H156462   1.909   0.868   3.129 -1.3222 -2.1804  2.2197
11657TIP3    H256463   2.042   0.912   3.189 -0.1780 -0.7543 -1.1083
11658TIP3   OH256464   1.840   1.459   2.277  0.1704 -0.2757 -0.3473
11658TIP3    H156465   1.773   1.479   2.343  0.2483  0.6526 -0.5406
11658TIP3    H256466   1.791   1.434   2.199 -0.0783  2.8451 -1.3022
11659TIP3   OH256467   1.799   5.452   6.173  0.5698 -0.3707  0.3230
11659TIP3    H156468   1.865   5.389   6.146 -0.4296 -1.4148  0.2735
11659TIP3    H256469   1.821   5.472   6.264  1.3587 -0.1721  0.0962
11660TIP3   OH256470   4.849   3.068  14.304 -0.8341  0.0134 -0.1002
11660TIP3    H156471   4.868   3.056  14.397 -0.6019 -0.2221 -0.1774
11660TIP3    H256472   4.836   3.163  14.294 -0.1207  0.1327  0.0340
11661TIP3   OH256473   2.519   3.073   0.950 -0.5465  0.1648  0.6081
11661TIP3    H156474   2.524   2.991   0.900 -1.2502  0.0430  0.7258
11661TIP3    H256475   2.495   3.046   1.038  0.9740  0.3556  1.1157
11662TIP3   OH256476   5.869   3.127   2.257  0.1562 -0.1677 -0.0841
11662TIP3    H156477   5.871   3.176   2.339  1.4709 -0.2430 -0.0399
11662TIP3    H256478   5.840   3.191   2.191 -0.3979  0.0311  0.3452
11663TIP3   OH256479   1.151   2.487   1.978 -0.2962 -0.3075 -0.6218
11663TIP3    H156480   1.066   2.445   1.993 -0.7209  0.4661 -0.7822
11663TIP3    H256481   1.129   2.575   1.947  0.5002  1.4865  3.2925
11664TIP3   OH256482   3.634   6.067  14.116  0.1000 -0.0655 -0.1724
11664TIP3    H156483   3.689   6.011  14.062  0.5651  0.4739 -0.2642
11664TIP3    H256484   3.696   6.125  14.160 -0.4055  0.6325 -0.3782
11665TIP3   OH256485   3.102   5.206  16.538  0.3273 -0.2185 -0.1298
11665TIP3    H156486   3.144   5.154  16.469 -2.4670 -2.5475 -0.2653
11665TIP3    H256487   3.173   5.258  16.574  2.2971 -0.2221 -3.5174
11666TIP3   OH256488   0.025   4.569  13.502  0.1822 -0.3509  0.0027
11666TIP3    H156489   0.011   4.660  13.527 -2.4879 -0.3772 -1.0848
11666TIP3    H256490   0.119   4.562  13.487  0.3595  2.4200 -0.6498
11667TIP3   OH256491   4.194   6.058  16.224  0.5151  0.6040  0.1300
11667TIP3    H156492   4.229   5.982  16.177  0.8212  1.9854 -2.0030
11667TIP3    H256493   4.171   6.120  16.156 -0.7674  2.0231  1.7686
11668TIP3   OH256494   4.432   2.317  13.891  0.0445 -0.0441 -0.0344
11668TIP3    H156495   4.499   2.277  13.835 -0.3604  0.7703 -1.1403
11668TIP3    H256496   4.449   2.411  13.884  0.0019  0.0856  1.2671
11669TIP3   OH256497   0.676   1.429  13.858  0.5532 -0.2057 -0.0348
11669TIP3    H156498   0.621   1.487  13.910  1.8152  0.1511  0.9677
11669TIP3    H256499   0.703   1.482  13.783  1.4426  0.4222  0.7108
11670TIP3   OH256500   1.820   3.627  16.033  0.3773 -0.0690 -0.3542
11670TIP3    H156501   1.728   3.654  16.029  0.5644  0.5195 -1.0913
11670TIP3    H256502   1.861   3.692  16.090  1.3863  3.1612 -4.2712
11671TIP3   OH256503   3.776   1.691  12.799  0.4293 -0.1804  0.0995
11671TIP3    H156504   3.733   1.684  12.714 -0.2969  0.5521  0.3895
11671TIP3    H256505   3.828   1.771  12.794  0.0745  0.0816  0.4621
11672TIP3   OH256506   2.550   5.319  13.707 -0.7109 -0.2915  0.0459
11672TIP3    H156507   2.477   5.351  13.760  0.4632  0.3631  1.3767
11672TIP3    H256508   2.578   5.395  13.656 -0.1150 -0.1415  0.5795
11673TIP3   OH256509   3.272   2.684   3.468  0.1397  0.0106 -0.2030
11673TIP3    H156510   3.185   2.687   3.427  1.5158 -0.8414 -3.5105
11673TIP3    H256511   3.287   2.774   3.496 -1.2774  0.4847 -0.8343
11674TIP3   OH256512   1.804   6.603  13.014  0.3684  0.6514 -0.0548
11674TIP3    H156513   1.737   6.611  13.082  1.8408  1.4608  1.3807
11674TIP3    H256514   1.809   6.691  12.976  0.2602  0.4602 -0.5083
11675TIP3   OH256515   3.598   2.839   0.147 -0.1525 -0.0393  0.1605
11675TIP3    H156516   3.535   2.906   0.172  0.3156 -0.3918  2.5144
11675TIP3    H256517   3.544   2.766   0.118 -0.7700  0.3367  0.3308
11676TIP3   OH256518   3.367   4.128   3.491  0.1299 -0.1016  0.0151
11676TIP3    H156519   3.382   4.112   3.397 -0.9126  1.4518 -0.4581
11676TIP3    H256520   3.416   4.059   3.535  1.3986 -0.3432 -1.6508
11677TIP3   OH256521   6.199   4.112   2.324  0.3165  0.7321 -0.2465
11677TIP3    H156522   6.233   4.199   2.341  2.4193  0.0841 -0.8429
11677TIP3    H256523   6.196   4.106   2.228 -0.8499  0.5176 -0.2077
11678TIP3   OH256524   6.252   4.608   0.060  0.4869 -0.1606 -0.2715
11678TIP3    H156525   6.329   4.653   0.093  0.4825  0.4823 -1.1262
11678TIP3    H256526   6.286   4.543  -0.001  0.2600  1.7970 -2.6077
11679TIP3   OH256527   3.888   5.589  16.386 -0.7080 -0.1395  0.3629
11679TIP3    H156528   3.828   5.661  16.365 -0.7984 -0.9225 -2.3900
11679TIP3    H256529   3.967   5.608  16.336 -0.6934 -1.8895 -0.3208
11680TIP3   OH256530   6.464   4.203  14.028 -0.3216  0.1819  0.2850
11680TIP3    H156531   6.437   4.291  14.055  0.4611  1.4402 -2.6002
11680TIP3    H256532   6.395   4.175  13.968  1.1376  0.4063 -1.5827
11681TIP3   OH256533   0.152   0.074  14.347  0.0949 -0.2709 -0.6139
11681TIP3    H156534   0.127  -0.006  14.301 -1.2299 -0.0504 -0.3307
11681TIP3    H256535   0.107   0.068  14.432  1.4602 -0.0686  0.1520
11682TIP3   OH256536   1.414   2.900   5.271  0.0877 -0.8415 -0.3833
11682TIP3    H156537   1.402   2.987   5.234  0.0081 -0.5035  0.4166
11682TIP3    H256538   1.363   2.901   5.352 -1.5428 -2.2861 -1.3147
11683TIP3   OH256539   2.749   0.897  13.248 -0.3359 -0.3632 -0.3492
11683TIP3    H156540   2.736   0.883  13.341  0.5822  2.3791  0.2828
11683TIP3    H256541   2.843   0.885  13.234  0.2557  3.0158 -0.0315
11684TIP3   OH256542   5.088   0.651  11.550  0.3864 -0.0306  0.4755
11684TIP3    H156543   5.037   0.678  11.474  0.9271  0.8528  0.4233
11684TIP3    H256544   5.045   0.570  11.580  1.6998 -1.9400 -2.3410
11685TIP3   OH256545   5.342   3.150  16.784  0.3781  0.5001  0.2176
11685TIP3    H156546   5.422   3.142  16.835  1.0548 -1.2126 -1.0179
11685TIP3    H256547   5.330   3.245  16.773  1.6826  0.8166  1.2282
11686TIP3   OH256548   1.859   1.842   0.838  0.5294 -0.2265  0.3743
11686TIP3    H156549   1.809   1.774   0.883 -0.4722  0.2696  0.0454
11686TIP3    H256550   1.946   1.804   0.825  0.0861 -1.3084  0.4955
11687TIP3   OH256551   3.160   0.161  14.091  0.0239 -0.1284 -0.0926
11687TIP3    H156552   3.139   0.220  14.164  1.1105  0.1695  0.0064
11687TIP3    H256553   3.253   0.178  14.074  0.0821 -1.0761 -0.7489
11688TIP3   OH256554   0.306   2.086   2.280  0.5307  0.1962  0.2982
11688TIP3    H156555   0.280   2.129   2.362  0.3715  0.8409 -0.0837
11688TIP3    H256556   0.373   2.144   2.244  2.6438 -1.4769  1.3204
11689TIP3   OH256557   4.923   6.557  13.123 -0.2586 -0.7125  0.0562
11689TIP3    H156558   4.867   6.480  13.113 -0.2505 -0.7506  0.2931
11689TIP3    H256559   4.983   6.553  13.048  1.0995 -2.0914  1.1315
11690TIP3   OH256560   4.871   1.489   4.289  0.0372 -0.1548  0.3458
11690TIP3    H156561   4.833   1.401   4.293  0.0864 -0.1332  2.4461
11690TIP3    H256562   4.845   1.530   4.371  0.6761  1.5373 -0.2552
11691TIP3   OH256563   5.480   3.928  13.889  0.4851 -0.3256  0.2128
11691TIP3    H156564   5.456   3.890  13.804  2.1090  1.5507 -1.1979
11691TIP3    H256565   5.397   3.951  13.929 -0.3421  1.8739 -2.4523
11692TIP3   OH256566   0.797   4.623  11.330  0.3996 -0.6227  0.2161
11692TIP3    H156567   0.719   4.576  11.301 -1.3481  1.4512  1.2800
11692TIP3    H256568   0.850   4.555  11.373 -1.6619 -1.8092  1.0750
11693TIP3   OH256569   0.381   6.427   2.007 -0.0938 -0.0710 -0.0647
11693TIP3    H156570   0.338   6.480   1.940 -0.1265  0.0719  0.0688
11693TIP3    H256571   0.441   6.371   1.958 -0.6815 -0.5220 -0.2898
11694TIP3   OH256572   1.332   3.771   2.472  0.5075  0.6130  0.7845
11694TIP3    H156573   1.373   3.772   2.386 -1.8476  1.3313 -0.4186
11694TIP3    H256574   1.317   3.863   2.493 -1.4621  0.3667  0.6267
11695TIP3   OH256575   6.329   5.644  13.339 -0.7972  0.4928 -0.6113
11695TIP3    H156576   6.315   5.557  13.302 -2.7923  0.7462 -0.5610
11695TIP3    H256577   6.277   5.645  13.419 -1.1413  1.8605 -0.8320
11696TIP3   OH256578   4.412   3.854   1.337 -0.2024  0.4425 -0.2132
11696TIP3    H156579   4.414   3.885   1.247 -1.4802  1.3668  0.0530
11696TIP3    H256580   4.477   3.907   1.383 -0.0477  0.4416 -0.4282
11697TIP3   OH256581   5.233   5.655  13.847 -0.3158 -0.2858 -0.1213
11697TIP3    H156582   5.263   5.591  13.911 -0.2649  0.2755  0.4270
11697TIP3    H256583   5.188   5.722  13.899  0.4884  0.6286 -0.5658
11698TIP3   OH256584   2.696   2.489   0.024  0.3737 -0.5700  0.5750
11698TIP3    H156585   2.755   2.445  -0.037 -1.7259 -2.7206 -0.0942
11698TIP3    H256586   2.612   2.494  -0.023 -0.8063 -0.5118  2.5520
11699TIP3   OH256587   6.348   2.684   2.246  0.3036  0.0070  0.4371
11699TIP3    H156588   6.349   2.753   2.312 -1.5749  0.6884 -0.1637
11699TIP3    H256589   6.312   2.727   2.168 -0.4283 -1.5256 -0.1041
11700TIP3   OH256590   2.591   3.886   1.666 -0.6232 -0.8915  0.0723
11700TIP3    H156591   2.564   3.958   1.608 -1.7026  0.5047  2.1985
11700TIP3    H256592   2.686   3.884   1.658 -0.0335  3.3809  2.6336
11701TIP3   OH256593   1.769   1.730  14.647  0.2027  0.0438 -0.1335
11701TIP3    H156594   1.725   1.671  14.707 -4.5784  2.0106 -1.2315
11701TIP3    H256595   1.700   1.789  14.616  3.0664  1.5843 -4.6245
11702TIP3   OH256596   5.324   2.139  13.877  0.7681  0.3945  0.1766
11702TIP3    H156597   5.252   2.076  13.879  2.4011 -1.5760  1.0847
11702TIP3    H256598   5.319   2.184  13.961 -0.5713  1.7158 -0.5850
11703TIP3   OH256599   1.190   0.016  16.271 -0.0706  0.1502 -0.2657
11703TIP3    H156600   1.133   0.074  16.321  2.2925  1.4788  1.0885
11703TIP3    H256601   1.208  -0.056  16.331  0.2904  0.1447 -0.3801
11704TIP3   OH256602   4.886   2.735  15.671 -0.0906 -0.0181 -0.2466
11704TIP3    H156603   4.940   2.766  15.744  0.4255 -0.6183 -0.3713
11704TIP3    H256604   4.870   2.814  15.619 -0.7220  0.4789  0.6680
11705TIP3   OH256605   2.926   5.478  13.522 -0.2475 -1.2440 -0.2937
11705TIP3    H156606   2.951   5.570  13.531  0.1057 -0.9837 -2.9840
11705TIP3    H256607   2.941   5.458  13.429 -0.9749 -3.8307  0.0571
11706TIP3   OH256608   4.072   1.254   3.939  0.4732  0.2847  0.2662
11706TIP3    H156609   4.110   1.222   4.021  1.5662  0.4504 -0.1560
11706TIP3    H256610   4.100   1.346   3.935 -0.8485  0.7290  0.4289
11707TIP3   OH256611   6.097   5.905  16.990 -0.2119 -0.4524 -0.3229
11707TIP3    H156612   6.085   5.813  16.968 -0.6545  0.0613 -2.4802
11707TIP3    H256613   6.165   5.905  17.058  0.1083 -2.3296 -0.5841
11708TIP3   OH256614   2.404   0.026  16.700 -0.4542  0.0530  0.4174
11708TIP3    H156615   2.349  -0.000  16.774 -0.2285 -0.2067  0.4929
11708TIP3    H256616   2.345   0.074  16.642 -0.0723  2.5693  1.9831
11709TIP3   OH256617   6.058   0.448  14.048 -0.0469  0.0205 -0.0830
11709TIP3    H156618   6.016   0.522  14.092  0.8769  2.6531 -3.2394
11709TIP3    H256619   6.005   0.433  13.969  0.5845 -1.7950 -0.2108
11710TIP3   OH256620   2.036   4.712   0.511 -0.0695  0.1274  0.0113
11710TIP3    H156621   2.082   4.766   0.576  0.6242 -0.5747  0.1296
11710TIP3    H256622   1.957   4.684   0.556  0.2053 -0.0135  0.4152
11711TIP3   OH256623   1.118   6.678  12.861 -0.2082  0.4299 -0.3063
11711TIP3    H156624   1.151   6.761  12.896 -0.5916 -0.0900  1.3934
11711TIP3    H256625   1.122   6.617  12.935 -1.4193 -0.6447 -1.0731
11712TIP3   OH256626   0.747   2.242   4.633  1.5365 -0.0946  0.0967
11712TIP3    H156627   0.815   2.207   4.690  0.4771 -0.7208  1.0196
11712TIP3    H256628   0.691   2.167   4.613 -0.4374  0.8391  1.6252
11713TIP3   OH256629   0.280   3.889  16.830 -0.1190 -0.3441  0.6256
11713TIP3    H156630   0.221   3.840  16.774  0.3693 -1.3604  0.9860
11713TIP3    H256631   0.254   3.981  16.817 -1.5821 -0.7405  0.5867
11714TIP3   OH256632   2.255   5.551   3.915 -0.2412 -0.7568 -0.1608
11714TIP3    H156633   2.180   5.609   3.928 -0.4821 -1.0973 -0.0211
11714TIP3    H256634   2.331   5.605   3.936 -0.5498 -0.9885  1.7109
11715TIP3   OH256635   3.839   2.632   0.857 -0.3407 -0.0304  0.3037
11715TIP3    H156636   3.905   2.645   0.788  0.6820 -0.2480  1.2096
11715TIP3    H256637   3.787   2.558   0.827 -1.4601  1.3302 -1.3547
11716TIP3   OH256638   4.343   5.633   0.140  0.2455  0.2806 -0.8788
11716TIP3    H156639   4.339   5.717   0.093 -1.3824  0.7573  0.0276
11716TIP3    H256640   4.417   5.643   0.199  0.2353  0.9962 -0.9720
11717TIP3   OH256641   6.416   1.918   3.227 -0.4921  0.2261  0.1988
11717TIP3    H156642   6.485   1.933   3.291 -1.4810 -0.5421  1.5084
11717TIP3    H256643   6.364   1.847   3.265  0.1056 -1.7879 -2.4820
11718TIP3   OH256644   6.702   5.322   4.504  0.3301 -0.4106 -0.2063
11718TIP3    H156645   6.732   5.408   4.535  0.0641 -0.2279 -0.4524
11718TIP3    H256646   6.759   5.260   4.549 -0.2095 -0.1625  0.8679
11719TIP3   OH256647   6.316   4.085   6.321 -0.3821 -0.7498 -0.0446
11719TIP3    H156648   6.411   4.071   6.322  0.0960  1.8653 -0.3304
11719TIP3    H256649   6.306   4.180   6.336 -2.8672 -0.6248 -1.9247
11720TIP3   OH256650   5.235   3.473   5.955 -0.5272 -0.1588 -0.0177
11720TIP3    H156651   5.159   3.421   5.932 -1.8747  1.4915  0.4361
11720TIP3    H256652   5.224   3.492   6.049  1.1209 -0.9310  0.3649
11721TIP3   OH256653   0.684   6.496  10.069 -0.2215  0.1329 -0.0489
11721TIP3    H156654   0.726   6.558  10.009 -1.2186  1.4958  0.6179
11721TIP3    H256655   0.757   6.448  10.109  0.5352  0.4193 -1.0457
11722TIP3   OH256656   0.731   0.533   2.991 -0.1105 -0.3618  0.6580
11722TIP3    H156657   0.688   0.571   3.067 -0.6511  0.3075  0.0350
11722TIP3    H256658   0.662   0.481   2.948 -0.8209  1.8880 -1.1631
11723TIP3   OH256659   3.857   1.931   0.631 -0.4063  0.0169  0.7174
11723TIP3    H156660   3.924   1.874   0.594 -0.1732  1.4914 -1.3239
11723TIP3    H256661   3.822   1.979   0.555 -2.1910  0.9051  2.0326
11724TIP3   OH256662   2.522   0.350   5.965  0.6416 -0.3572 -0.1246
11724TIP3    H156663   2.609   0.322   5.992  0.4392 -0.0966  0.8465
11724TIP3    H256664   2.515   0.441   5.996  0.4616  0.0304 -1.2426
11725TIP3   OH256665   4.488   5.288   3.529 -0.6937 -0.7252  0.2171
11725TIP3    H156666   4.461   5.342   3.604 -0.5815  2.4556 -1.8555
11725TIP3    H256667   4.583   5.277   3.541 -0.6503 -0.1170  0.4937
11726TIP3   OH256668   2.652   2.808   4.642 -0.2021  0.0968  0.6878
11726TIP3    H156669   2.581   2.771   4.591  0.7830  1.5863 -1.9605
11726TIP3    H256670   2.612   2.879   4.692 -0.7774  0.1748  0.1192
11727TIP3   OH256671   6.666   6.267   3.038 -0.0832 -0.1040  0.0291
11727TIP3    H156672   6.754   6.240   3.010  0.5725  0.9256  1.0311
11727TIP3    H256673   6.673   6.361   3.052 -1.1264 -0.1448  0.9119
11728TIP3   OH256674   4.865   1.916   5.351 -0.0306 -0.5602  0.2512
11728TIP3    H156675   4.805   1.963   5.408  0.1717 -1.3371  1.1308
11728TIP3    H256676   4.853   1.824   5.374  0.3053 -0.8678 -0.7234
11729TIP3   OH256677   1.165   5.922   0.076 -0.1497  0.3976 -0.6766
11729TIP3    H156678   1.164   5.835   0.037  0.7350  0.5876 -1.1589
11729TIP3    H256679   1.187   5.908   0.168  1.7285  0.2146 -1.1211
11730TIP3   OH256680   6.366   2.921  14.951  0.5780 -0.2218 -0.8521
11730TIP3    H156681   6.277   2.888  14.943  0.5091  0.2834 -2.7205
11730TIP3    H256682   6.358   3.016  14.935  1.3997 -0.1189 -0.7104
11731TIP3   OH256683   4.189   5.036  12.389 -0.0494 -0.3141 -0.7047
11731TIP3    H156684   4.196   5.128  12.416  0.7802 -0.5256 -0.1462
11731TIP3    H256685   4.095   5.019  12.388 -0.4544  1.3455 -3.7219
11732TIP3   OH256686   0.004   6.138   3.633 -0.2926  0.1040 -0.0653
11732TIP3    H156687  -0.029   6.158   3.721  1.9884  1.5172  0.5770
11732TIP3    H256688  -0.052   6.068   3.602 -0.9385 -0.7533  2.6987
11733TIP3   OH256689   0.282   0.667   0.500 -0.5791 -0.2743  0.5142
11733TIP3    H156690   0.253   0.701   0.415  0.3767  1.6082  0.8894
11733TIP3    H256691   0.323   0.742   0.543  1.3001 -1.8336  1.5942
11734TIP3   OH256692   6.192   6.595  16.703  0.1036  0.3395  0.4106
11734TIP3    H156693   6.265   6.546  16.665 -0.7657 -0.0915 -0.7456
11734TIP3    H256694   6.138   6.529  16.745  0.0669  0.5890  0.7607
11735TIP3   OH256695   4.113   2.956   0.731  0.4692  0.2561 -0.5978
11735TIP3    H156696   4.035   2.948   0.786  0.2026 -1.3427 -1.1809
11735TIP3    H256697   4.085   3.009   0.657  0.4227  1.1160  0.0075
11736TIP3   OH256698   4.204   2.236  14.867  0.1424 -0.3826  0.0174
11736TIP3    H156699   4.285   2.287  14.854 -0.4492  0.3878 -0.8211
11736TIP3    H256700   4.138   2.284  14.817 -0.2358 -2.5422 -1.7038
11737TIP3   OH256701   1.395   6.541  11.427 -0.5351 -0.1920 -0.3285
11737TIP3    H156702   1.351   6.472  11.478 -2.4848  0.7154 -0.6841
11737TIP3    H256703   1.355   6.535  11.341 -0.8438  1.4481 -0.3293
11738TIP3   OH256704   3.181   2.303  12.659  0.1294  0.2207 -0.2014
11738TIP3    H156705   3.136   2.307  12.744  0.0276 -1.4648 -0.1403
11738TIP3    H256706   3.111   2.308  12.595 -0.0225 -0.6877 -0.1284
11739TIP3   OH256707   1.109   2.460  14.912 -0.3671  0.4590 -0.4207
11739TIP3    H156708   1.122   2.403  14.988  0.2183 -0.4907 -1.2212
11739TIP3    H256709   1.014   2.460  14.899 -0.5263  1.0493  0.6079
11740TIP3   OH256710   5.730   1.950  15.297 -0.1586  0.0901 -0.1539
11740TIP3    H156711   5.701   1.862  15.318  1.8818 -0.4398  0.6861
11740TIP3    H256712   5.650   2.003  15.299 -1.3145 -1.5887  0.0430
11741TIP3   OH256713   0.926   2.548   3.940  0.0050  0.2517 -0.3398
11741TIP3    H156714   0.928   2.574   3.848  1.6018 -0.4048 -0.5294
11741TIP3    H256715   0.901   2.628   3.987  0.4995  0.9553 -1.2382
11742TIP3   OH256716   1.332   5.354   2.331  0.4722  0.0945 -0.6641
11742TIP3    H156717   1.354   5.284   2.270  1.0755 -2.0768  1.8707
11742TIP3    H256718   1.336   5.313   2.417 -5.3426  1.5333  0.7269
11743TIP3   OH256719   3.508   3.056   4.564 -0.0946  0.2936 -0.3076
11743TIP3    H156720   3.584   3.051   4.620 -0.7679 -0.8433  0.5418
11743TIP3    H256721   3.458   2.977   4.583 -1.5837  1.0949 -0.6987
11744TIP3   OH256722   6.815   2.955   2.309  0.2389  0.5810 -0.3642
11744TIP3    H156723   6.881   2.891   2.334 -0.1181  0.3954  0.1175
11744TIP3    H256724   6.849   2.995   2.228  1.3903  1.1581  0.3808
11745TIP3   OH256725   0.228   5.805   1.963 -0.2456 -0.6916 -0.0418
11745TIP3    H156726   0.304   5.827   1.909  0.0339  1.0553  0.9826
11745TIP3    H256727   0.161   5.868   1.936 -0.8588 -1.2810  0.0829
11746TIP3   OH256728   3.315   4.690   0.438  0.3303  0.0984 -0.0294
11746TIP3    H156729   3.384   4.755   0.422  0.7433 -0.4272 -0.4258
11746TIP3    H256730   3.318   4.633   0.361 -0.7901  0.2739 -0.2133
11747TIP3   OH256731   6.320   5.326   2.992 -0.1572  0.9524 -0.2340
11747TIP3    H156732   6.241   5.282   2.960 -0.0337  0.8503 -0.4000
11747TIP3    H256733   6.387   5.258   2.991 -0.5679  0.4572  1.9418
11748TIP3   OH256734   3.939   5.360   0.545  0.4349 -0.0050 -0.2130
11748TIP3    H156735   3.968   5.298   0.478 -0.2978  0.7492 -1.2535
11748TIP3    H256736   3.992   5.439   0.530 -1.7506  1.2560 -1.9030
11749TIP3   OH256737   3.473   4.528  16.792 -0.2753 -0.4716 -0.7742
11749TIP3    H156738   3.567   4.514  16.786 -0.1362  0.0479  0.1055
11749TIP3    H256739   3.462   4.622  16.774 -0.6082 -0.4954 -0.6920
11750TIP3   OH256740   4.480   1.028  12.767  0.9798  0.4103  0.0912
11750TIP3    H156741   4.522   0.962  12.712 -0.3492  1.4952 -2.3771
11750TIP3    H256742   4.543   1.101  12.769  0.8981  0.4908 -0.2541
11751TIP3   OH256743   1.562   3.117   0.141 -0.1057 -0.4855  0.4799
11751TIP3    H156744   1.581   3.167   0.221  0.7220  0.2243 -0.1438
11751TIP3    H256745   1.632   3.141   0.080 -0.9687 -0.6717 -0.6195
11752TIP3   OH256746   1.679   1.429   0.739 -0.3611  0.3349  0.1552
11752TIP3    H156747   1.681   1.525   0.739 -2.0344  0.3935 -0.4379
11752TIP3    H256748   1.770   1.404   0.754  0.7417  2.0162 -2.7158
11753TIP3   OH256749   1.608   6.410   1.995 -0.3536 -0.2171  0.4116
11753TIP3    H156750   1.670   6.361   1.942 -0.1516 -1.3871  1.6694
11753TIP3    H256751   1.604   6.362   2.078  0.0069  1.9825  1.8044
11754TIP3   OH256752   3.704   1.061   0.788 -0.2867  0.2305 -0.7533
11754TIP3    H156753   3.706   1.156   0.798  0.2214  0.1016  0.6160
11754TIP3    H256754   3.614   1.036   0.810 -0.1075  0.2968  0.0939
11755TIP3   OH256755   6.702   6.217  15.021  0.4829  0.4983 -0.4520
11755TIP3    H156756   6.641   6.262  15.080 -0.0657 -0.2035 -0.4727
11755TIP3    H256757   6.651   6.144  14.986  1.6802 -0.7678  0.3932
11756TIP3   OH256758   6.213   2.918  13.993  0.1750 -0.7415  0.6354
11756TIP3    H156759   6.265   2.906  14.072  0.2461  0.6517  0.8163
11756TIP3    H256760   6.249   2.996  13.951  0.7317 -1.9342 -1.2761
11757TIP3   OH256761   4.568   5.317  14.787 -0.4137  0.0623  0.0494
11757TIP3    H156762   4.614   5.265  14.853 -0.1296  0.0766 -0.1388
11757TIP3    H256763   4.636   5.347  14.727 -0.8021 -0.8635 -0.8786
11758TIP3   OH256764   2.152   6.405   0.177  0.4835 -0.4210 -0.4693
11758TIP3    H156765   2.219   6.458   0.219  0.7161 -0.9133 -0.2162
11758TIP3    H256766   2.112   6.464   0.112 -0.3794  0.5749  0.9211
11759TIP3   OH256767   2.690   3.223  14.053 -0.5100 -0.4070  0.4295
11759TIP3    H156768   2.635   3.293  14.089 -0.7165 -0.8017  0.8970
11759TIP3    H256769   2.658   3.212  13.963 -1.8524 -1.2707  0.9790
11760TIP3   OH256770   1.687   2.128   5.482  0.1371  0.0105  0.0742
11760TIP3    H156771   1.660   2.077   5.559  0.7770 -0.2224  0.1469
11760TIP3    H256772   1.695   2.218   5.515 -2.7298  0.5555 -0.4381
11761TIP3   OH256773   6.635   5.562  11.822 -0.0970  0.1327 -0.2457
11761TIP3    H156774   6.702   5.622  11.857 -0.4686  1.1414 -1.1791
11761TIP3    H256775   6.554   5.587  11.867 -0.0181 -0.5202  0.2708
11762TIP3   OH256776   3.321   4.342   3.782  0.5730  0.5652 -0.1234
11762TIP3    H156777   3.277   4.427   3.778 -0.4559  0.0549  0.0150
11762TIP3    H256778   3.347   4.333   3.874  0.5374  0.6601 -0.1045
11763TIP3   OH256779   4.763   1.510   5.166  0.7464  0.1677 -0.0086
11763TIP3    H156780   4.752   1.472   5.079 -0.0331 -1.0577  0.5964
11763TIP3    H256781   4.702   1.584   5.167 -0.1901 -0.5705 -0.1082
11764TIP3   OH256782   3.580   2.929  15.647 -0.0783 -0.1572  0.4616
11764TIP3    H156783   3.537   2.952  15.729  0.4415  1.1751  0.3855
11764TIP3    H256784   3.517   2.874  15.601 -0.0635 -1.6199  2.0824
11765TIP3   OH256785   2.212   2.567  13.827  0.3934 -0.3878 -0.6119
11765TIP3    H156786   2.234   2.560  13.920  1.2562  1.4619 -0.6349
11765TIP3    H256787   2.137   2.627  13.825  0.1297 -0.7256 -1.0884
11766TIP3   OH256788   0.876   5.296   4.397 -0.2762  0.2363  0.2982
11766TIP3    H156789   0.954   5.350   4.384  0.8983 -1.4677 -0.0580
11766TIP3    H256790   0.856   5.262   4.310  0.1094 -1.2904  0.7671
11767TIP3   OH256791   5.589   1.265  17.090 -0.3629 -0.7826  0.2981
11767TIP3    H156792   5.664   1.223  17.048 -0.1217 -0.8261  0.7571
11767TIP3    H256793   5.547   1.316  17.021  0.2756 -0.5029  0.1100
11768TIP3   OH256794   4.962   2.045  15.695  0.2264 -0.6724 -0.6468
11768TIP3    H156795   5.042   1.994  15.710 -0.2135 -2.3256 -3.2931
11768TIP3    H256796   4.993   2.125  15.651  0.5149 -0.5947 -0.3168
11769TIP3   OH256797   1.902   6.666   6.546  0.5970 -0.6755  0.0255
11769TIP3    H156798   1.923   6.660   6.453 -1.3905  1.9164 -0.7229
11769TIP3    H256799   1.865   6.581   6.568  0.4082 -1.0858 -1.7642
11770TIP3   OH256800   2.077   1.830  14.000 -0.7334 -0.1081 -0.1510
11770TIP3    H156801   2.122   1.899  13.950  3.3856 -2.0894  0.3826
11770TIP3    H256802   2.070   1.757  13.939 -1.6617 -0.4594  0.3564
11771TIP3   OH256803   1.437   3.493  11.957 -0.7587  0.2398  0.2243
11771TIP3    H156804   1.466   3.474  11.867 -0.5419 -0.6163  0.4656
11771TIP3    H256805   1.358   3.440  11.968  0.2483 -1.1126  1.1508
11772TIP3   OH256806   5.967   1.248  12.956  0.2378  0.7896  0.0664
11772TIP3    H156807   5.920   1.331  12.972  0.2058  0.8649 -0.4027
11772TIP3    H256808   6.032   1.270  12.890 -0.2866  0.2638 -0.6416
11773TIP3   OH256809   2.901   2.530  16.679 -0.2286 -0.4776  0.1749
11773TIP3    H156810   2.875   2.452  16.631 -0.7709  1.3365 -2.7339
11773TIP3    H256811   2.821   2.581  16.688  0.4123  0.5159  0.4516
11774TIP3   OH256812   4.730   1.993  15.819 -0.5812  0.6382  0.3106
11774TIP3    H156813   4.701   1.936  15.748 -0.5039  1.3720 -0.3128
11774TIP3    H256814   4.819   2.019  15.795  0.8850 -1.8767  2.3675
11775TIP3   OH256815   2.031   6.535   1.679  0.2192  0.7068 -0.2700
11775TIP3    H156816   2.074   6.540   1.594  2.2440  3.3845  0.7720
11775TIP3    H256817   1.965   6.605   1.678 -1.5384 -0.8653 -0.4499
11776TIP3   OH256818   2.677   3.733  13.877  0.3810 -0.7029  0.4462
11776TIP3    H156819   2.669   3.793  13.951 -1.2015 -0.3857  0.0577
11776TIP3    H256820   2.764   3.693  13.887  0.4292 -0.2386  2.1281
11777TIP3   OH256821   3.896   2.665   2.263  0.6459  0.5445  0.0690
11777TIP3    H156822   3.847   2.628   2.190  2.9828 -1.2935 -0.6893
11777TIP3    H256823   3.887   2.600   2.333  2.1182  0.0619 -0.1620
11778TIP3   OH256824   5.961   0.188   6.317  0.2183 -0.6037 -0.0988
11778TIP3    H156825   5.901   0.227   6.381  1.0807 -0.7790  0.8458
11778TIP3    H256826   5.950   0.094   6.328 -0.5686 -0.6459 -1.1323
11779TIP3   OH256827   5.940   0.106   3.174  0.1924 -0.0193  0.0221
11779TIP3    H156828   5.902   0.023   3.205  0.9185 -0.4791 -0.2858
11779TIP3    H256829   5.880   0.136   3.106 -0.8493  0.4571  1.1149
11780TIP3   OH256830   0.253   6.496   2.883  0.6135 -0.1267  0.3785
11780TIP3    H156831   0.213   6.476   2.967  1.2824  0.1239  0.7598
11780TIP3    H256832   0.200   6.568   2.848 -0.2921 -0.9066  0.1100
11781TIP3   OH256833   0.288   4.411   4.654 -0.0727 -0.0002 -0.4819
11781TIP3    H156834   0.361   4.467   4.628 -1.0536  2.3857  1.4286
11781TIP3    H256835   0.327   4.343   4.708  0.7082  2.0681  1.7207
11782TIP3   OH256836   4.112   1.108  13.914 -0.0262 -0.0977  0.1182
11782TIP3    H156837   4.035   1.161  13.937 -0.5559 -0.5071 -0.6980
11782TIP3    H256838   4.147   1.079  13.999 -1.2502 -0.5880  0.4771
11783TIP3   OH256839   3.657   4.757  17.000  0.2714  0.0477  0.3220
11783TIP3    H156840   3.616   4.706  16.930  0.5854  0.6350 -0.3017
11783TIP3    H256841   3.664   4.846  16.964  0.9823  0.2244  0.8793
11784TIP3   OH256842   6.370   5.631  15.274 -0.2415 -0.6566 -0.1519
11784TIP3    H156843   6.304   5.599  15.335 -0.5078  1.0497  0.5031
11784TIP3    H256844   6.453   5.611  15.316 -0.3951 -0.6365  0.1604
11785TIP3   OH256845   4.200   0.481   4.916  0.2484 -0.2234  0.3941
11785TIP3    H156846   4.125   0.516   4.965 -0.1419 -0.0895 -0.2946
11785TIP3    H256847   4.163   0.411   4.863  0.7679 -0.7136  0.6703
11786TIP3   OH256848   3.407   1.538  16.163 -0.2932 -0.1089 -0.0019
11786TIP3    H156849   3.358   1.589  16.100 -0.9122 -0.7361 -0.0361
11786TIP3    H256850   3.355   1.459  16.177  1.2991 -1.3957 -0.9951
11787TIP3   OH256851   4.100   4.585   0.857  0.4908 -0.6536 -0.4897
11787TIP3    H156852   4.110   4.595   0.952 -1.1549  0.7983 -0.4217
11787TIP3    H256853   4.161   4.648   0.820 -0.6906  0.6652 -0.2955
11788TIP3   OH256854   2.106   5.529   3.038  0.3714  0.2722  0.5252
11788TIP3    H156855   2.048   5.573   3.100  1.8396  2.7664  0.2835
11788TIP3    H256856   2.175   5.491   3.092 -0.4341 -1.0640  0.6629
11789TIP3   OH256857   1.689   1.722  15.889  0.0619  0.5074 -0.1353
11789TIP3    H156858   1.778   1.737  15.856  0.1755  0.9877  0.3790
11789TIP3    H256859   1.669   1.632  15.863  0.7843  0.3189 -0.0619
11790TIP3   OH256860   1.555   6.718  11.773 -0.3506 -0.6457  0.0758
11790TIP3    H156861   1.641   6.688  11.801 -0.1719  0.3595  0.6331
11790TIP3    H256862   1.510   6.744  11.853 -0.4470  0.6736 -0.3718
11791TIP3   OH256863   3.166   4.095   3.997 -0.1030 -0.2328  0.1318
11791TIP3    H156864   3.102   4.029   4.023 -0.0654 -1.2418 -2.0829
11791TIP3    H256865   3.150   4.108   3.904  1.6648  0.9167 -0.0547
11792TIP3   OH256866   5.756   0.529  10.466  0.3000  0.1186 -0.1906
11792TIP3    H156867   5.702   0.542  10.544 -0.5289  0.2738 -0.7845
11792TIP3    H256868   5.694   0.509  10.396  0.9705  0.7570 -0.9905
11793TIP3   OH256869   0.530   5.327  16.825 -0.0471 -0.0754 -0.4506
11793TIP3    H156870   0.495   5.300  16.910 -0.1278  1.1052 -0.0861
11793TIP3    H256871   0.497   5.416  16.813  0.8656  0.1799 -1.2084
11794TIP3   OH256872   1.252   3.057   1.659 -0.0059  0.0693  0.1617
11794TIP3    H156873   1.165   3.078   1.625 -0.0934  0.8382  0.8106
11794TIP3    H256874   1.289   3.141   1.685 -0.7822 -0.5300  3.8699
11795TIP3   OH256875   1.695   1.949  14.866  0.5779  0.2770  0.1928
11795TIP3    H156876   1.624   1.953  14.802  0.5704  0.3155  0.2044
11795TIP3    H256877   1.712   1.855  14.876  1.9223  0.3019 -1.3548
11796TIP3   OH256878   1.313   4.390   2.280  0.2847 -0.3918 -0.3750
11796TIP3    H156879   1.367   4.371   2.356  0.6934 -3.0852 -1.2356
11796TIP3    H256880   1.353   4.340   2.209 -3.1365 -2.3376 -1.1471
11797TIP3   OH256881   1.582   2.225  14.928  0.0767  0.1264  0.1910
11797TIP3    H156882   1.670   2.189  14.922  0.2764  0.7825 -1.2999
11797TIP3    H256883   1.556   2.239  14.837 -1.8128 -0.6142  0.5663
11798TIP3   OH256884   0.703   3.947  15.630  0.3603  0.1996 -0.1061
11798TIP3    H156885   0.794   3.962  15.658  0.4032 -0.3687  0.0602
11798TIP3    H256886   0.704   3.860  15.591  0.2092  0.7892 -1.4944
11799TIP3   OH256887   5.650   0.917  16.691 -0.4654  0.5118 -0.3693
11799TIP3    H156888   5.600   0.999  16.688 -1.0837  0.1183 -1.0697
11799TIP3    H256889   5.673   0.900  16.600 -1.3316 -0.6952 -0.3796
11800TIP3   OH256890   4.704   2.987  11.140 -0.2558 -0.3695  0.6950
11800TIP3    H156891   4.682   2.929  11.213  0.5575 -0.4400  0.8952
11800TIP3    H256892   4.798   2.973  11.125 -0.5990 -1.0634 -0.9944
11801TIP3   OH256893   3.404   5.704   4.966  0.3675 -0.4627 -0.6891
11801TIP3    H156894   3.316   5.669   4.981  0.2018  0.2749  0.0973
11801TIP3    H256895   3.402   5.737   4.876 -0.2651 -0.1435 -0.5619
11802TIP3   OH256896   5.130   2.273  14.656 -0.1350  0.4259  0.0002
11802TIP3    H156897   5.187   2.272  14.579 -0.3572 -0.9718 -0.1599
11802TIP3    H256898   5.138   2.363  14.690  1.2993  0.5773 -0.6502
11803TIP3   OH256899   4.790   3.940   3.478 -0.0333  0.0539  0.1552
11803TIP3    H156900   4.810   3.887   3.401 -1.5039  0.9848 -0.9330
11803TIP3    H256901   4.732   3.885   3.531 -1.5708  0.5026 -0.9784
11804TIP3   OH256902   3.066   5.664  15.077 -0.3796 -0.0736  0.2711
11804TIP3    H156903   3.050   5.749  15.036  0.1757 -0.3367 -0.5137
11804TIP3    H256904   2.994   5.609  15.048 -0.4146 -0.0397  0.2940
11805TIP3   OH256905   5.289   5.096  11.951 -0.8117  0.7635  0.2305
11805TIP3    H156906   5.212   5.070  12.001  0.1839  0.3231  1.5821
11805TIP3    H256907   5.295   5.191  11.966  1.3697  0.2585  3.9252
11806TIP3   OH256908   2.042   1.431   3.950 -0.7370  0.0862  0.1297
11806TIP3    H156909   1.956   1.412   3.914 -0.9892 -0.0464  0.7967
11806TIP3    H256910   2.041   1.392   4.037 -0.6468  1.6376  0.8494
11807TIP3   OH256911   4.498   6.404   0.819  0.0400  0.2116 -0.6700
11807TIP3    H156912   4.442   6.433   0.746 -1.6914  0.6395  0.7463
11807TIP3    H256913   4.453   6.436   0.897  1.2397 -1.2059  0.6573
11808TIP3   OH256914   2.146   1.034   0.604 -0.0615 -0.4238 -0.1174
11808TIP3    H156915   2.172   0.994   0.687  0.2088  1.2408  0.6500
11808TIP3    H256916   2.062   0.993   0.583  1.3190 -3.1354 -0.6763
11809TIP3   OH256917   0.430   3.629  11.578  0.1114 -0.7973 -0.2660
11809TIP3    H156918   0.372   3.696  11.616  1.1320  0.2703 -0.5460
11809TIP3    H256919   0.487   3.604  11.650 -1.0990 -2.3585  0.2029
11810TIP3   OH256920   4.683   2.403  15.828  0.4416 -0.3876  0.2883
11810TIP3    H156921   4.610   2.462  15.808 -0.3094 -1.9517 -2.1094
11810TIP3    H256922   4.642   2.328  15.870  0.7964 -0.8499 -0.1825
11811TIP3   OH256923   3.202   2.384   0.624 -0.0475 -0.9121  0.5330
11811TIP3    H156924   3.270   2.364   0.689 -1.0475 -3.2658  0.9303
11811TIP3    H256925   3.135   2.431   0.674  0.8137  0.6190  0.3287
11812TIP3   OH256926   1.166   5.208   4.842 -0.3172 -0.2685  0.2919
11812TIP3    H156927   1.144   5.279   4.781  0.9625 -1.7709 -2.0708
11812TIP3    H256928   1.088   5.152   4.841  0.6483 -1.7534 -2.3234
11813TIP3   OH256929   2.792   2.183   5.981  0.4173 -0.3768  0.0259
11813TIP3    H156930   2.803   2.260   5.925 -0.2992  0.0710  0.4908
11813TIP3    H256931   2.705   2.150   5.959  0.9515 -1.4107 -0.5956
11814TIP3   OH256932   2.776   5.889  15.899  0.1029  0.2735 -0.6819
11814TIP3    H156933   2.794   5.966  15.953  0.2560  0.2284 -0.6671
11814TIP3    H256934   2.840   5.824  15.928 -0.6570 -0.1903 -0.0226
11815TIP3   OH256935   3.671   5.229  11.898 -0.4801 -0.0740 -0.2507
11815TIP3    H156936   3.731   5.191  11.834  0.3186 -0.5305  0.7530
11815TIP3    H256937   3.714   5.218  11.982 -1.6530  0.2258  0.4204
11816TIP3   OH256938   4.434   0.203   0.004 -0.4294  0.1652 -0.4298
11816TIP3    H156939   4.378   0.262  -0.047 -2.5830 -1.0164  0.4457
11816TIP3    H256940   4.375   0.136   0.038  1.2539 -0.3047  1.8661
11817TIP3   OH256941   2.372   1.711   3.377  0.7379  0.2666  0.0035
11817TIP3    H156942   2.312   1.738   3.446  0.6742 -0.5066  0.2682
11817TIP3    H256943   2.418   1.791   3.352 -1.6789  1.2900 -1.5132
11818TIP3   OH256944   0.879   2.259  14.055  0.2443  0.2465  0.1648
11818TIP3    H156945   0.860   2.310  14.134  0.3490  1.3788 -0.5258
11818TIP3    H256946   0.820   2.184  14.060 -1.2045  1.3672  0.2942
11819TIP3   OH256947   3.805   0.276   3.275  0.5155 -0.0448  0.0049
11819TIP3    H156948   3.851   0.200   3.311  1.8184  0.9809  0.6088
11819TIP3    H256949   3.843   0.351   3.322 -1.1339  0.9421 -0.1589
11820TIP3   OH256950   0.996   6.640   1.001  0.4653  0.1771 -0.1902
11820TIP3    H156951   1.028   6.667   1.087 -0.0370 -0.3700  0.1742
11820TIP3    H256952   0.901   6.636   1.010  0.5120 -2.0783 -0.0793
11821TIP3   OH256953   0.782   2.401  12.608  0.2299 -0.1428  0.0722
11821TIP3    H156954   0.807   2.483  12.565  0.7246 -0.9626 -1.2668
11821TIP3    H256955   0.719   2.361  12.549 -0.7016 -0.3269  1.1541
11822TIP3   OH256956   6.496   6.391   2.157  0.5991 -0.0645  0.0346
11822TIP3    H156957   6.441   6.313   2.145 -0.3296  0.6782 -0.6772
11822TIP3    H256958   6.548   6.372   2.235 -0.3742 -0.9550  0.4837
11823TIP3   OH256959   2.394   1.095  12.502 -0.1484 -0.0121 -0.4953
11823TIP3    H156960   2.356   1.074  12.417  0.0886 -0.8430 -0.4055
11823TIP3    H256961   2.321   1.089  12.563 -0.1478 -0.2495 -0.5188
11824TIP3   OH256962   4.015   6.134  15.494 -0.5984 -0.0990 -0.1068
11824TIP3    H156963   4.011   6.192  15.570  0.9552 -0.6124  0.3912
11824TIP3    H256964   4.031   6.047  15.530  0.3023 -0.3281 -1.0094
11825TIP3   OH256965   1.027   6.616   3.371  0.2918 -0.6114  0.8718
11825TIP3    H156966   1.008   6.692   3.315 -0.6838 -0.8030  0.9191
11825TIP3    H256967   1.111   6.637   3.412  0.0730  0.4116  0.8293
11826TIP3   OH256968   1.250   1.333  10.437 -0.0922  0.1152  0.1972
11826TIP3    H156969   1.281   1.424  10.437 -1.4375  0.6079 -0.2590
11826TIP3    H256970   1.328   1.281  10.454  0.6953  1.3631  0.5473
11827TIP3   OH256971   3.395   2.272   5.418  0.1674  0.3401 -0.0158
11827TIP3    H156972   3.462   2.228   5.365  0.5726 -0.1589  0.8776
11827TIP3    H256973   3.435   2.280   5.505 -0.6928  0.6221  0.3651
11828TIP3   OH256974   4.615   2.007   5.471 -0.3463  0.3594 -0.0332
11828TIP3    H156975   4.556   1.983   5.400 -0.5060 -0.5034  0.3735
11828TIP3    H256976   4.559   2.010   5.549  0.1923 -0.9678  0.4489
11829TIP3   OH256977   2.717   3.651  11.472 -0.3967  0.1199  0.0841
11829TIP3    H156978   2.725   3.681  11.382  1.0263  1.4955  0.6180
11829TIP3    H256979   2.683   3.728  11.519 -0.8592 -0.4938  0.7687
11830TIP3   OH256980   1.068   6.153  11.266  0.4433 -0.9930 -0.5000
11830TIP3    H156981   1.059   6.088  11.336  2.1722 -0.1793  0.5243
11830TIP3    H256982   1.153   6.135  11.227  0.2302 -0.3488 -1.2848
11831TIP3   OH256983   2.586   0.365   0.049  0.0901  0.3031  0.2277
11831TIP3    H156984   2.674   0.340   0.079  0.2828  0.6083 -0.0786
11831TIP3    H256985   2.564   0.443   0.101 -0.5956 -0.5889  1.3325
11832TIP3   OH256986   1.130   1.366   4.366 -0.2476 -0.6336  0.1264
11832TIP3    H156987   1.144   1.274   4.388  0.0129 -0.6220  0.0026
11832TIP3    H256988   1.037   1.381   4.386  0.0238 -0.5762  1.4182
11833TIP3   OH256989   1.902   6.565  13.409 -0.0520  0.3394 -0.6588
11833TIP3    H156990   1.874   6.496  13.348 -0.1057  0.2203 -0.5003
11833TIP3    H256991   1.845   6.553  13.485  0.7259 -0.1880 -0.1470
11834TIP3   OH256992   3.882   1.894   4.409 -1.1071  0.4542  0.4080
11834TIP3    H156993   3.878   1.889   4.504 -0.5539 -1.6628  0.3707
11834TIP3    H256994   3.829   1.971   4.387 -2.2845  0.2799  2.3455
11835TIP3   OH256995   0.534   0.511  13.729 -0.4357 -0.4806  0.8054
11835TIP3    H156996   0.478   0.575  13.685 -0.4181 -1.2782 -0.4148
11835TIP3    H256997   0.556   0.448  13.661  0.5641 -1.1099  1.6908
11836TIP3   OH256998   3.611   6.771  14.360 -0.2485  0.6737 -0.2581
11836TIP3    H156999   3.619   6.753  14.266 -0.9832  1.8217 -0.5753
11836TIP3    H257000   3.618   6.686  14.402  2.8230  0.3715 -1.1191
11837TIP3   OH257001   5.873   6.368   2.749  0.0712  0.8059 -0.4176
11837TIP3    H157002   5.798   6.373   2.809 -0.2986 -0.7586 -0.7056
11837TIP3    H257003   5.943   6.328   2.801  0.0804  0.4217 -0.7225
11838TIP3   OH257004   0.998   1.167  11.656 -0.2050  0.1387  0.0659
11838TIP3    H157005   0.928   1.193  11.595  1.9763  1.5067 -2.0277
11838TIP3    H257006   0.997   1.071  11.653 -0.8103  0.1609 -1.3986
11839TIP3   OH257007   5.608   4.753   3.794 -0.1063  0.0107 -0.4361
11839TIP3    H157008   5.614   4.669   3.748 -0.2526 -0.1759 -0.1160
11839TIP3    H257009   5.536   4.799   3.750  0.1586  0.0825 -0.7952
11840TIP3   OH257010   4.273   5.565  14.088  0.0712 -0.1187 -0.4850
11840TIP3    H157011   4.249   5.542  13.998  1.0736 -1.4803 -0.4390
11840TIP3    H257012   4.289   5.481  14.131  0.8829  0.5554  0.5994
11841TIP3   OH257013   3.179   1.531  11.446 -0.3036  0.3394  0.2013
11841TIP3    H157014   3.171   1.623  11.422  1.1636  0.8117  1.3211
11841TIP3    H257015   3.133   1.523  11.529 -1.0670 -0.1223 -0.2569
11842TIP3   OH257016   5.356   4.625   5.035  0.3984 -0.2877 -0.1018
11842TIP3    H157017   5.316   4.592   5.116 -1.5116 -0.2663 -0.9882
11842TIP3    H257018   5.345   4.555   4.972 -0.0790  0.5043 -0.9188
11843TIP3   OH257019   6.804   2.221   5.009  0.4921 -0.1251 -0.5322
11843TIP3    H157020   6.807   2.219   5.105 -2.0358 -1.3371 -0.4091
11843TIP3    H257021   6.896   2.210   4.983  1.2328  0.0746  1.7278
11844TIP3   OH257022   5.122   4.017  16.728 -0.2237 -0.3103 -0.2512
11844TIP3    H157023   5.135   4.043  16.637  0.1390  0.1332 -0.0736
11844TIP3    H257024   5.205   4.035  16.771 -0.8312  0.8567  0.4848
11845TIP3   OH257025   1.431   3.419   4.488  0.1268  0.4267  0.6744
11845TIP3    H157026   1.497   3.452   4.427 -0.2948 -1.0527 -0.6258
11845TIP3    H257027   1.412   3.494   4.545 -1.1894  2.6844 -2.4773
11846TIP3   OH257028   3.214   1.189  12.750 -0.1696 -0.0575  0.0236
11846TIP3    H157029   3.296   1.205  12.703 -1.0481  3.9046 -0.5093
11846TIP3    H257030   3.239   1.190  12.842  0.3910  1.6829 -0.1111
11847TIP3   OH257031   4.715   5.133   4.557 -0.6171 -0.0526  0.3502
11847TIP3    H157032   4.720   5.155   4.464  0.8257  0.8218  0.6054
11847TIP3    H257033   4.621   5.122   4.574 -0.8971 -0.3666 -1.2222
11848TIP3   OH257034   1.452   1.927  11.847 -0.2976 -0.9199  0.0760
11848TIP3    H157035   1.413   2.013  11.860 -0.9908 -0.9388 -1.6221
11848TIP3    H257036   1.546   1.944  11.836 -0.3646 -0.4378  0.2415
11849TIP3   OH257037   5.415   1.975   0.704 -0.4881  0.4437  0.1584
11849TIP3    H157038   5.472   1.998   0.631  1.2445  0.4482  1.4533
11849TIP3    H257039   5.390   1.884   0.687 -0.8997  0.7337 -0.8951
11850TIP3   OH257040   1.813   1.862   0.197  0.0502  0.1859 -0.2518
11850TIP3    H157041   1.818   1.898   0.108 -0.6293 -0.7374 -0.6746
11850TIP3    H257042   1.850   1.774   0.190 -0.3627 -0.0407  0.2889
11851TIP3   OH257043   0.420   4.441   6.573  0.0011  0.0149 -0.4056
11851TIP3    H157044   0.480   4.369   6.593  1.8686  1.4570 -0.5633
11851TIP3    H257045   0.468   4.496   6.511 -2.0063  0.5755 -1.5633
11852TIP3   OH257046   6.294   4.674  11.495 -0.6570  0.2264 -0.2170
11852TIP3    H157047   6.231   4.619  11.542 -0.6739 -0.2214 -0.7620
11852TIP3    H257048   6.327   4.619  11.424  2.5443 -0.6227  1.7246
11853TIP3   OH257049   1.182   4.868  14.319 -0.2954  0.1086 -0.2612
11853TIP3    H157050   1.192   4.915  14.236  0.8755 -1.6923 -1.1994
11853TIP3    H257051   1.225   4.784  14.304  0.1126 -0.1990  2.2398
11854TIP3   OH257052   5.131   4.487  12.597 -0.2598 -0.0942  0.4648
11854TIP3    H157053   5.216   4.504  12.556 -0.9864  1.7298 -0.4096
11854TIP3    H257054   5.152   4.472  12.689  0.8433  3.5790  0.9655
11855TIP3   OH257055   6.728   6.113  12.933 -0.4490 -0.2351 -0.2215
11855TIP3    H157056   6.633   6.119  12.939 -0.4967 -0.3317 -0.8264
11855TIP3    H257057   6.760   6.156  13.012 -0.9085  2.4576 -1.4123
11856TIP3   OH257058   1.821   6.038  12.475  0.1299  0.3249  0.0210
11856TIP3    H157059   1.794   6.015  12.386  0.7553 -0.6449  0.0654
11856TIP3    H257060   1.740   6.039  12.525 -0.1983  0.6456 -0.5101
11857TIP3   OH257061   3.028   3.100  13.052 -0.2364 -0.3606 -0.1906
11857TIP3    H157062   2.992   3.043  13.120 -1.7151 -2.5584 -2.5858
11857TIP3    H257063   3.090   3.044  13.005  0.0210  0.7642 -1.2259
11858TIP3   OH257064   6.239   6.326  12.914  0.9577 -0.0201  0.1464
11858TIP3    H157065   6.170   6.374  12.961  0.3967 -0.1966 -0.4776
11858TIP3    H257066   6.191   6.270  12.852  1.6937  1.2595 -1.6679
11859TIP3   OH257067   6.345   2.574  14.155  0.0630 -0.4577 -0.2488
11859TIP3    H157068   6.263   2.534  14.124 -1.4831  1.2855  1.2991
11859TIP3    H257069   6.388   2.604  14.075 -2.2296  1.0661 -1.0293
11860TIP3   OH257070   1.751   1.119   3.146  0.4865  0.3154  0.1375
11860TIP3    H157071   1.722   1.165   3.225  0.9495  0.0230  0.4818
11860TIP3    H257072   1.832   1.075   3.172  0.7082  0.3166 -0.5392
11861TIP3   OH257073   1.458   0.912   6.466  0.0144  0.2113 -0.1930
11861TIP3    H157074   1.518   0.925   6.540 -0.6322 -1.5203  0.6750
11861TIP3    H257075   1.372   0.931   6.502 -0.1366  1.2074 -1.0353
11862TIP3   OH257076   3.068   5.759   0.508 -0.3377 -0.0968 -0.9894
11862TIP3    H157077   2.975   5.773   0.523 -0.5451 -0.5048 -1.8203
11862TIP3    H257078   3.086   5.673   0.547  0.3047  1.1053  1.5530
11863TIP3   OH257079   6.413   1.449  12.486  0.2245  0.2091 -0.1814
11863TIP3    H157080   6.473   1.515  12.451 -0.0718  0.1288 -0.8560
11863TIP3    H257081   6.470   1.388  12.532  0.4131  1.4170  1.2668
11864TIP3   OH257082   6.260   3.855  14.922 -0.4559  0.1820 -0.5217
11864TIP3    H157083   6.274   3.944  14.954  1.1362  0.0928 -0.9207
11864TIP3    H257084   6.280   3.799  14.997  2.4321  0.0156 -1.3047
11865TIP3   OH257085   0.756   0.208   1.964  0.7050  0.1684 -0.3590
11865TIP3    H157086   0.753   0.132   1.906 -0.7142 -0.1706  0.1169
11865TIP3    H257087   0.706   0.276   1.918  1.9709  0.8522 -0.7852
11866TIP3   OH257088   1.159   4.424  14.968 -0.4180  0.3506 -0.2907
11866TIP3    H157089   1.211   4.345  14.957 -2.4291 -0.8152 -2.0363
11866TIP3    H257090   1.184   4.480  14.894  1.1765  1.5701  1.0648
11867TIP3   OH257091   2.848   4.985   2.925  0.3108  0.5723 -0.3954
11867TIP3    H157092   2.907   4.941   2.987  0.1281  1.6428  0.5811
11867TIP3    H257093   2.876   4.954   2.839  2.5955  1.3439 -0.0070
11868TIP3   OH257094   3.036   5.619   2.914  0.1615 -0.2005  0.4165
11868TIP3    H157095   3.086   5.635   2.834  0.2283 -0.0396  0.4910
11868TIP3    H257096   3.017   5.525   2.911  3.0983 -0.9862  1.8726
11869TIP3   OH257097   5.183   1.996  12.969  0.0392 -0.2287 -0.2201
11869TIP3    H157098   5.144   2.014  13.055  1.5384  0.2470  0.3844
11869TIP3    H257099   5.180   1.900  12.962  0.9591 -0.3626  0.9040
11870TIP3   OH257100   1.931   2.023  11.419 -0.2137  0.3091  0.4313
11870TIP3    H157101   1.905   1.944  11.466  0.7489 -0.1968  0.1293
11870TIP3    H257102   1.962   2.082  11.487 -1.3758  0.6340  0.7136
11871TIP3   OH257103   2.762   0.262   5.010 -1.1182  0.1924  0.3022
11871TIP3    H157104   2.688   0.228   4.959 -0.4311  0.7866 -1.1502
11871TIP3    H257105   2.731   0.346   5.044 -0.9256  0.7670 -0.8714
11872TIP3   OH257106   2.627   4.332   4.632 -0.5302 -0.4468 -0.0919
11872TIP3    H157107   2.544   4.344   4.586 -2.6774 -2.8073  2.7388
11872TIP3    H257108   2.612   4.370   4.719  1.9598  0.4341  0.0325
11873TIP3   OH257109   6.338   4.994  17.114 -0.6267 -0.3840  0.6176
11873TIP3    H157110   6.364   5.085  17.100  0.5057 -0.6803  0.7282
11873TIP3    H257111   6.337   4.984  17.209  1.2757 -1.0215  0.6126
11874TIP3   OH257112   0.535   6.182   0.590  0.8783 -0.4214  0.5858
11874TIP3    H157113   0.505   6.131   0.515  0.8053 -1.8943  1.5796
11874TIP3    H257114   0.465   6.173   0.654  0.4750  1.6465  0.5132
11875TIP3   OH257115   1.117   2.541   5.356 -0.7209 -0.4405  0.3418
11875TIP3    H157116   1.134   2.592   5.435 -0.8689  0.2045 -0.0363
11875TIP3    H257117   1.183   2.471   5.358  0.1912  0.3983  0.3055
11876TIP3   OH257118   0.872   5.889  14.080 -0.1999  0.2501 -0.0165
11876TIP3    H157119   0.900   5.827  14.147  0.4489  0.5019 -0.0503
11876TIP3    H257120   0.776   5.883  14.081 -0.2415  0.6470  1.3202
11877TIP3   OH257121   6.207   1.397  12.222  0.0111 -0.3744 -0.3256
11877TIP3    H157122   6.268   1.329  12.252 -1.0245 -1.5931 -0.9228
11877TIP3    H257123   6.264   1.462  12.179  1.1752 -0.1027  1.4925
11878TIP3   OH257124   3.650   3.761   2.339 -0.3584  0.2582  0.3917
11878TIP3    H157125   3.563   3.747   2.301 -1.3032 -0.1980  2.5913
11878TIP3    H257126   3.692   3.674   2.335  0.4341  0.6590 -1.5045
11879TIP3   OH257127   3.723   5.480  12.204 -0.0882 -0.2315  0.3358
11879TIP3    H157128   3.632   5.463  12.181 -0.4324  0.8105  0.8283
11879TIP3    H257129   3.750   5.548  12.142  0.7710 -1.4331 -0.6425
11880TIP3   OH257130   2.520   4.699   1.356  0.1907  0.0870 -0.1356
11880TIP3    H157131   2.587   4.767   1.364  1.1642 -0.7375 -0.9478
11880TIP3    H257132   2.457   4.719   1.426  1.3469  0.8143  0.7464
11881TIP3   OH257133   0.772   3.101  17.147  0.5716 -0.0060  0.0963
11881TIP3    H157134   0.735   3.181  17.109  0.9734  0.2508  0.2367
11881TIP3    H257135   0.787   3.044  17.072  0.6684  0.2120 -0.0532
11882TIP3   OH257136   2.487   3.330   3.227  0.0617 -0.0201 -0.2619
11882TIP3    H157137   2.467   3.300   3.316 -1.0474  0.9045 -0.1710
11882TIP3    H257138   2.544   3.263   3.191 -0.2587 -0.8988  0.8164
11883TIP3   OH257139   1.521   0.670  11.505  0.1426 -0.0337 -0.7554
11883TIP3    H157140   1.607   0.631  11.491  0.4890  0.5231 -0.2191
11883TIP3    H257141   1.518   0.689  11.599 -0.7412 -0.4582 -0.6804
11884TIP3   OH257142   6.038   3.287  10.961  0.0095  0.2800  0.0609
11884TIP3    H157143   6.019   3.369  10.915 -0.7315 -0.0153 -0.1677
11884TIP3    H257144   6.048   3.222  10.892 -2.0183 -0.3635  0.2831
11885TIP3   OH257145   4.591   3.234   4.264 -0.6052  0.0918  0.5555
11885TIP3    H157146   4.543   3.287   4.327 -0.4460  0.9310 -0.0109
11885TIP3    H257147   4.551   3.147   4.270  0.9476 -0.5445  3.5143
11886TIP3   OH257148   1.824   3.052   5.233  0.0158 -0.2054  0.3274
11886TIP3    H157149   1.859   2.986   5.173 -0.1359  0.3430 -0.3777
11886TIP3    H257150   1.822   3.009   5.318  1.9960 -0.4086  0.3258
11887TIP3   OH257151   3.414   4.912   4.214  0.2138  0.5861 -0.1247
11887TIP3    H157152   3.437   4.917   4.306 -0.3371  1.1858 -0.0131
11887TIP3    H257153   3.412   5.003   4.184  4.7127  0.3558 -1.8732
11888TIP3   OH257154   0.438   0.473  12.994  0.2013  0.4004  0.6600
11888TIP3    H157155   0.430   0.483  12.900 -2.1813  0.8899  0.8613
11888TIP3    H257156   0.378   0.538  13.031  1.5613  0.6887  2.5547
11889TIP3   OH257157   4.059   1.533   5.758 -0.1855 -0.0122  0.2357
11889TIP3    H157158   4.121   1.585   5.809  2.5387 -1.5135 -1.2876
11889TIP3    H257159   4.029   1.591   5.689 -0.6957  0.7863  1.0963
11890TIP3   OH257160   0.385   1.121  16.388  0.2579  0.5877  0.0478
11890TIP3    H157161   0.471   1.151  16.359  0.2504 -0.1499 -0.7746
11890TIP3    H257162   0.361   1.181  16.459  0.6533  1.9031 -0.8989
11891TIP3   OH257163   5.388   0.568  16.290  0.6875  0.3939 -0.4391
11891TIP3    H157164   5.475   0.601  16.313  1.3327 -1.6973  0.3917
11891TIP3    H257165   5.330   0.603  16.356  1.1825  0.5706 -0.0897
11892TIP3   OH257166   2.814   0.940  12.185 -0.0567  0.1499 -0.9742
11892TIP3    H157167   2.829   0.972  12.274  0.2371 -0.6711 -0.7226
11892TIP3    H257168   2.873   0.866  12.176 -0.7176 -0.3176 -1.5459
11893TIP3   OH257169   4.204   3.526   6.413  0.4775 -0.2890  0.5188
11893TIP3    H157170   4.112   3.549   6.426  0.3800 -1.2663  1.7759
11893TIP3    H257171   4.252   3.600   6.450  0.1706 -0.7795  1.9757
11894TIP3   OH257172   4.690   6.446   2.479 -0.4677  0.0008  0.3595
11894TIP3    H157173   4.685   6.386   2.552 -1.1358 -0.3274  0.0532
11894TIP3    H257174   4.599   6.467   2.458 -0.3048 -0.1643 -0.5759
11895TIP3   OH257175   1.788   6.597  16.206 -0.2415  0.2906  0.2848
11895TIP3    H157176   1.818   6.637  16.288  0.5403 -0.8085  0.5523
11895TIP3    H257177   1.774   6.505  16.228  1.4200 -0.3537 -1.1500
11896TIP3   OH257178   5.047   1.143  16.056  0.3772 -0.1781  0.1151
11896TIP3    H157179   5.101   1.197  16.114  0.9250 -0.2889 -0.2760
11896TIP3    H257180   5.101   1.131  15.978 -0.8724  1.0718 -0.9724
11897TIP3   OH257181   0.294   6.364  16.081  0.1845  0.2703 -0.6542
11897TIP3    H157182   0.357   6.313  16.132  0.6724  0.9018 -0.6260
11897TIP3    H257183   0.341   6.444  16.057 -0.8322  1.0875 -0.0043
11898TIP3   OH257184   0.352   1.258   0.113  0.6326 -0.0747 -0.8048
11898TIP3    H157185   0.361   1.292   0.203  1.2503  1.5516 -1.4378
11898TIP3    H257186   0.441   1.235   0.087  0.3501 -1.2978 -0.7507
11899TIP3   OH257187   3.560   1.862   6.800 -0.1481  0.3134 -0.0382
11899TIP3    H157188   3.471   1.849   6.832  0.2002  0.8959  1.2427
11899TIP3    H257189   3.596   1.774   6.791 -1.2537 -0.0088 -1.8710
11900TIP3   OH257190   4.361   5.467  10.612 -0.0405  0.7499  0.6290
11900TIP3    H157191   4.338   5.374  10.617  0.5149  0.4404 -1.4061
11900TIP3    H257192   4.440   5.476  10.665 -0.3183  0.1365  1.1506
11901TIP3   OH257193   0.982   2.743   2.155  0.4022  0.5230  0.2627
11901TIP3    H157194   0.934   2.697   2.223 -2.7972  4.1598  0.7833
11901TIP3    H257195   0.974   2.687   2.078  0.1832 -1.5513  1.7182
11902TIP3   OH257196   5.354   5.696  13.165  0.1635  0.0120  0.0658
11902TIP3    H157197   5.358   5.792  13.160 -1.5281  0.1675  0.8769
11902TIP3    H257198   5.344   5.678  13.258  1.6881 -1.0614  0.0598
11903TIP3   OH257199   0.783   1.374   0.834 -0.0733 -0.2766  0.0682
11903TIP3    H157200   0.751   1.339   0.751  0.2520 -0.0385 -0.1606
11903TIP3    H257201   0.831   1.453   0.810  0.2730 -0.3659  0.4514
11904TIP3   OH257202   5.480   2.403   1.945  0.5558  0.0678 -0.4719
11904TIP3    H157203   5.408   2.464   1.930 -2.5755 -3.2056 -0.2974
11904TIP3    H257204   5.464   2.332   1.883  2.3929 -1.8351  1.0798
11905TIP3   OH257205   5.571   2.872  13.634  0.0139 -0.6506  0.1290
11905TIP3    H157206   5.558   2.869  13.729  2.0711  1.0368  0.5444
11905TIP3    H257207   5.495   2.921  13.601  0.6221  1.1376  1.2723
11906TIP3   OH257208   0.105   2.789   2.795  0.2966  0.0223  0.1408
11906TIP3    H157209   0.040   2.749   2.851 -0.4518 -2.2062 -2.1359
11906TIP3    H257210   0.183   2.796   2.850 -0.3346 -2.1770  1.4411
11907TIP3   OH257211   3.479   1.350   0.185 -0.4555 -0.4434  0.5315
11907TIP3    H157212   3.511   1.368   0.273 -0.4518 -0.6783  0.5787
11907TIP3    H257213   3.521   1.417   0.130 -0.2159 -0.4859  0.6600
11908TIP3   OH257214   2.036   2.349  10.891 -0.4463  0.1058  0.2090
11908TIP3    H157215   2.125   2.315  10.885 -0.2153  0.7373  0.0175
11908TIP3    H257216   2.043   2.425  10.948 -0.8658  0.1488  0.2079
11909TIP3   OH257217   3.451   6.648  13.740  0.4147 -0.4459  0.6440
11909TIP3    H157218   3.425   6.666  13.830 -1.1642  0.7995 -0.0175
11909TIP3    H257219   3.518   6.713  13.721  1.7496 -1.5700  1.3044
11910TIP3   OH257220   5.592   6.704  13.255 -0.2064  0.2722 -0.3515
11910TIP3    H157221   5.653   6.658  13.313 -0.9825 -0.8910 -0.4274
11910TIP3    H257222   5.552   6.771  13.311  0.2199  0.2121  0.0330
11911TIP3   OH257223   1.111   2.183   1.933 -0.4876  0.2230 -0.7533
11911TIP3    H157224   1.153   2.226   1.859  1.6540  1.7678  1.2214
11911TIP3    H257225   1.165   2.207   2.009 -2.4028 -1.4862  1.2935
11912TIP3   OH257226   1.757   1.482  16.581 -0.4694  0.9518 -0.3691
11912TIP3    H157227   1.667   1.476  16.615  0.1374 -1.0913  1.0874
11912TIP3    H257228   1.794   1.558  16.624 -0.1224 -0.8444  2.7823
11913TIP3   OH257229   0.412   0.277   0.010 -0.3184  0.3017  0.0273
11913TIP3    H157230   0.483   0.340   0.022 -1.0400  1.1426  0.0366
11913TIP3    H257231   0.333   0.331   0.011 -1.0150 -0.7007  0.8494
11914TIP3   OH257232   5.591   3.955   3.961  0.1572  0.4542  0.1440
11914TIP3    H157233   5.665   3.959   4.021 -0.8472 -0.3086  1.4923
11914TIP3    H257234   5.553   4.043   3.964  1.8667  1.3304 -1.7714
11915TIP3   OH257235   1.565   0.081  14.153 -0.0541  0.3532 -0.1326
11915TIP3    H157236   1.500   0.121  14.211 -0.5803 -0.3651 -0.2154
11915TIP3    H257237   1.606   0.155  14.108 -1.6987  0.7587 -1.0235
11916TIP3   OH257238   4.352   1.205   2.665  0.7993  0.6212  0.0060
11916TIP3    H157239   4.291   1.278   2.656 -0.4494 -0.4353 -0.3261
11916TIP3    H257240   4.341   1.154   2.585  2.0862  0.3595 -0.0274
11917TIP3   OH257241   3.899   2.246  13.866  0.0684 -0.1049 -0.3445
11917TIP3    H157242   3.827   2.225  13.806 -0.5078 -1.0361  0.6331
11917TIP3    H257243   3.938   2.161  13.887  1.7676  0.4208 -1.2066
11918TIP3   OH257244   6.426   3.823   0.075 -0.1076 -0.7731  0.5439
11918TIP3    H157245   6.393   3.738   0.047 -1.4724 -0.1108  0.0496
11918TIP3    H257246   6.348   3.877   0.084  0.7569  0.5091  0.5958
11919TIP3   OH257247   5.580   4.875   1.178 -0.1173 -0.3025  0.1332
11919TIP3    H157248   5.554   4.892   1.088  0.1447 -0.6210 -0.0035
11919TIP3    H257249   5.550   4.952   1.227 -2.8940 -1.3862  0.2994
11920TIP3   OH257250   0.013   5.847  13.363 -0.2905  0.2071 -0.3556
11920TIP3    H157251  -0.080   5.835  13.381 -0.0216 -0.2902  0.7454
11920TIP3    H257252   0.052   5.762  13.381  0.0551 -0.3388 -3.1889
11921TIP3   OH257253   4.030   6.676   2.402 -0.0067  0.3772 -0.1680
11921TIP3    H157254   4.023   6.707   2.311  1.3351  0.1499 -0.3812
11921TIP3    H257255   3.961   6.611   2.411  1.5797 -1.6941 -1.9629
11922TIP3   OH257256   1.326   3.737  11.723  0.2866 -0.0772  0.0400
11922TIP3    H157257   1.421   3.738  11.732  0.4831  0.7950 -1.7046
11922TIP3    H257258   1.295   3.801  11.787  0.8039 -0.8323  1.0716
11923TIP3   OH257259   1.501   4.325  15.127  0.0360  0.3898 -0.2518
11923TIP3    H157260   1.502   4.245  15.074  0.3641  1.1447 -1.4084
11923TIP3    H257261   1.576   4.316  15.186  0.7183  0.3268 -1.1227
11924TIP3   OH257262   5.673   6.059   3.552 -0.4851  0.4493 -0.3079
11924TIP3    H157263   5.594   6.102   3.518 -0.5201  0.1312 -0.6265
11924TIP3    H257264   5.674   5.974   3.509 -0.4562  0.0983  0.3816
11925TIP3   OH257265   1.517   0.995  13.436  0.0402  0.3341 -0.3105
11925TIP3    H157266   1.558   1.081  13.432 -0.2129  0.6113  1.9984
11925TIP3    H257267   1.553   0.948  13.360  2.9339  1.2877  0.3496
11926TIP3   OH257268   6.246   6.376   6.589 -0.5547 -0.4025 -0.4618
11926TIP3    H157269   6.221   6.460   6.552  0.2043 -0.3436 -0.8736
11926TIP3    H257270   6.200   6.311   6.536  0.0505 -0.2941 -1.1430
11927TIP3   OH257271   3.973   1.959  16.590  0.0130 -0.2853  0.0055
11927TIP3    H157272   3.937   2.019  16.655 -1.7427 -2.1360  0.8616
11927TIP3    H257273   4.068   1.965  16.602 -0.2263 -0.0814  2.3170
11928TIP3   OH257274   3.796   4.840  13.164 -0.7676 -0.2542  0.0329
11928TIP3    H157275   3.711   4.855  13.124 -1.6560 -2.3281  0.9711
11928TIP3    H257276   3.797   4.746  13.183  1.4772 -0.1670  0.6355
11929TIP3   OH257277   2.750   4.852   1.891 -0.1553  0.2762 -0.4546
11929TIP3    H157278   2.684   4.907   1.850 -0.3239 -0.2559 -0.9249
11929TIP3    H257279   2.721   4.840   1.981 -0.9596 -0.3385 -0.7859
11930TIP3   OH257280   6.549   6.196  12.547 -0.2269  0.5353 -0.7379
11930TIP3    H157281   6.517   6.282  12.573 -2.3839 -0.2407 -0.5639
11930TIP3    H257282   6.630   6.184  12.596 -0.5430  1.9672  0.1874
11931TIP3   OH257283   3.100   1.788   4.515  0.4853  0.3083  0.7385
11931TIP3    H157284   3.067   1.852   4.579  1.8499 -0.2119  2.0296
11931TIP3    H257285   3.038   1.716   4.520 -2.0380  2.0918 -1.9492
11932TIP3   OH257286   2.257   2.411   3.123  0.3623 -0.6687  0.0139
11932TIP3    H157287   2.203   2.352   3.175 -0.1656  0.4578  0.7813
11932TIP3    H257288   2.205   2.429   3.045  0.0360 -0.3765  0.2901
11933TIP3   OH257289   3.133   5.974   5.891 -0.3021 -0.2317  0.3937
11933TIP3    H157290   3.121   5.879   5.892 -1.2006 -0.1198  1.0710
11933TIP3    H257291   3.068   6.007   5.953  0.0588  0.8208  0.2236
11934TIP3   OH257292   2.559   5.967  11.375 -0.2046 -0.0636  0.3422
11934TIP3    H157293   2.629   5.913  11.339  0.2599 -0.5721  1.9342
11934TIP3    H257294   2.598   6.054  11.384  0.1138 -0.2641  0.9064
11935TIP3   OH257295   1.483   0.719  16.412 -0.5800 -0.7515 -0.8435
11935TIP3    H157296   1.504   0.626  16.415 -0.7094 -0.7530  0.7574
11935TIP3    H257297   1.411   0.729  16.474 -1.2266  0.2647 -1.7263
11936TIP3   OH257298   1.838   4.240   3.454  0.1537 -0.2154  0.2552
11936TIP3    H157299   1.908   4.202   3.507 -0.7113 -0.7689  1.0273
11936TIP3    H257300   1.768   4.260   3.516 -0.5670 -0.1233 -0.5573
11937TIP3   OH257301   3.626   0.922  13.442  0.1154 -0.2362 -0.0769
11937TIP3    H157302   3.543   0.874  13.435 -0.7564  1.3291 -1.3378
11937TIP3    H257303   3.689   0.869  13.393 -0.2623 -1.1856  0.4484
11938TIP3   OH257304   5.546   5.335  11.894 -0.1103  0.0929 -0.0482
11938TIP3    H157305   5.627   5.310  11.940 -0.3657  0.2081  0.4696
11938TIP3    H257306   5.512   5.253  11.860 -0.1613 -0.0641  0.3689
11939TIP3   OH257307   4.383   0.513   0.698  0.4066  0.0886  0.7057
11939TIP3    H157308   4.340   0.588   0.738 -0.4849 -0.0639  0.0578
11939TIP3    H257309   4.458   0.551   0.651 -0.1516  0.6158  0.2156
11940TIP3   OH257310   4.903   3.123  15.030 -0.3996 -0.7252 -0.0713
11940TIP3    H157311   4.884   3.196  14.972 -3.4533 -2.1751 -1.1516
11940TIP3    H257312   4.908   3.162  15.117  0.6564  1.0412 -0.8731
11941TIP3   OH257313   5.516   3.058  14.098  0.1903  0.5065 -0.5076
11941TIP3    H157314   5.544   2.986  14.041 -1.3205  0.2406 -0.9482
11941TIP3    H257315   5.428   3.033  14.126  0.5595  1.0549  1.2569
11942TIP3   OH257316   4.121   4.928  14.522 -0.4127  0.1812  0.4315
11942TIP3    H157317   4.145   4.873  14.448 -0.6704  0.0537  0.4416
11942TIP3    H257318   4.127   4.870  14.598 -2.3611 -0.3376  0.2575
11943TIP3   OH257319   1.159   4.008   5.140  0.3191 -0.1103 -0.3436
11943TIP3    H157320   1.162   3.915   5.164 -1.4981 -0.0991  0.0546
11943TIP3    H257321   1.114   4.050   5.213  0.3354  0.9448 -0.9270
11944TIP3   OH257322   5.189   3.888   2.327  0.5654  0.3880  0.1286
11944TIP3    H157323   5.193   3.795   2.304 -0.5484  0.4843 -0.5146
11944TIP3    H257324   5.279   3.911   2.350  0.5287 -1.3341  2.3105
11945TIP3   OH257325   2.902   3.048   2.196  0.8564  0.0486  0.1458
11945TIP3    H157326   2.881   2.958   2.175  3.1087 -0.6183  0.4569
11945TIP3    H257327   2.948   3.080   2.119 -0.0267  0.9965 -0.0119
11946TIP3   OH257328   6.512   6.523   0.317  0.2381 -0.4527  0.1503
11946TIP3    H157329   6.464   6.543   0.237 -0.6901 -0.7451  0.6128
11946TIP3    H257330   6.574   6.454   0.292  1.5286  0.9911 -0.8091
11947TIP3   OH257331   3.005   6.255   5.615 -0.5097 -0.1304  0.2468
11947TIP3    H157332   2.980   6.249   5.523  0.5534  0.5116 -0.1052
11947TIP3    H257333   3.008   6.164   5.645 -1.0039 -0.3364 -0.3146
11948TIP3   OH257334   0.037   5.630   5.044 -0.3551 -0.8573  0.5199
11948TIP3    H157335   0.040   5.602   5.136 -1.2701 -0.3399  0.7232
11948TIP3    H257336  -0.054   5.615   5.018 -0.0991 -0.9948 -0.3037
11949TIP3   OH257337   4.358   0.501   3.851 -0.0284  0.3328 -0.5936
11949TIP3    H157338   4.406   0.473   3.928  0.5249  0.7810 -0.7679
11949TIP3    H257339   4.425   0.519   3.786 -0.1617  3.6852  0.0038
11950TIP3   OH257340   5.258   4.204  13.830  0.0862  0.3901 -0.3870
11950TIP3    H157341   5.304   4.177  13.909  0.4501  2.5302  0.1941
11950TIP3    H257342   5.327   4.214  13.764  0.0979  0.8734 -0.3050
11951TIP3   OH257343   0.781   6.657   3.066  1.0543  0.1918 -0.4570
11951TIP3    H157344   0.837   6.704   3.128  0.8018  0.5981 -0.5317
11951TIP3    H257345   0.703   6.634   3.116  1.8823 -1.6672  0.0571
11952TIP3   OH257346   2.458   1.701  11.495 -0.2237 -0.3540  0.3116
11952TIP3    H157347   2.423   1.612  11.487 -0.0783 -0.3773 -0.1096
11952TIP3    H257348   2.473   1.729  11.404 -0.5979  0.2294  0.4195
11953TIP3   OH257349   0.665   4.154   5.768  0.0919 -0.3119  0.4322
11953TIP3    H157350   0.633   4.124   5.682 -0.9334 -1.2757  1.1218
11953TIP3    H257351   0.757   4.126   5.770 -0.0871 -0.9745 -0.0599
11954TIP3   OH257352   6.535   6.793  16.138 -0.5812 -0.3301 -0.2270
11954TIP3    H157353   6.516   6.735  16.212  0.5464  0.6206  0.8288
11954TIP3    H257354   6.625   6.821  16.151 -0.8389  1.0194 -1.1743
11955TIP3   OH257355   2.058   4.362   2.834 -0.0024  0.3577 -0.1736
11955TIP3    H157356   2.021   4.372   2.922 -0.0910 -0.8348 -0.0565
11955TIP3    H257357   2.067   4.452   2.801  0.6489  0.8785  1.3069
11956TIP3   OH257358   6.286   2.805  17.143  0.0890  0.1010  0.4005
11956TIP3    H157359   6.256   2.873  17.083 -0.7427 -1.4196 -1.0051
11956TIP3    H257360   6.372   2.780  17.110  0.4290  0.5046  0.9620
11957TIP3   OH257361   5.249   4.108  12.499 -0.3712 -0.0136 -0.5446
11957TIP3    H157362   5.231   4.014  12.493 -2.4069  0.3478 -1.0957
11957TIP3    H257363   5.164   4.147  12.519  0.9271  1.5201  2.6795
11958TIP3   OH257364   3.355   3.356   1.304 -0.3314  0.5778  0.5486
11958TIP3    H157365   3.434   3.303   1.299 -0.6136  0.2312 -0.7081
11958TIP3    H257366   3.356   3.394   1.392  2.0670  1.9136  0.0031
11959TIP3   OH257367   6.711   4.034  13.590  0.0824 -0.1353  0.3801
11959TIP3    H157368   6.669   4.115  13.617 -0.3418 -0.2238  0.0078
11959TIP3    H257369   6.804   4.051  13.597  0.0086  0.6053 -0.3326
11960TIP3   OH257370   4.410   6.701  14.812  0.3014 -0.4550 -0.3474
11960TIP3    H157371   4.456   6.662  14.738  1.7681  0.5584 -0.0110
11960TIP3    H257372   4.473   6.761  14.850 -0.6235 -0.5395  1.4001
11961TIP3   OH257373   5.651   0.160  15.257  0.1660  0.0122 -0.3083
11961TIP3    H157374   5.580   0.149  15.321 -0.8307 -1.4102 -1.5875
11961TIP3    H257375   5.719   0.099  15.285 -0.0140 -0.1674 -0.2645
11962TIP3   OH257376   0.159   2.793  13.873  0.2322 -0.7079 -0.1439
11962TIP3    H157377   0.178   2.846  13.950 -0.6810  0.1522 -0.4800
11962TIP3    H257378   0.215   2.716  13.882  1.9047  0.4723  0.1850
11963TIP3   OH257379   3.910   1.648  14.824  0.1536 -0.1492 -0.0502
11963TIP3    H157380   3.911   1.703  14.902 -0.9734  1.1270 -0.8930
11963TIP3    H257381   3.966   1.692  14.761 -0.2499 -0.2941 -0.5204
11964TIP3   OH257382   0.953   1.019   0.151  0.3363 -0.6321 -0.0040
11964TIP3    H157383   0.944   1.113   0.165  1.4074 -0.5928  0.5932
11964TIP3    H257384   0.990   1.011   0.062 -1.3072 -0.5929 -0.7159
11965TIP3   OH257385   2.710   2.720  15.301 -0.9890  0.0724 -0.2485
11965TIP3    H157386   2.677   2.658  15.366 -1.9819 -0.5081 -1.2615
11965TIP3    H257387   2.647   2.714  15.229  1.0360 -0.6440 -2.0430
11966TIP3   OH257388   6.490   5.122   3.017 -0.2419 -0.0130  0.7105
11966TIP3    H157389   6.477   5.053   2.951  0.7561 -0.5051  1.0195
11966TIP3    H257390   6.574   5.161   2.996 -0.6802  0.9686  0.6942
11967TIP3   OH257391   1.842   1.233   1.739 -0.1668 -0.2315  0.3649
11967TIP3    H157392   1.900   1.306   1.718 -0.0293 -0.6731 -0.8878
11967TIP3    H257393   1.756   1.274   1.750  0.1891  0.3067  1.3089
11968TIP3   OH257394   6.644   0.754   1.490  0.0352 -0.3349  0.2430
11968TIP3    H157395   6.713   0.809   1.527  0.3890  0.4497 -1.4764
11968TIP3    H257396   6.679   0.724   1.407 -0.9302 -1.5853  0.2627
11969TIP3   OH257397   0.309   4.003  10.849  0.2354  0.0795  0.1392
11969TIP3    H157398   0.381   3.939  10.844  2.6733  2.5885  0.8227
11969TIP3    H257399   0.317   4.054  10.768 -3.0444 -1.6311 -1.4630
11970TIP3   OH257400   3.546   4.174   3.723 -0.0640 -0.4383 -0.5183
11970TIP3    H157401   3.472   4.236   3.727 -0.5265 -1.0210  0.3100
11970TIP3    H257402   3.532   4.116   3.798  1.7675  0.0325  0.2422
11971TIP3   OH257403   5.626   4.678   1.473 -0.1378 -0.1471  0.0052
11971TIP3    H157404   5.636   4.773   1.465 -0.0055 -0.2241 -0.8956
11971TIP3    H257405   5.540   4.659   1.436 -0.4059 -0.3201  0.7053
11972TIP3   OH257406   1.068   2.416   4.958  0.3758  0.1144 -0.2733
11972TIP3    H157407   1.149   2.443   5.000 -0.2849  1.5338  0.1357
11972TIP3    H257408   1.047   2.487   4.897 -0.4246 -0.3577 -0.5714
11973TIP3   OH257409   5.489   0.948   3.651  0.1091 -0.0152 -0.0223
11973TIP3    H157410   5.437   0.978   3.725 -0.9458 -1.5876 -0.0960
11973TIP3    H257411   5.551   0.886   3.689  0.9917  0.7547 -0.1623
11974TIP3   OH257412   2.004   2.836  11.964 -0.0121  0.4984  0.4946
11974TIP3    H157413   2.029   2.749  11.933  0.5873  0.3417  1.3678
11974TIP3    H257414   1.949   2.872  11.894  1.0910  0.0747 -0.6388
11975TIP3   OH257415   5.529   6.384  12.168 -0.0952 -0.3295  0.1108
11975TIP3    H157416   5.584   6.331  12.111  1.5695  1.2057  0.2072
11975TIP3    H257417   5.440   6.366  12.139  0.5612 -1.4667 -1.3045
11976TIP3   OH257418   6.217   2.311   2.085 -0.1038 -0.2119  0.2914
11976TIP3    H157419   6.278   2.317   2.159  1.0867 -2.2332 -0.4371
11976TIP3    H257420   6.174   2.227   2.096 -0.5598 -0.1389 -0.8420
11977TIP3   OH257421   0.137   3.779  14.764  0.2303 -0.1736  0.3141
11977TIP3    H157422   0.048   3.771  14.728  0.3341 -2.5152  0.3812
11977TIP3    H257423   0.137   3.719  14.839  1.6601  0.3798  0.7762
11978TIP3   OH257424   1.718   5.947   4.065 -0.5502 -0.2222  0.0211
11978TIP3    H157425   1.668   5.971   4.143  0.1525 -3.3742  1.6002
11978TIP3    H257426   1.810   5.956   4.092 -0.2761  0.8011 -1.2081
11979TIP3   OH257427   1.686   3.565   4.868 -0.1232  0.0206  0.3154
11979TIP3    H157428   1.623   3.633   4.846 -1.2099 -1.2740 -0.7647
11979TIP3    H257429   1.679   3.502   4.796  2.3689 -0.2160  0.1749
11980TIP3   OH257430   1.829   4.867  14.474  0.1808  0.6092 -0.5282
11980TIP3    H157431   1.894   4.851  14.406  0.5206 -2.6626  0.4018
11980TIP3    H257432   1.878   4.860  14.556 -0.6467  2.2055  0.1465
11981TIP3   OH257433   6.578   0.643   0.126 -0.6196 -0.2471  0.2987
11981TIP3    H157434   6.611   0.693   0.052  1.8589 -1.9821  0.0729
11981TIP3    H257435   6.617   0.685   0.203 -2.1219  0.7561  0.5475
11982TIP3   OH257436   3.569   6.625  17.064  0.0810  0.6425 -0.4713
11982TIP3    H157437   3.603   6.688  17.000 -1.7545  0.3958 -1.7808
11982TIP3    H257438   3.519   6.679  17.126  0.8032  0.7390  0.0458
11983TIP3   OH257439   5.813   0.425  16.089  0.2484  0.3946 -0.0210
11983TIP3    H157440   5.862   0.419  16.006 -0.5479  0.8909 -0.5382
11983TIP3    H257441   5.726   0.455  16.063 -0.4526 -0.8450  0.8524
11984TIP3   OH257442   2.977   5.997   5.697  0.2475 -0.3504 -0.2086
11984TIP3    H157443   3.056   5.992   5.749 -0.1143 -2.2438  0.2350
11984TIP3    H257444   2.906   5.984   5.759 -0.2548 -1.3018 -0.9425
11985TIP3   OH257445   2.416   5.881  12.808 -0.0833 -0.7644 -0.1819
11985TIP3    H157446   2.357   5.947  12.843  2.3357  2.0512 -0.9231
11985TIP3    H257447   2.443   5.829  12.884  0.9888  1.7621  1.2932
11986TIP3   OH257448   0.702   2.558   0.527 -0.1227 -0.0018 -0.0940
11986TIP3    H157449   0.671   2.491   0.467 -1.4605  0.0833  0.4740
11986TIP3    H257450   0.656   2.540   0.609  1.0267  0.3961  0.6646
11987TIP3   OH257451   5.852   6.412   2.007 -0.1862 -0.1335  0.0698
11987TIP3    H157452   5.816   6.497   1.982  1.2236  0.0537 -1.5779
11987TIP3    H257453   5.842   6.407   2.102 -2.1800  0.9521 -0.0483
11988TIP3   OH257454   3.562   1.236  13.660 -0.2064 -0.6800  0.6203
11988TIP3    H157455   3.642   1.187  13.640  0.3796  0.2838  0.5577
11988TIP3    H257456   3.593   1.319  13.695 -1.1939 -0.4979  1.0910
11989TIP3   OH257457   2.893   5.669   3.803  0.0334 -0.1316 -0.1416
11989TIP3    H157458   2.944   5.657   3.723 -3.0784  1.1196 -2.5374
11989TIP3    H257459   2.820   5.608   3.794 -1.5257  1.5322  0.6376
11990TIP3   OH257460   1.833   2.936   0.139  0.1165  0.4006  0.1026
11990TIP3    H157461   1.783   2.872   0.089 -1.1404  0.6578  0.9611
11990TIP3    H257462   1.811   3.020   0.099 -0.4585  0.5496  0.6977
11991TIP3   OH257463   6.225   0.599  16.641 -0.6655  0.1739  0.1156
11991TIP3    H157464   6.147   0.548  16.664 -0.9589  0.3620 -0.4628
11991TIP3    H257465   6.230   0.594  16.546  1.8918 -2.6265  0.2449
11992TIP3   OH257466   3.241   1.516   3.629 -0.0140  0.0200  0.2337
11992TIP3    H157467   3.166   1.457   3.630  0.4854 -0.6310  0.3944
11992TIP3    H257468   3.277   1.508   3.541 -1.1110  1.6332 -0.4111
11993TIP3   OH257469   3.849   0.100  12.163  0.1264 -0.3278  0.2441
11993TIP3    H157470   3.876   0.102  12.071 -0.5114  0.8154  0.0700
11993TIP3    H257471   3.754   0.111  12.161  0.2862  1.4773  1.0979
11994TIP3   OH257472   4.353   6.452  13.794  0.5426  0.2681 -0.4797
11994TIP3    H157473   4.426   6.391  13.795  1.9370  1.8622  0.8867
11994TIP3    H257474   4.300   6.427  13.870  0.3559 -0.0726 -0.7172
11995TIP3   OH257475   1.180   1.294   4.082 -0.0216 -0.2170 -0.3216
11995TIP3    H157476   1.185   1.352   4.158  0.6852 -2.0119  1.0602
11995TIP3    H257477   1.259   1.315   4.032 -1.2733  2.0860 -1.4814
11996TIP3   OH257478   4.904   6.498   2.035 -0.0145  0.4396 -0.5239
11996TIP3    H157479   4.916   6.593   2.025  1.9359  0.2983  0.1802
11996TIP3    H257480   4.832   6.491   2.098  0.1431  1.4691 -0.1947
11997TIP3   OH257481   4.827   2.571  12.663  0.0875 -0.5401 -0.9726
11997TIP3    H157482   4.787   2.655  12.639  0.3547  0.1224  0.7501
11997TIP3    H257483   4.753   2.511  12.670 -0.3882  0.1374  0.0301
11998TIP3   OH257484   0.639   2.414   1.026  1.1792 -0.4104  0.2162
11998TIP3    H157485   0.638   2.385   1.117 -1.0747 -0.5789  0.1945
11998TIP3    H257486   0.724   2.385   0.992  2.2088 -0.0517  2.3172
11999TIP3   OH257487   6.604   4.574   4.511 -0.0741 -0.0877  0.0510
11999TIP3    H157488   6.563   4.510   4.570  0.4925  0.6806  1.3307
11999TIP3    H257489   6.683   4.531   4.481 -0.0965 -0.2919  0.2772
12000TIP3   OH257490   4.500   0.828  11.993 -0.4847  0.3155  0.2146
12000TIP3    H157491   4.489   0.736  12.017  0.8266  0.6976  2.5078
12000TIP3    H257492   4.540   0.826  11.906 -3.6971 -1.1673 -1.4070
12001TIP3   OH257493   1.909   4.767  13.721  0.5300 -0.2228 -0.4111
12001TIP3    H157494   1.995   4.735  13.691  0.0542 -0.4805 -1.5480
12001TIP3    H257495   1.927   4.854  13.757  1.2498 -0.2235 -0.7548
12002TIP3   OH257496   1.580   6.669  10.815  0.0978  0.0881 -0.3862
12002TIP3    H157497   1.579   6.701  10.905 -0.6136 -0.7162 -0.0876
12002TIP3    H257498   1.594   6.747  10.761  0.0992  0.6386  0.3994
12003TIP3   OH257499   4.713   6.080  12.421  0.4898  0.0305 -0.3285
12003TIP3    H157500   4.668   6.052  12.342 -2.1916 -0.0210  1.0843
12003TIP3    H257501   4.696   6.174  12.426 -0.8515 -0.2376  0.9738
12004TIP3   OH257502   3.234   4.255   5.060 -0.4144 -0.2359  0.0821
12004TIP3    H157503   3.329   4.241   5.061 -0.3126 -0.1042  3.3816
12004TIP3    H257504   3.224   4.351   5.063 -0.5990 -0.2707  0.7745
12005TIP3   OH257505   4.504   2.791   5.039 -0.3389  0.0919  0.1968
12005TIP3    H157506   4.531   2.699   5.045  0.7843  0.2333 -1.9469
12005TIP3    H257507   4.585   2.840   5.029 -0.8917  1.4171  1.7301
12006TIP3   OH257508   6.743   0.826  12.422 -0.3369  0.0957  0.1181
12006TIP3    H157509   6.695   0.906  12.441 -2.1881 -0.6830 -0.9259
12006TIP3    H257510   6.740   0.818  12.327  0.4622 -0.8282  0.1526
12007TIP3   OH257511   5.032   5.244  16.849 -0.2659  0.0038  0.1594
12007TIP3    H157512   4.997   5.273  16.765 -1.1631 -2.2448 -0.3088
12007TIP3    H257513   5.120   5.281  16.852 -1.4622  3.1380 -0.0705
12008TIP3   OH257514   5.050   4.536   2.222 -0.3297 -0.2022 -0.4255
12008TIP3    H157515   5.099   4.599   2.170  1.0510 -0.7932  0.0946
12008TIP3    H257516   5.002   4.484   2.158 -0.7057  0.7247 -0.9195
12009TIP3   OH257517   4.811   2.992   2.548 -0.4069 -0.2305 -0.6310
12009TIP3    H157518   4.818   2.975   2.642 -0.1541  0.2014 -0.5715
12009TIP3    H257519   4.774   3.081   2.543 -0.8540 -0.4285 -0.9403
12010TIP3   OH257520   2.455   1.090  11.079 -0.2295  0.1045  0.2668
12010TIP3    H157521   2.400   1.165  11.058  0.9391  1.7156  2.4915
12010TIP3    H257522   2.450   1.033  11.002 -1.8148  2.0563 -1.1617
12011TIP3   OH257523   6.289   2.364   1.230  0.1587 -0.3277 -0.5897
12011TIP3    H157524   6.359   2.305   1.258 -0.1471  0.4642  2.1820
12011TIP3    H257525   6.253   2.323   1.151  1.6849 -2.4229 -0.2854
12012TIP3   OH257526   1.019   0.376  16.061 -0.5630 -0.5804 -0.6203
12012TIP3    H157527   0.983   0.454  16.102  1.5155  0.3048 -0.3224
12012TIP3    H257528   1.041   0.318  16.134  3.4082  1.1135 -0.1785
12013TIP3   OH257529   5.506   2.587  16.630  0.8760  0.2119  0.3476
12013TIP3    H157530   5.563   2.541  16.569 -0.9693 -1.1128 -0.4709
12013TIP3    H257531   5.484   2.521  16.696 -0.2300  0.4922  0.2681
12014TIP3   OH257532   4.161   1.940  12.340 -0.4772  0.6383  0.5254
12014TIP3    H157533   4.087   1.950  12.400  0.4044  3.8130  1.2729
12014TIP3    H257534   4.188   2.030  12.320  2.8512 -0.3642 -0.1058
12015TIP3   OH257535   4.846   5.356  14.912 -0.1335 -0.4316 -0.1543
12015TIP3    H157536   4.823   5.445  14.939  0.1596  0.0652 -1.4699
12015TIP3    H257537   4.835   5.356  14.817  0.6441 -1.5742 -0.2625
12016TIP3   OH257538   1.210   1.000  13.275 -0.5521 -0.0799 -0.1581
12016TIP3    H157539   1.140   0.936  13.260 -0.4248 -0.4642  0.8168
12016TIP3    H257540   1.168   1.085  13.260 -1.1641 -0.3214  0.1406
12017TIP3   OH257541   5.848   2.074   4.010  0.3407  0.3005 -0.6223
12017TIP3    H157542   5.925   2.124   4.035  1.6704 -1.1760 -1.5665
12017TIP3    H257543   5.877   1.982   4.014 -1.8910 -0.4350  0.7660
12018TIP3   OH257544   4.774   2.437  17.228  0.0931 -0.2609 -0.1150
12018TIP3    H157545   4.787   2.369  17.161 -0.5869 -1.1498  0.6372
12018TIP3    H257546   4.813   2.400  17.307  0.7253  0.7100  0.0399
12019TIP3   OH257547   2.062   5.597  16.297 -0.0320  0.8578 -0.7440
12019TIP3    H157548   2.089   5.509  16.324 -1.0317  0.9872  0.7987
12019TIP3    H257549   2.142   5.639  16.267  0.7607 -0.0450  0.0511
12020TIP3   OH257550   1.750   2.229   0.086 -0.1307  0.0616  0.0989
12020TIP3    H157551   1.682   2.169   0.116 -0.2298  0.6359  1.0439
12020TIP3    H257552   1.820   2.172   0.053 -1.0406 -0.5343 -0.8571
12021TIP3   OH257553   3.291   2.936  14.153 -0.3779 -0.2091 -0.2492
12021TIP3    H157554   3.313   2.844  14.140 -1.3882 -0.1910 -2.3851
12021TIP3    H257555   3.241   2.938  14.235  0.3080 -1.4233  0.2143
12022TIP3   OH257556   6.379   6.766   1.440 -0.0441 -0.6717 -0.1551
12022TIP3    H157557   6.426   6.704   1.496 -0.6943 -1.5472 -0.5492
12022TIP3    H257558   6.443   6.833   1.419 -0.0608  0.3345  2.5483
12023TIP3   OH257559   2.435   6.142  16.417  0.0890 -0.1380 -0.5807
12023TIP3    H157560   2.482   6.088  16.353 -0.3378  1.3099 -2.1620
12023TIP3    H257561   2.430   6.086  16.495 -0.9718 -2.7186 -2.3335
12024TIP3   OH257562   0.403   6.511  16.923  0.2627 -0.0068 -0.2507
12024TIP3    H157563   0.381   6.514  16.830  1.2833 -0.4783 -0.5176
12024TIP3    H257564   0.467   6.581  16.935  0.8746 -0.5845 -0.1125
12025TIP3   OH257565   5.714   5.612   6.803  0.6086 -0.3033  0.4862
12025TIP3    H157566   5.797   5.601   6.848  0.4321  0.9394  1.1606
12025TIP3    H257567   5.677   5.692   6.840 -0.0447  0.1790 -1.1003
12026TIP3   OH257568   1.826   5.092  11.289  0.4555  0.4825 -0.0047
12026TIP3    H157569   1.826   5.053  11.376 -0.5121 -1.0629 -0.6666
12026TIP3    H257570   1.909   5.140  11.285  1.6385 -1.3446  0.9338
12027TIP3   OH257571   2.120   4.031  11.210 -0.1409 -0.0823 -0.0173
12027TIP3    H157572   2.142   4.023  11.303  0.6468  0.1229 -0.1827
12027TIP3    H257573   2.027   4.007  11.205 -0.0107 -0.7729  0.7186
12028TIP3   OH257574   5.343   3.624   0.974 -0.6316 -0.1236  0.3679
12028TIP3    H157575   5.421   3.578   1.005 -0.3044 -0.3007 -0.6759
12028TIP3    H257576   5.279   3.612   1.044  0.0150 -0.6683  0.8818
12029TIP3   OH257577   0.511   4.071   5.976 -0.0765 -0.3013  0.2625
12029TIP3    H157578   0.549   3.983   5.969 -0.8490 -0.6312  0.1498
12029TIP3    H257579   0.548   4.119   5.902  0.4439 -0.4881  0.3923
12030TIP3   OH257580   3.064   5.732  15.361 -0.0990  0.2317  0.0219
12030TIP3    H157581   3.017   5.814  15.373  0.1442  0.3289  0.3367
12030TIP3    H257582   3.074   5.723  15.267 -2.0345 -0.5360 -0.1524
12031TIP3   OH257583   4.205   1.338  13.220  0.3736  0.5939 -0.3792
12031TIP3    H157584   4.235   1.311  13.306  1.3724 -1.4001 -1.2886
12031TIP3    H257585   4.244   1.425  13.207  0.3351  0.8576  1.0803
12032TIP3   OH257586   4.059   5.826   5.953  0.2992  0.2960 -0.1468
12032TIP3    H157587   4.032   5.889   5.887 -0.0288 -0.5250 -0.8188
12032TIP3    H257588   3.977   5.800   5.996  0.2754 -0.4991 -0.6448
12033TIP3   OH257589   0.186   3.366  12.821  0.5373 -0.4484 -0.6141
12033TIP3    H157590   0.264   3.419  12.804  2.0524 -2.3538 -0.0731
12033TIP3    H257591   0.126   3.425  12.867  1.5316  1.1584 -1.2849
12034TIP3   OH257592   1.878   2.737   2.468 -0.3947 -0.5947 -0.1337
12034TIP3    H157593   1.957   2.690   2.497 -0.0168 -0.4655 -0.9276
12034TIP3    H257594   1.806   2.688   2.508  0.0268 -1.4332 -0.3614
12035TIP3   OH257595   2.481   6.636  16.534 -0.0679 -0.3283 -0.2890
12035TIP3    H157596   2.459   6.550  16.570 -0.3159 -0.5754 -1.0184
12035TIP3    H257597   2.452   6.698  16.601  2.2679 -0.8728  1.3525
12036TIP3   OH257598   6.733   0.689   4.998 -0.0674  0.1030  0.2594
12036TIP3    H157599   6.732   0.594   5.010  0.1983 -0.0718 -0.9649
12036TIP3    H257600   6.825   0.710   4.980 -0.0351  0.6778  1.0001
12037TIP3   OH257601   2.905   3.284  13.457  0.0861 -0.2836  0.4708
12037TIP3    H157602   2.996   3.281  13.487  0.9213  1.2757 -1.6666
12037TIP3    H257603   2.865   3.207  13.496  3.1013 -2.7733 -0.9153
12038TIP3   OH257604   2.906   5.752  12.430 -0.8309 -0.7419  0.0524
12038TIP3    H157605   2.995   5.732  12.402 -0.8370 -1.5344  0.5883
12038TIP3    H257606   2.914   5.771  12.524 -0.9519  1.0028 -0.2521
12039TIP3   OH257607   1.521   5.208  16.841 -0.1743 -0.1061 -0.1303
12039TIP3    H157608   1.447   5.268  16.843  0.2565  0.4739 -0.9561
12039TIP3    H257609   1.535   5.190  16.748  1.5606  0.8839 -0.0979
12040TIP3   OH257610   2.843   3.426   6.818 -0.2246 -0.1927  0.4384
12040TIP3    H157611   2.895   3.507   6.819  1.4866 -1.2383  1.1427
12040TIP3    H257612   2.795   3.429   6.736  1.3397  0.6214 -0.4862
12041TIP3   OH257613   4.140   1.795  14.103  0.5430  0.0698  0.8141
12041TIP3    H157614   4.192   1.779  14.182 -0.5942 -2.6977  1.0886
12041TIP3    H257615   4.086   1.717  14.093 -0.9889  1.3131 -1.4730
12042TIP3   OH257616   5.753   4.802   0.856 -0.9048  0.1529  0.1340
12042TIP3    H157617   5.727   4.882   0.901 -0.9429  0.2279 -0.0219
12042TIP3    H257618   5.680   4.742   0.870 -1.6367  0.6980 -1.1670
12043TIP3   OH257619   3.505   0.272   1.658 -0.2569 -0.6165  0.6806
12043TIP3    H157620   3.466   0.199   1.610 -0.3066 -0.6491  0.7697
12043TIP3    H257621   3.430   0.314   1.701 -0.0658 -1.3734  1.8046
12044TIP3   OH257622   3.707   1.737  11.080  0.5379  0.5461 -0.0908
12044TIP3    H157623   3.622   1.742  11.038  0.9266  1.9637 -0.7719
12044TIP3    H257624   3.697   1.670  11.148 -0.1855 -1.6112 -2.2181
12045TIP3   OH257625   3.156   1.637  13.185 -0.4508  0.1013 -0.1974
12045TIP3    H157626   3.072   1.637  13.139 -0.1017 -0.1674 -0.8373
12045TIP3    H257627   3.154   1.717  13.238  0.3075  1.9753 -2.7968
12046TIP3   OH257628   6.603   1.211   1.866 -0.5623 -0.1453  0.8180
12046TIP3    H157629   6.566   1.123   1.867  0.1175 -0.4397  1.5304
12046TIP3    H257630   6.572   1.250   1.784 -2.6533 -0.2679  1.4976
12047TIP3   OH257631   1.879   1.130  13.975  0.0038  0.1147  0.3142
12047TIP3    H157632   1.785   1.142  13.988 -0.2262  0.4612 -1.4491
12047TIP3    H257633   1.894   1.037  13.994 -0.4498  0.3375  1.8515
12048TIP3   OH257634   5.904   3.340   0.427 -0.1620  0.3553 -0.1296
12048TIP3    H157635   5.860   3.387   0.497 -1.4282 -0.3843 -0.3810
12048TIP3    H257636   5.895   3.248   0.450 -1.4748  0.0352 -1.6968
12049TIP3   OH257637   0.484   1.506   2.738  0.0602  0.1978  0.6408
12049TIP3    H157638   0.424   1.481   2.668 -0.9790  0.0493  1.5534
12049TIP3    H257639   0.486   1.602   2.735 -1.0697  0.2532  1.2712
12050TIP3   OH257640   2.068   5.184   4.252 -0.1851 -0.4231 -0.1615
12050TIP3    H157641   2.158   5.188   4.285 -0.1614  1.7102 -0.3634
12050TIP3    H257642   2.026   5.116   4.305  1.3992 -1.1246  0.2538
12051TIP3   OH257643   0.231   5.140   4.373  0.1412  0.0118  0.0753
12051TIP3    H157644   0.303   5.094   4.415 -0.4991 -0.0973  1.1043
12051TIP3    H257645   0.161   5.075   4.367  0.1618  0.0711 -1.0440
12052TIP3   OH257646   4.534   5.327   2.759  0.4414 -0.2868 -0.3065
12052TIP3    H157647   4.581   5.369   2.687  1.5819  1.6022  1.4244
12052TIP3    H257648   4.445   5.362   2.754  1.0038  1.3257  0.2415
12053TIP3   OH257649   0.050   4.920   5.972 -0.4336 -0.4096 -0.4031
12053TIP3    H157650   0.049   4.988   6.039  1.6358  0.7947 -1.4962
12053TIP3    H257651   0.037   4.968   5.890  1.3722 -1.2305 -1.2223
12054TIP3   OH257652   3.888   1.485   2.394 -0.0834 -0.0526  0.4774
12054TIP3    H157653   3.922   1.398   2.418  0.1033 -0.0181  0.3411
12054TIP3    H257654   3.828   1.507   2.465 -0.4524 -0.4770  0.3075
12055TIP3   OH257655   2.098   6.218   0.363  0.4138  0.4117 -0.1614
12055TIP3    H157656   2.097   6.271   0.283 -0.7604  1.6112  0.5978
12055TIP3    H257657   2.062   6.276   0.430  2.0219 -0.3061  1.4233
12056TIP3   OH257658   6.726   2.473  13.248 -0.6771  0.6784  0.6943
12056TIP3    H157659   6.751   2.533  13.177 -1.5294  1.3684  0.9504
12056TIP3    H257660   6.720   2.529  13.325  0.6711 -0.1417  1.4365
12057TIP3   OH257661   4.104   1.792  13.199  0.3542  0.6083 -0.1428
12057TIP3    H157662   4.071   1.868  13.247  0.4199  0.5570 -0.0173
12057TIP3    H257663   4.197   1.811  13.186  0.5362  0.2069  0.5420
12058TIP3   OH257664   4.039   6.758   4.609 -0.1397 -0.7343  0.0943
12058TIP3    H157665   4.115   6.725   4.561 -1.3361 -2.5214 -0.6519
12058TIP3    H257666   4.045   6.853   4.599  2.2733 -0.7640  0.5293
12059TIP3   OH257667   5.745   6.306   6.470 -0.0459 -0.1789  0.0292
12059TIP3    H157668   5.791   6.378   6.427  1.5019 -1.8006 -1.1653
12059TIP3    H257669   5.813   6.258   6.517 -1.1376 -0.5390  1.3138
12060TIP3   OH257670   4.667   0.145  16.720  0.1846  0.1556  0.0130
12060TIP3    H157671   4.746   0.138  16.773 -0.6956  0.9415  1.4787
12060TIP3    H257672   4.599   0.172  16.781 -1.1414 -0.0883 -1.2943
12061TIP3   OH257673   6.807   0.772  15.053  0.2110 -0.0577 -0.4316
12061TIP3    H157674   6.898   0.789  15.031  0.3467 -1.4820 -1.0871
12061TIP3    H257675   6.758   0.839  15.006  0.8966  0.6300 -0.1896
12062TIP3   OH257676   4.626   2.976  11.969 -0.0124 -0.5434 -0.2866
12062TIP3    H157677   4.682   2.994  11.894 -0.9902  1.0159 -0.6854
12062TIP3    H257678   4.552   3.037  11.960 -2.2914 -3.1318 -0.2805
12063TIP3   OH257679   1.987   2.304  14.787 -0.4221  0.0147 -0.3728
12063TIP3    H157680   2.080   2.289  14.769 -0.4625 -0.0145 -0.5636
12063TIP3    H257681   1.941   2.239  14.733 -0.6672  1.6749 -2.3047
12064TIP3   OH257682   0.726   5.818  13.771 -0.5473 -0.2243 -0.2026
12064TIP3    H157683   0.718   5.808  13.676 -1.4053 -0.4388 -0.1123
12064TIP3    H257684   0.799   5.879  13.782  1.4394 -2.3281 -0.8978
12065TIP3   OH257685   6.040   0.056  14.582 -0.1229 -0.5392  0.0883
12065TIP3    H157686   6.042   0.046  14.677  0.8896  1.3752  0.3174
12065TIP3    H257687   5.947   0.067  14.561 -0.2392  0.4991  1.0631
12066TIP3   OH257688   4.344   0.541   5.987  0.0419 -0.4559  0.1951
12066TIP3    H157689   4.369   0.596   6.061  1.2611 -1.0531  0.2480
12066TIP3    H257690   4.261   0.578   5.957 -0.6643 -0.4018  2.0610
12067TIP3   OH257691   5.901   6.764  13.809  0.3046  0.5399 -0.2649
12067TIP3    H157692   5.882   6.795  13.897  2.5295 -1.0268  0.8676
12067TIP3    H257693   5.974   6.818  13.779  1.7274 -1.0020  0.2427
12068TIP3   OH257694   3.953   3.717  16.093  0.6136  0.4306  0.2611
12068TIP3    H157695   3.891   3.784  16.123  0.4605  0.2394  0.3772
12068TIP3    H257696   3.909   3.634  16.113  0.3450  0.2958 -0.8399
12069TIP3   OH257697   5.634   1.691  17.110 -0.4585  0.5317 -0.1451
12069TIP3    H157698   5.609   1.638  17.186 -0.3837  2.3432  1.2130
12069TIP3    H257699   5.583   1.772  17.119  1.7727  2.0458 -0.3191
12070TIP3   OH257700   4.978   4.777   6.623 -0.4680  0.2205  0.2741
12070TIP3    H157701   5.026   4.859   6.626  1.4029 -0.8455  1.2973
12070TIP3    H257702   5.045   4.709   6.632 -2.1577 -1.3570  1.9553
12071TIP3   OH257703   3.166   0.279   0.237 -0.0159  0.1953 -0.0030
12071TIP3    H157704   3.257   0.254   0.254 -0.2641 -1.6630 -1.1824
12071TIP3    H257705   3.147   0.344   0.305  1.1669 -1.7882  2.4190
12072TIP3   OH257706   2.338   5.248   6.139 -0.3592 -0.3408 -0.2882
12072TIP3    H157707   2.330   5.249   6.044 -0.5083 -0.3475 -0.2773
12072TIP3    H257708   2.425   5.213   6.156  0.2857  1.1101 -0.4414
12073TIP3   OH257709   0.171   2.417   4.083 -0.0592 -0.8918 -0.0875
12073TIP3    H157710   0.259   2.432   4.117  0.3316 -0.3436 -1.2887
12073TIP3    H257711   0.120   2.492   4.115  0.7364  0.6043 -2.0680
12074TIP3   OH257712   6.010   4.458  14.147  0.2176  0.0782  0.7412
12074TIP3    H157713   6.048   4.507  14.220  0.6439  0.4817  0.2583
12074TIP3    H257714   5.958   4.390  14.188 -0.4491  0.9877  1.4246
12075TIP3   OH257715   4.727   3.809   1.888 -0.4444  0.2813  0.7087
12075TIP3    H157716   4.768   3.780   1.969 -0.0245  0.9580  0.7499
12075TIP3    H257717   4.633   3.798   1.902 -0.2992 -1.5919  0.5030
12076TIP3   OH257718   1.820   6.075  16.798 -0.6196 -0.5811  0.0579
12076TIP3    H157719   1.832   5.992  16.752  0.7689 -1.3117  1.6366
12076TIP3    H257720   1.866   6.139  16.743 -1.0058 -0.9781 -0.7554
12077TIP3   OH257721   6.240   2.947   6.296  0.2524  0.2859 -0.0850
12077TIP3    H157722   6.273   2.906   6.376  1.4560 -1.6768 -1.4950
12077TIP3    H257723   6.184   3.018   6.326 -0.5629 -1.3479  2.4977
12078TIP3   OH257724   0.634   0.102   2.304  0.1595  0.0219 -0.7727
12078TIP3    H157725   0.617   0.196   2.294 -0.1201 -0.1549 -2.2849
12078TIP3    H257726   0.585   0.062   2.232  1.8870 -1.1017 -1.3870
12079TIP3   OH257727   2.675   0.328  12.308  0.6410  0.1108  0.0250
12079TIP3    H157728   2.710   0.400  12.257  1.6309 -0.6869 -0.4595
12079TIP3    H257729   2.677   0.253  12.249 -1.2484 -0.1488  0.2092
12080TIP3   OH257730   5.263   2.450  14.363  0.7439 -0.3246  0.4128
12080TIP3    H157731   5.239   2.357  14.359  0.3744 -0.2185  0.1693
12080TIP3    H257732   5.222   2.489  14.286  1.5795 -0.1132  0.0602
12081TIP3   OH257733   1.324   0.203   5.781 -0.2237 -0.0862 -1.0822
12081TIP3    H157734   1.234   0.211   5.813  0.3542  0.1820  0.6175
12081TIP3    H257735   1.323   0.128   5.723 -0.8957 -2.3043  1.5957
12082TIP3   OH257736   2.114   2.158  14.529  0.0271 -0.0103  0.1550
12082TIP3    H157737   2.095   2.202  14.446 -0.0525  1.3728  0.8673
12082TIP3    H257738   2.034   2.109  14.549  0.0683 -0.3861 -0.6082
12083TIP3   OH257739   4.704   5.500   5.276  0.3187  0.1634 -0.2487
12083TIP3    H157740   4.766   5.570   5.255  1.0365 -0.3248  0.2001
12083TIP3    H257741   4.671   5.471   5.191  0.4923  0.6260 -0.4759
12084TIP3   OH257742   2.048   2.359   3.916  0.3131 -0.1325 -0.3008
12084TIP3    H157743   2.064   2.437   3.970 -0.3987 -0.4467  0.3893
12084TIP3    H257744   2.009   2.296   3.977  1.2947 -1.1994 -0.7413
12085TIP3   OH257745   2.610   3.430   2.778 -0.4914  0.3325 -0.1170
12085TIP3    H157746   2.653   3.466   2.700 -1.7494 -0.3776 -1.1732
12085TIP3    H257747   2.575   3.507   2.824  1.7040  0.9280  0.7191
12086TIP3   OH257748   3.016   5.471   1.077 -0.1675 -0.4559  0.2691
12086TIP3    H157749   2.927   5.492   1.050 -0.4258 -0.2904  1.2006
12086TIP3    H257750   3.019   5.496   1.169  1.1463  0.4479  0.0021
12087TIP3   OH257751   4.364   4.633  17.146  0.1628  0.9084  0.3459
12087TIP3    H157752   4.293   4.691  17.120  1.3488  2.5486  0.6633
12087TIP3    H257753   4.411   4.614  17.065 -1.8543 -2.0373 -0.2965
12088TIP3   OH257754   3.965   3.117   6.443 -0.0780  0.2022  0.0262
12088TIP3    H157755   4.030   3.070   6.391 -1.6596 -0.7108 -1.2423
12088TIP3    H257756   3.945   3.059   6.515 -1.6294 -0.9474 -1.2439
12089TIP3   OH257757   5.262   3.611  12.025 -0.6884  1.0936  0.4092
12089TIP3    H157758   5.209   3.571  12.093 -1.3798  2.9231  1.0247
12089TIP3    H257759   5.261   3.549  11.952  0.3689 -1.0712  2.1420
12090TIP3   OH257760   3.376   4.802  16.780  0.5214 -0.2959  0.5299
12090TIP3    H157761   3.285   4.792  16.752 -0.1805 -0.4696  2.6937
12090TIP3    H257762   3.378   4.886  16.825  1.2484 -0.6134  1.1130
12091TIP3   OH257763   6.012   0.188   5.626 -0.0885 -0.2128  0.4492
12091TIP3    H157764   6.040   0.097   5.632  0.0266 -0.1387  1.1507
12091TIP3    H257765   5.949   0.199   5.697 -0.7846  0.0255 -0.1896
12092TIP3   OH257766   0.424   3.323   5.836 -0.1776  0.1006  0.0486
12092TIP3    H157767   0.424   3.375   5.917 -1.7895 -1.0001  0.7959
12092TIP3    H257768   0.488   3.254   5.853  1.0085  1.0434 -0.4464
12093TIP3   OH257769   3.970   0.524  12.928 -0.2139  0.8643  0.3139
12093TIP3    H157770   3.905   0.455  12.941  0.4573  0.1170 -0.1572
12093TIP3    H257771   3.988   0.556  13.017  0.9212 -0.9723  0.8124
12094TIP3   OH257772   2.915   1.236   1.632  0.4412  0.5256 -0.3623
12094TIP3    H157773   2.915   1.289   1.553  0.5947 -0.2470 -0.8977
12094TIP3    H257774   2.880   1.151   1.604 -0.7718  0.6535  0.6873
12095TIP3   OH257775   1.341   6.756  16.029  0.1333 -0.3686  0.5437
12095TIP3    H157776   1.287   6.739  16.107  1.3443 -0.2900  1.4258
12095TIP3    H257777   1.381   6.671  16.009  1.1459 -0.0175  1.0420
12096TIP3   OH257778   2.169   4.978  11.221 -0.5506  0.5384 -0.4562
12096TIP3    H157779   2.247   4.972  11.276  0.4514  1.1559 -1.7567
12096TIP3    H257780   2.099   4.941  11.274  0.6202  0.0100  0.7640
12097TIP3   OH257781   4.803   4.709  16.692 -0.3385  0.4416  0.5336
12097TIP3    H157782   4.843   4.796  16.698  0.7730  0.0586 -0.7762
12097TIP3    H257783   4.829   4.666  16.773 -0.9522  1.3285  1.2286
12098TIP3   OH257784   6.633   4.159  15.251  0.3974 -0.0442 -0.2371
12098TIP3    H157785   6.628   4.071  15.215  1.7056  0.7212 -2.4928
12098TIP3    H257786   6.549   4.173  15.293  0.2088 -2.3912  0.2977
12099TIP3   OH257787   3.413   2.027  11.064  0.4128 -0.6391  0.2981
12099TIP3    H157788   3.478   2.043  11.132 -0.3306 -0.7680  1.0644
12099TIP3    H257789   3.424   1.935  11.040  0.2012 -0.7915  0.7740
12100TIP3   OH257790   1.347   6.674   3.296 -0.2372 -0.0836 -0.2900
12100TIP3    H157791   1.442   6.682   3.307 -0.0749  0.7438 -2.0004
12100TIP3    H257792   1.325   6.738   3.229 -2.0427 -0.1656  0.1753
12101TIP3   OH257793   1.218   4.400   5.277 -0.1302 -0.5917 -0.3009
12101TIP3    H157794   1.126   4.402   5.305  0.0533 -0.3874  0.3002
12101TIP3    H257795   1.221   4.332   5.209 -0.2909 -2.2339  1.2607
12102TIP3   OH257796   3.406   0.480  10.788 -0.4407 -0.3176 -0.6567
12102TIP3    H157797   3.342   0.552  10.784  1.2368  1.2342 -0.9360
12102TIP3    H257798   3.451   0.484  10.704  1.0392 -0.3525  0.1022
12103TIP3   OH257799   4.230   6.522  11.787  0.5123  0.3598  0.1081
12103TIP3    H157800   4.197   6.453  11.845 -1.4887 -0.4710 -1.8426
12103TIP3    H257801   4.151   6.561  11.750  1.6800  1.4733 -1.3327
12104TIP3   OH257802   5.792   3.131   6.220  0.1201  0.0139 -0.1488
12104TIP3    H157803   5.718   3.147   6.279  0.2453 -2.1524  0.6741
12104TIP3    H257804   5.751   3.122   6.134 -0.3907  0.3108  0.0517
12105TIP3   OH257805   4.091   1.180   4.205  0.0550 -0.0654  0.3568
12105TIP3    H157806   4.010   1.228   4.220  0.1463  0.2167 -0.0550
12105TIP3    H257807   4.063   1.089   4.196  0.0737 -0.4200  3.1521
12106TIP3   OH257808   3.411   2.760  12.983  0.3043 -0.1371  0.3303
12106TIP3    H157809   3.396   2.692  13.049 -0.9772 -1.7604 -1.5205
12106TIP3    H257810   3.506   2.761  12.970  0.4546 -0.6547  1.2946
12107TIP3   OH257811   0.261   0.941  16.208 -0.1880  0.6602  0.1935
12107TIP3    H157812   0.192   0.962  16.271  0.4384 -0.6428  1.3902
12107TIP3    H257813   0.330   1.006  16.225  0.1373  0.0909  1.1660
12108TIP3   OH257814   4.703   4.891  16.461  0.2060  0.2670 -0.2842
12108TIP3    H157815   4.733   4.816  16.513  1.7295 -0.0575 -1.5651
12108TIP3    H257816   4.779   4.916  16.408 -1.4233  0.0926 -2.9105
12109TIP3   OH257817   4.213   2.785   5.937  0.5346  0.4439 -0.1208
12109TIP3    H157818   4.203   2.761   6.029 -0.1684 -1.6879 -0.6745
12109TIP3    H257819   4.144   2.848   5.920 -0.0174  0.0305  0.5666
12110TIP3   OH257820   1.220   6.581   3.708 -0.4733  0.0622  0.1819
12110TIP3    H157821   1.227   6.494   3.747 -1.3667 -0.7396 -1.3252
12110TIP3    H257822   1.306   6.621   3.720 -0.1289 -0.9313  1.1228
12111TIP3   OH257823   3.289   4.267  14.031 -0.4999 -0.2715  0.1231
12111TIP3    H157824   3.305   4.342  13.973 -0.7493 -0.3314 -0.0252
12111TIP3    H257825   3.374   4.250  14.072 -0.7342  0.9293  1.1733
12112TIP3   OH257826   5.702   1.149  12.448  0.3620  0.4603  0.2161
12112TIP3    H157827   5.667   1.204  12.517 -0.7975  0.3522 -0.2522
12112TIP3    H257828   5.746   1.077  12.494  1.8549  1.7152  0.8259
12113TIP3   OH257829   6.656   1.879  11.025 -0.0585  0.3382  0.1495
12113TIP3    H157830   6.571   1.894  10.984  0.8450  1.1185 -1.5312
12113TIP3    H257831   6.639   1.810  11.089 -1.9099  0.3397 -0.2732
12114TIP3   OH257832   0.728   3.684  15.532  0.7480  0.0391  0.1525
12114TIP3    H157833   0.792   3.673  15.461  0.1034  0.4874 -0.5131
12114TIP3    H257834   0.684   3.599  15.538  1.9321 -0.5319  1.1614
12115TIP3   OH257835   2.796   4.005  11.484  0.0001  0.7968  0.2624
12115TIP3    H157836   2.768   4.008  11.575 -1.2814  0.3285 -0.0862
12115TIP3    H257837   2.715   4.018  11.434  0.3150 -0.9839 -0.8128
12116TIP3   OH257838   3.375   1.963   1.513 -0.1341 -0.5088  0.3867
12116TIP3    H157839   3.311   2.016   1.466  0.4022 -0.5600 -0.4249
12116TIP3    H257840   3.329   1.932   1.590 -1.3882 -1.3055 -0.6411
12117TIP3   OH257841   3.243   0.832  14.259 -0.2754 -0.1333 -1.1412
12117TIP3    H157842   3.259   0.925  14.276 -1.7536 -0.0249 -0.1521
12117TIP3    H257843   3.313   0.787  14.304 -0.9315  0.4286  0.5135
12118TIP3   OH257844   1.439   0.318  14.750 -0.4046  0.2530  0.4787
12118TIP3    H157845   1.531   0.311  14.775  0.1766  1.2826 -1.2256
12118TIP3    H257846   1.405   0.229  14.761  1.3519 -0.6378 -0.8431
12119TIP3   OH257847   6.636   4.207  17.029  0.1880 -0.0620  0.1222
12119TIP3    H157848   6.674   4.159  16.956 -1.8778  0.0817 -1.1502
12119TIP3    H257849   6.573   4.146  17.068  0.1535  0.3908  0.7958
12120TIP3   OH257850   3.262   3.006   4.274  0.3600 -0.1442  0.1319
12120TIP3    H157851   3.350   2.993   4.308  0.8385 -1.0457 -1.3350
12120TIP3    H257852   3.267   2.977   4.183 -1.2656  0.5226 -0.2125
12121TIP3   OH257853   0.150   3.599   4.819  0.7201 -0.1920 -0.3311
12121TIP3    H157854   0.068   3.595   4.868  0.1447  1.8620 -0.9986
12121TIP3    H257855   0.205   3.533   4.859  0.1744  1.1125  2.8948
12122TIP3   OH257856   3.581   6.106   6.065 -0.7891  0.9133  0.0499
12122TIP3    H157857   3.507   6.077   6.013 -1.3240 -0.0653  1.2862
12122TIP3    H257858   3.638   6.029   6.070 -1.6497  0.3369  2.3901
12123TIP3   OH257859   3.011   3.735  12.425 -0.1997  0.3951  0.0681
12123TIP3    H157860   2.959   3.679  12.367  0.5034  1.0326 -1.2143
12123TIP3    H257861   3.102   3.709  12.408  0.0496  1.0070  0.4432
12124TIP3   OH257862   0.732   4.139  16.377  0.2048 -0.3750  0.2399
12124TIP3    H157863   0.686   4.153  16.294  1.1786 -1.8166 -0.5980
12124TIP3    H257864   0.696   4.057  16.411  0.5896 -0.3664  0.6747
12125TIP3   OH257865   4.968   5.652  10.636  0.3514  0.2625 -0.8884
12125TIP3    H157866   4.894   5.622  10.584  1.5815 -1.6728 -1.6329
12125TIP3    H257867   5.020   5.706  10.576 -0.2404  1.3666 -0.4523
12126TIP3   OH257868   3.922   1.439  12.683 -0.7186  0.0893  0.0080
12126TIP3    H157869   3.888   1.363  12.728  1.6142 -0.1062  1.6069
12126TIP3    H257870   3.875   1.513  12.721 -0.3568 -0.2660  1.1843
12127TIP3   OH257871   4.926   5.534  14.443 -0.3695 -0.3540  0.1715
12127TIP3    H157872   4.970   5.553  14.525 -1.2290 -1.0410  0.8079
12127TIP3    H257873   4.843   5.582  14.449 -0.4056 -0.3456 -0.3288
12128TIP3   OH257874   6.746   1.593  14.276  0.2582 -0.1003 -0.5403
12128TIP3    H157875   6.807   1.609  14.348 -1.5548 -1.7809  1.5448
12128TIP3    H257876   6.779   1.514  14.234 -0.7713 -1.4731  1.0873
12129TIP3   OH257877   1.429   1.097  13.969  0.1099 -0.9612 -0.0509
12129TIP3    H157878   1.512   1.110  14.015 -0.3626 -0.7655  0.7654
12129TIP3    H257879   1.454   1.084  13.877  0.9912 -0.0994  0.0540
12130TIP3   OH257880   5.776   4.126  15.050 -0.6622  0.0844 -0.7440
12130TIP3    H157881   5.708   4.088  14.995 -3.1057  0.9450  1.4402
12130TIP3    H257882   5.728   4.176  15.116  2.1208  0.6886  1.0045
12131TIP3   OH257883   6.761   0.861  16.238  0.3132 -0.0924  0.2092
12131TIP3    H157884   6.819   0.858  16.314  2.9005 -1.8619 -1.6305
12131TIP3    H257885   6.791   0.789  16.183 -1.9309  0.6284 -2.1539
12132TIP3   OH257886   2.485   0.484   2.846 -0.2855  0.7123 -0.1159
12132TIP3    H157887   2.464   0.500   2.937  1.2116  0.8496  0.2368
12132TIP3    H257888   2.422   0.537   2.797 -1.3319  0.3521  0.8109
12133TIP3   OH257889   0.222   5.153  15.608 -0.6245  0.0405  0.0001
12133TIP3    H157890   0.151   5.114  15.558 -0.4490  0.6453 -0.7462
12133TIP3    H257891   0.227   5.101  15.689 -2.0390  0.1239  0.1551
12134TIP3   OH257892   0.939   4.008  16.961  0.0235  0.9731  0.1865
12134TIP3    H157893   1.033   4.028  16.954 -0.0950  1.3230 -0.5522
12134TIP3    H257894   0.896   4.082  16.918 -0.5533  0.4368 -0.1661
12135TIP3   OH257895   1.659   1.076  14.544  0.2814  0.0105 -0.0505
12135TIP3    H157896   1.664   0.980  14.550 -0.1353 -0.0244 -0.1961
12135TIP3    H257897   1.565   1.095  14.546  0.3448  0.3830 -0.4779
12136TIP3   OH257898   4.215   4.369  14.227 -0.1760  0.2508 -0.1152
12136TIP3    H157899   4.251   4.454  14.253 -0.4378 -0.0392  1.3027
12136TIP3    H257900   4.292   4.316  14.207 -0.0213  0.8971 -1.3295
12137TIP3   OH257901   1.992   5.086   5.539  0.2598 -0.0204 -0.1991
12137TIP3    H157902   1.902   5.059   5.521  0.2365 -0.2227  0.2111
12137TIP3    H257903   2.003   5.168   5.491  0.0328 -0.2778 -0.6929
12138TIP3   OH257904   1.657   3.387   5.703  0.0095  0.2886 -0.5508
12138TIP3    H157905   1.670   3.481   5.716  2.5584 -0.0478 -0.0226
12138TIP3    H257906   1.583   3.365   5.760  1.0367  1.5732  1.3939
12139TIP3   OH257907   2.351   4.306  15.364  0.1521 -0.1118 -0.1688
12139TIP3    H157908   2.399   4.363  15.425 -0.6528  0.1537  0.2309
12139TIP3    H257909   2.349   4.221  15.408  0.1779 -0.0973 -0.1389
12140TIP3   OH257910   6.476   3.076  17.180 -0.3580 -0.2646 -0.0749
12140TIP3    H157911   6.510   3.158  17.218  0.4296 -1.1612  1.2491
12140TIP3    H257912   6.395   3.102  17.136 -0.4944  1.1237  0.9022
12141TIP3   OH257913   1.102   4.149   0.794 -0.1936 -0.0219 -0.2325
12141TIP3    H157914   1.161   4.164   0.720  1.0280 -2.4090  0.1583
12141TIP3    H257915   1.092   4.235   0.834  2.1942  0.6804 -0.9376
12142TIP3   OH257916   3.770   1.045   3.285  0.5948 -0.5744 -0.6827
12142TIP3    H157917   3.823   0.974   3.248  0.7958 -0.2349 -1.0529
12142TIP3    H257918   3.680   1.014   3.277  0.7783 -1.7412  1.1743
12143TIP3   OH257919   1.782   2.089  16.037 -0.1336  0.1439  0.0029
12143TIP3    H157920   1.764   2.100  15.944  0.7258 -0.6844 -0.2761
12143TIP3    H257921   1.698   2.063  16.075 -0.1518 -1.0650 -0.8111
12144TIP3   OH257922   3.182   5.036  14.100  0.1607 -0.4900 -0.4367
12144TIP3    H157923   3.196   4.978  14.026 -1.1364 -1.5098  0.0777
12144TIP3    H257924   3.127   5.106  14.066  1.9700  0.6800 -1.1350
12145TIP3   OH257925   1.773   2.466  14.713 -0.1140 -0.0296  0.3804
12145TIP3    H157926   1.822   2.414  14.777  0.3929  1.4190  1.2251
12145TIP3    H257927   1.693   2.416  14.698  0.7442 -1.4804  0.4582
12146TIP3   OH257928   1.098   6.797  13.992 -0.0836  0.1986  0.1482
12146TIP3    H157929   1.192   6.785  13.984 -0.2935 -1.6367 -0.0232
12146TIP3    H257930   1.066   6.799  13.902 -0.3152 -0.4269  0.2074
12147TIP3   OH257931   2.349   5.238   5.879 -0.2128 -0.2066  0.3453
12147TIP3    H157932   2.269   5.191   5.852  1.4354 -2.7128 -0.5311
12147TIP3    H257933   2.386   5.271   5.798  0.0744  0.2303  0.6491
12148TIP3   OH257934   1.964   0.812  15.102  0.3173 -0.9787 -0.7828
12148TIP3    H157935   1.876   0.776  15.100 -0.3387  0.4976  0.1817
12148TIP3    H257936   1.955   0.899  15.064  0.6535  0.5438  2.3312
12149TIP3   OH257937   6.215   4.948   0.114 -0.2955  0.5839  0.2311
12149TIP3    H157938   6.225   4.855   0.093 -0.2119  0.6807 -0.1765
12149TIP3    H257939   6.206   4.950   0.209  3.6186  0.4309  0.7651
12150TIP3   OH257940   2.227   3.956  12.900  0.5931 -0.2088 -0.3088
12150TIP3    H157941   2.142   3.974  12.940  0.6831  0.8562 -0.5643
12150TIP3    H257942   2.244   3.864  12.920 -1.0328 -0.7071 -1.0378
12151TIP3   OH257943   5.918   5.260   6.349 -0.4608  0.3909  0.3509
12151TIP3    H157944   5.938   5.245   6.257  0.4872  0.7529  0.4867
12151TIP3    H257945   5.825   5.237   6.358 -0.4228 -0.1642 -0.5729
12152TIP3   OH257946   3.394   3.305   1.880  0.0210 -0.1888  0.2638
12152TIP3    H157947   3.373   3.394   1.910 -0.7961  0.0169 -0.8178
12152TIP3    H257948   3.308   3.262   1.874  0.5302 -1.8401  2.9451
12153TIP3   OH257949   4.932   4.131   6.203 -0.3230  0.0396  0.1722
12153TIP3    H157950   4.944   4.135   6.108 -0.5129 -0.8765  0.0944
12153TIP3    H257951   5.002   4.186   6.239  0.2414 -0.2359 -0.4789
12154TIP3   OH257952   4.520   3.375   5.862  0.2785 -0.2211 -0.0717
12154TIP3    H157953   4.595   3.317   5.852 -1.2888 -2.6303  1.1997
12154TIP3    H257954   4.478   3.375   5.775  1.8404  1.4132 -0.8849
12155TIP3   OH257955   1.690   2.687  11.749 -0.4993  0.2703  0.3018
12155TIP3    H157956   1.735   2.662  11.669 -1.4377 -1.3397  0.2337
12155TIP3    H257957   1.685   2.783  11.745 -0.1552  0.2473 -1.3507
12156TIP3   OH257958   1.530   4.211  15.964 -0.0469  0.3686 -0.4239
12156TIP3    H157959   1.457   4.223  15.903 -2.0134  1.4807  1.9628
12156TIP3    H257960   1.576   4.295  15.964  1.4371 -0.3923 -2.0702
12157TIP3   OH257961   6.751   3.280   3.288 -0.1916 -0.3326 -0.2102
12157TIP3    H157962   6.753   3.300   3.195 -0.6950 -0.2340 -0.2016
12157TIP3    H257963   6.790   3.192   3.295 -0.4238 -0.4602 -0.5439
12158TIP3   OH257964   6.125   3.790   2.243  0.0660 -0.1334  0.1936
12158TIP3    H157965   6.046   3.833   2.276 -0.5727 -1.9777  1.1619
12158TIP3    H257966   6.180   3.863   2.213 -0.8198  1.3989  2.0454
12159TIP3   OH257967   4.392   0.891   2.852 -0.3027 -0.2936  0.2999
12159TIP3    H157968   4.452   0.881   2.777 -0.8318 -2.4656  0.1156
12159TIP3    H257969   4.445   0.935   2.918  0.6142  0.4137 -0.8465
12160TIP3   OH257970   1.888   3.788  13.942  0.5605 -0.2682 -0.4259
12160TIP3    H157971   1.864   3.697  13.926  0.6913 -0.0448 -2.0001
12160TIP3    H257972   1.968   3.802  13.891  0.4824  0.7603 -0.2939
12161TIP3   OH257973   3.113   0.897  11.977 -0.3632 -0.3062  0.2497
12161TIP3    H157974   3.034   0.935  11.937  0.1167  1.7568  1.1332
12161TIP3    H257975   3.081   0.852  12.056 -0.6080  1.3456  1.1372
12162TIP3   OH257976   2.062   5.472   2.779  0.1469  0.8263  0.2562
12162TIP3    H157977   2.013   5.543   2.736  0.1816 -0.0695 -1.3189
12162TIP3    H257978   2.060   5.495   2.872 -2.0254  1.5826  0.0770
12163TIP3   OH257979   3.751   0.397   4.167 -0.0982  0.5118  0.0231
12163TIP3    H157980   3.759   0.369   4.075  0.1051  0.1112  0.1599
12163TIP3    H257981   3.659   0.422   4.177 -0.3156 -0.2383 -0.0693
12164TIP3   OH257982   3.021   1.988   5.568 -0.2870  0.3749 -0.0708
12164TIP3    H157983   3.077   1.962   5.494 -0.6477  1.0641 -0.5949
12164TIP3    H257984   2.996   1.905   5.609 -0.5785 -0.0558 -1.0912
12165TIP3   OH257985   6.484   3.087  12.859 -0.8722  0.6526 -0.5361
12165TIP3    H157986   6.388   3.096  12.854 -1.0832  0.1806  1.6469
12165TIP3    H257987   6.517   3.177  12.859 -1.4076  0.8540  0.0003
12166TIP3   OH257988   0.526   1.912   0.736 -0.0744 -0.1274  0.1959
12166TIP3    H157989   0.464   1.980   0.764 -0.5183 -0.8324  0.9954
12166TIP3    H257990   0.508   1.900   0.643  0.8084  1.6467 -0.2536
12167TIP3   OH257991   2.758   2.990  15.060  0.1717  0.3301 -0.4930
12167TIP3    H157992   2.704   2.921  15.022  0.7680  0.0812 -0.9082
12167TIP3    H257993   2.716   3.072  15.033 -1.6898  0.1792  1.6565
12168TIP3   OH257994   3.389   4.696   5.939  0.2634  0.2721  0.0645
12168TIP3    H157995   3.373   4.674   6.030 -0.5092  1.8503  0.3428
12168TIP3    H257996   3.399   4.611   5.895  0.2341 -0.5158  1.5239
12169TIP3   OH257997   4.287   2.709   0.759 -0.3884  0.5826  0.4049
12169TIP3    H157998   4.346   2.751   0.822 -1.1675  2.6112 -0.1438
12169TIP3    H257999   4.208   2.762   0.762 -1.0988 -0.3619 -0.9990
12170TIP3   OH258000   1.077   0.034   4.293 -0.2836 -0.3562 -0.8654
12170TIP3    H158001   1.015  -0.021   4.341 -0.2724  1.3539  1.2130
12170TIP3    H258002   1.154   0.040   4.350 -0.1808  1.5639 -1.1356
12171TIP3   OH258003   5.279   2.029   3.507 -0.1505 -0.0521 -0.1724
12171TIP3    H158004   5.212   1.966   3.481 -1.8669  1.1141  1.2453
12171TIP3    H258005   5.335   1.980   3.567 -1.6309 -0.2019  1.1313
12172TIP3   OH258006   2.682   3.554   2.518  0.4289 -0.5816 -0.0864
12172TIP3    H158007   2.759   3.500   2.502  0.2514 -0.6413 -0.7935
12172TIP3    H258008   2.715   3.644   2.514  0.3648 -0.5858 -1.0381
12173TIP3   OH258009   4.111   0.825   0.148  0.7639 -0.4246  0.6483
12173TIP3    H158010   4.048   0.839   0.078  1.5894 -0.7186 -0.1687
12173TIP3    H258011   4.134   0.732   0.141  2.2666 -0.0308  0.0789
12174TIP3   OH258012   5.635   0.942   5.272 -0.0866 -0.3522  0.4517
12174TIP3    H158013   5.586   1.024   5.283 -1.9044 -1.1190 -1.3078
12174TIP3    H258014   5.618   0.893   5.353 -0.1979  0.3796  0.8863
12175TIP3   OH258015   4.263   4.074  16.769  0.5388  0.1237 -0.4703
12175TIP3    H158016   4.274   4.136  16.841 -0.9284 -0.3334  0.1805
12175TIP3    H258017   4.298   3.992  16.803  1.0511  0.2117 -0.7697
12176TIP3   OH258018   3.658   3.241   1.092 -0.4842  0.0513 -0.1617
12176TIP3    H158019   3.632   3.329   1.120  1.3294  0.6065 -0.0742
12176TIP3    H258020   3.592   3.217   1.027 -1.5722  1.0607  0.5195
12177TIP3   OH258021   6.507   2.161   4.655  0.1512  0.2169  0.0875
12177TIP3    H158022   6.431   2.104   4.641  0.4347 -0.0677 -0.2985
12177TIP3    H258023   6.549   2.126   4.733  0.8146 -0.6486 -0.6365
12178TIP3   OH258024   3.608   0.199   3.109  0.4783 -0.1543 -0.3647
12178TIP3    H158025   3.679   0.231   3.164  0.9899 -0.6728 -0.7084
12178TIP3    H258026   3.533   0.190   3.168  0.1120  2.2613 -0.3690
12179TIP3   OH258027   2.096   3.974  11.965 -0.2307  0.1400  0.1640
12179TIP3    H158028   2.032   4.004  11.901 -1.3863 -1.4741  0.5021
12179TIP3    H258029   2.147   3.908  11.919  1.3132  1.4897 -0.1339
12180TIP3   OH258030   0.165   5.512   4.433  0.3221  0.3876 -0.3080
12180TIP3    H158031   0.124   5.446   4.377  1.1199 -1.4497  1.1170
12180TIP3    H258032   0.170   5.591   4.380 -0.7104 -0.7091 -2.1038
12181TIP3   OH258033   3.826   2.750   0.363 -0.0915 -0.4832  0.2429
12181TIP3    H158034   3.884   2.687   0.319 -1.6425 -1.0006 -1.1950
12181TIP3    H258035   3.791   2.804   0.292  0.3315  1.3162  1.3322
12182TIP3   OH258036   0.474   2.780   0.184  0.8253  0.0354  0.3104
12182TIP3    H158037   0.504   2.722   0.114  1.5551 -2.5894  2.6170
12182TIP3    H258038   0.511   2.866   0.162  0.3566 -0.4463 -2.8560
12183TIP3   OH258039   4.275   1.486   0.237  0.0239 -0.2585  0.4795
12183TIP3    H158040   4.253   1.409   0.290 -1.3027  0.8248  1.5651
12183TIP3    H258041   4.345   1.529   0.284  1.4255 -1.2379 -0.6085
12184TIP3   OH258042   6.120   6.756  16.064 -0.3929  0.3739 -0.3279
12184TIP3    H158043   6.138   6.709  16.146 -0.0658  1.3998  0.2058
12184TIP3    H258044   6.034   6.723  16.037 -0.3406 -0.2555  0.2256
12185TIP3   OH258045   3.240   6.175  12.993 -0.1594 -0.3859  0.2391
12185TIP3    H158046   3.232   6.256  13.042  0.1502 -0.1817 -0.0420
12185TIP3    H258047   3.332   6.173  12.965 -0.1653 -0.8260  0.2342
12186TIP3   OH258048   2.751   3.597   5.357  0.4795 -0.1856 -0.0410
12186TIP3    H158049   2.674   3.626   5.308  0.9219  1.4436  0.1925
12186TIP3    H258050   2.825   3.620   5.302  0.8469 -1.5889 -0.1861
12187TIP3   OH258051   0.712   0.949  14.688  0.0204 -0.0519  0.5749
12187TIP3    H158052   0.740   1.039  14.700  0.1266  0.1494 -0.9069
12187TIP3    H258053   0.793   0.898  14.683 -0.0314 -0.1931  1.1410
12188TIP3   OH258054   0.257   0.721   2.652  0.5358  0.0495  0.2479
12188TIP3    H158055   0.241   0.652   2.717  0.4598 -0.3809 -0.2188
12188TIP3    H258056   0.244   0.803   2.700 -0.6987 -0.2618  0.4844
12189TIP3   OH258057   2.005   1.172   3.661 -0.2207  0.0401  0.8409
12189TIP3    H158058   1.919   1.207   3.638 -0.6184 -1.2711  0.2869
12189TIP3    H258059   2.063   1.203   3.591  0.0208  1.8081  1.7585
12190TIP3   OH258060   1.624   1.649  13.643 -0.0904  0.3741 -0.4021
12190TIP3    H158061   1.572   1.634  13.722 -0.3882  1.4114 -0.3912
12190TIP3    H258062   1.651   1.561  13.616 -0.3553 -0.0359  0.5961
12191TIP3   OH258063   2.591   3.728   4.511 -0.1176  0.6671  0.1150
12191TIP3    H158064   2.505   3.768   4.523 -0.1392  1.2579 -1.6482
12191TIP3    H258065   2.573   3.651   4.457  0.4574  0.8793 -0.3897
12192TIP3   OH258066   0.542   4.812   3.257 -0.0659  0.2176  0.1117
12192TIP3    H158067   0.479   4.775   3.319  0.1654 -0.4005 -0.0106
12192TIP3    H258068   0.570   4.737   3.204 -0.4733  0.7869 -0.9334
12193TIP3   OH258069   2.787   5.293  12.882 -1.0016  0.7034 -0.5803
12193TIP3    H158070   2.871   5.249  12.895 -2.1304 -0.9453  1.9115
12193TIP3    H258071   2.805   5.384  12.909 -0.0363  0.3300  0.1432
12194TIP3   OH258072   0.077   0.546   3.504  0.0396  0.3330 -0.1167
12194TIP3    H158073   0.028   0.595   3.438 -2.5540 -1.4406  0.3386
12194TIP3    H258074   0.012   0.486   3.542  2.1507 -0.7801  1.9625
12195TIP3   OH258075   5.623   5.530   0.571 -0.3062 -0.2794  0.4895
12195TIP3    H158076   5.694   5.500   0.515  0.3300  0.5195  0.8409
12195TIP3    H258077   5.555   5.560   0.511 -0.6483 -1.6759  0.1419
12196TIP3   OH258078   6.586   2.153   5.370 -0.1746  1.3539  0.3594
12196TIP3    H158079   6.517   2.153   5.304 -0.6161  2.1735  0.8084
12196TIP3    H258080   6.540   2.154   5.453  0.3715 -0.6271  0.7332
12197TIP3   OH258081   5.640   2.294   1.198 -0.2525  0.0309  0.5970
12197TIP3    H158082   5.733   2.317   1.199  0.1178 -1.3470 -0.2472
12197TIP3    H258083   5.599   2.361   1.254  0.9737  1.7102 -0.3975
12198TIP3   OH258084   1.536   1.399   0.184  0.0659  0.4461  0.3580
12198TIP3    H158085   1.529   1.304   0.174 -0.6724  0.3800  1.3628
12198TIP3    H258086   1.624   1.413   0.219  1.0562  0.3502 -1.9254
12199TIP3   OH258087   4.688   3.108  12.884  0.7119 -0.0689  0.4020
12199TIP3    H158088   4.650   3.187  12.922  0.8635  0.2268 -0.0550
12199TIP3    H258089   4.776   3.104  12.922  0.3381 -0.6100  1.2547
12200TIP3   OH258090   0.224   0.264   1.080  0.6181  0.1573  0.5642
12200TIP3    H158091   0.176   0.343   1.056  1.1196  0.7024  1.3179
12200TIP3    H258092   0.261   0.283   1.167 -0.7857 -1.5979  1.6036
12201TIP3   OH258093   0.622   6.083  12.778  0.4893 -0.8145  0.3718
12201TIP3    H158094   0.669   6.096  12.695 -0.5540  0.2308 -0.0765
12201TIP3    H258095   0.658   6.002  12.813  0.9737 -1.2633 -1.0955
12202TIP3   OH258096   0.276   0.811  11.609 -0.2564  0.1144 -0.0726
12202TIP3    H158097   0.313   0.841  11.526 -1.2492 -0.8026 -0.8692
12202TIP3    H258098   0.185   0.841  11.607 -0.3326 -0.0509  0.6192
12203TIP3   OH258099   5.997   4.048   5.362 -0.3994 -0.6201 -0.2116
12203TIP3    H158100   5.980   4.119   5.301 -1.2747 -1.3594 -0.8670
12203TIP3    H258101   5.936   4.063   5.435 -0.1976 -0.3925 -0.0922
12204TIP3   OH258102   3.524   4.712   5.452 -0.2723 -0.1618 -0.1799
12204TIP3    H158103   3.521   4.802   5.485 -0.9722 -0.3889  0.4234
12204TIP3    H258104   3.617   4.692   5.444 -0.1112  0.7696 -0.7715
12205TIP3   OH258105   2.606   5.556  12.374  0.2136  0.5335  0.4256
12205TIP3    H158106   2.613   5.644  12.336 -0.7806  0.9821  1.2384
12205TIP3    H258107   2.513   5.536  12.373  0.1644  0.4629  2.3324
12206TIP3   OH258108   6.068   0.981   5.140 -0.1216 -0.6370 -0.2625
12206TIP3    H158109   6.018   1.000   5.060 -2.0985 -1.6129  0.6753
12206TIP3    H258110   6.028   1.038   5.207  1.4656  0.1203  0.0749
12207TIP3   OH258111   6.066   3.389   6.171  0.1611 -0.5192 -0.3408
12207TIP3    H158112   6.059   3.465   6.228 -1.2363 -0.5235 -0.4772
12207TIP3    H258113   6.054   3.314   6.229 -0.1727 -0.5643 -0.4649
12208TIP3   OH258114   4.972   4.045   0.331 -0.4545 -0.0290  0.0167
12208TIP3    H158115   5.015   4.033   0.247  0.8224 -0.5555  0.7047
12208TIP3    H258116   4.998   4.133   0.359 -1.6530  0.5188 -0.5496
12209TIP3   OH258117   4.659   1.559  11.425 -0.0552 -0.3851  0.1399
12209TIP3    H158118   4.707   1.490  11.471  0.1278  0.7369  1.6869
12209TIP3    H258119   4.617   1.610  11.494 -1.2589  0.2936 -1.0472
12210TIP3   OH258120   0.832   5.113   5.867  0.1850  0.6658 -0.1850
12210TIP3    H158121   0.819   5.027   5.827 -0.6456  0.8000 -0.2203
12210TIP3    H258122   0.745   5.153   5.866  0.8683  2.2259 -1.8004
12211TIP3   OH258123   5.420   2.730   0.608 -0.4613 -0.1014  0.2221
12211TIP3    H158124   5.412   2.661   0.674 -3.7093  0.3699  0.4805
12211TIP3    H258125   5.423   2.683   0.524  3.8187 -0.7089  0.5116
12212TIP3   OH258126   2.996   0.174  15.687  0.1886  0.0869  0.2625
12212TIP3    H158127   3.092   0.179  15.689  0.1277  0.9029  1.4813
12212TIP3    H258128   2.978   0.081  15.673  1.1569 -0.0217 -0.3601
12213TIP3   OH258129   2.635   0.550  13.590  0.2107  0.3710 -0.4875
12213TIP3    H158130   2.730   0.544  13.585  0.1409 -0.9049 -0.8980
12213TIP3    H258131   2.611   0.500  13.668 -0.1372  0.2991 -0.6340
12214TIP3   OH258132   3.917   4.443   2.145 -0.0882 -0.1585 -0.6415
12214TIP3    H158133   3.836   4.490   2.126 -1.1157 -1.2683  0.7668
12214TIP3    H258134   3.964   4.500   2.207 -0.8113 -0.4682  0.2076
12215TIP3   OH258135   5.500   2.705  12.292  0.4319  0.1626 -0.1124
12215TIP3    H158136   5.436   2.665  12.233  0.9304 -0.9263  0.0616
12215TIP3    H258137   5.533   2.781  12.243 -0.4489  0.3172 -0.4943
12216TIP3   OH258138   6.133   3.895   6.352  0.4910  0.3954  0.4425
12216TIP3    H158139   6.069   3.938   6.295 -0.6254 -1.1906  0.4516
12216TIP3    H258140   6.209   3.954   6.351  0.3551  0.6337 -2.3343
12217TIP3   OH258141   0.920   3.728   3.168 -0.5954  0.7047  0.4066
12217TIP3    H158142   0.947   3.734   3.259  0.6384 -0.2959  0.1381
12217TIP3    H258143   0.972   3.795   3.123 -0.2485  0.3359  0.2499
12218TIP3   OH258144   6.668   3.678  13.229  0.2252 -0.1974 -0.4741
12218TIP3    H158145   6.657   3.633  13.313 -0.5535  0.4010 -0.2430
12218TIP3    H258146   6.723   3.753  13.250  1.3876 -0.9203 -0.8278
12219TIP3   OH258147   4.101   6.683   1.011  0.2325 -0.5277  0.6368
12219TIP3    H158148   4.011   6.675   1.042 -0.5090  2.2179 -0.4869
12219TIP3    H258149   4.141   6.746   1.071  1.2836 -1.3150  0.7928
12220TIP3   OH258150   6.366   6.093  12.086  0.3908  1.0095 -0.2758
12220TIP3    H158151   6.389   6.144  12.164  0.0894  0.2342  0.3302
12220TIP3    H258152   6.450   6.060  12.053  0.3858 -0.0941  0.7359
12221TIP3   OH258153   3.470   1.495  16.952  0.4854  0.0238 -0.0334
12221TIP3    H158154   3.391   1.479  16.900  1.6452 -0.3439 -1.7561
12221TIP3    H258155   3.537   1.521  16.888  1.4914  1.4560  1.5023
12222TIP3   OH258156   3.268   1.113   3.735  0.1416 -0.5242  0.4916
12222TIP3    H158157   3.353   1.075   3.761  0.9334  0.9550  0.1750
12222TIP3    H258158   3.254   1.079   3.647 -0.1828 -1.6978  0.9731
12223TIP3   OH258159   3.145   4.899  11.006 -0.5721 -0.5328 -0.5180
12223TIP3    H158160   3.139   4.928  10.915 -2.3505  3.7549  0.7413
12223TIP3    H258161   3.232   4.927  11.035 -0.0550 -1.7858 -0.7579
12224TIP3   OH258162   1.166   4.096  12.089 -0.7383 -0.1966 -0.2191
12224TIP3    H158163   1.229   4.167  12.074 -1.7327  0.9220  0.6819
12224TIP3    H258164   1.212   4.037  12.149 -0.6087  0.7706  0.6881
12225TIP3   OH258165   2.380   3.443  16.532 -0.3580 -0.0580  0.5448
12225TIP3    H158166   2.316   3.416  16.598 -0.6799  0.5626  0.4971
12225TIP3    H258167   2.340   3.519  16.490  1.1821  1.5335  1.7952
12226TIP3   OH258168   5.450   1.884   1.425 -0.3949  0.2061 -0.2926
12226TIP3    H158169   5.452   1.912   1.333 -1.4643  2.5452  0.3242
12226TIP3    H258170   5.538   1.902   1.457  0.5116 -2.2079 -1.2202
12227TIP3   OH258171   1.596   1.258   5.927 -0.3137  0.2690  0.0786
12227TIP3    H158172   1.605   1.169   5.895  1.7384 -0.2753  1.9016
12227TIP3    H258173   1.560   1.249   6.015  3.7011  0.7656  1.9806
12228TIP3   OH258174   3.615   6.371  14.029  0.4602 -0.2633  0.1802
12228TIP3    H158175   3.585   6.459  14.054 -0.8858 -0.7167  0.2397
12228TIP3    H258176   3.650   6.381  13.940 -2.5864 -0.2148 -1.1124
12229TIP3   OH258177   6.183   1.202  15.206  0.6249 -0.0435 -0.3200
12229TIP3    H158178   6.175   1.182  15.299  1.1064 -1.5933 -0.5788
12229TIP3    H258179   6.111   1.263  15.188  1.3289  1.3212  1.3117
12230TIP3   OH258180   1.380   2.482   0.706  0.4491 -0.4191 -0.1677
12230TIP3    H158181   1.404   2.443   0.790  0.1758 -1.4860 -0.5647
12230TIP3    H258182   1.460   2.479   0.654  0.8445  1.0143  0.3135
12231TIP3   OH258183   5.471   6.550  14.264 -0.0384  0.0082  0.3649
12231TIP3    H158184   5.515   6.620  14.312 -0.7435 -0.1403  1.2749
12231TIP3    H258185   5.378   6.569  14.275 -0.2827 -1.6000  1.5306
12232TIP3   OH258186   3.812   2.869   3.903  0.1516 -0.1759 -0.5255
12232TIP3    H158187   3.764   2.846   3.823  0.1002  0.2219 -0.6102
12232TIP3    H258188   3.764   2.942   3.940 -1.9948 -2.5376  1.8187
12233TIP3   OH258189   4.122   0.398   5.772  0.3443 -0.4075 -0.5000
12233TIP3    H158190   4.156   0.412   5.684  1.7751  0.7365  0.1876
12233TIP3    H258191   4.136   0.304   5.788  2.2504 -0.2013 -0.6706
12234TIP3   OH258192   1.002   2.526  10.826 -0.9142 -0.3501  0.0012
12234TIP3    H158193   1.057   2.493  10.897 -0.9585 -0.7010 -0.1238
12234TIP3    H258194   1.061   2.534  10.751 -0.7439  0.5653  0.2261
12235TIP3   OH258195   3.407   1.500  14.861  0.2941  0.3621 -0.4942
12235TIP3    H158196   3.388   1.422  14.913  2.1999  0.5153  0.5110
12235TIP3    H258197   3.442   1.466  14.779  0.3951  0.1567 -0.3654
12236TIP3   OH258198   1.548   4.330  16.258 -0.5387 -0.3271  0.4433
12236TIP3    H158199   1.564   4.278  16.179  0.7094 -0.6512  0.8856
12236TIP3    H258200   1.518   4.414  16.225  0.2229 -0.3685 -0.4121
12237TIP3   OH258201   2.371   5.839   5.707  0.1585 -0.0641 -0.0394
12237TIP3    H158202   2.397   5.823   5.798  0.9477 -1.0362 -0.4157
12237TIP3    H258203   2.288   5.790   5.698 -0.4200  0.8119  0.4069
12238TIP3   OH258204   4.216   6.393   4.239  0.3997  0.1425 -0.2664
12238TIP3    H158205   4.151   6.326   4.221 -1.4572  1.8679 -0.3079
12238TIP3    H258206   4.295   6.344   4.264  0.2817 -2.1236 -3.7382
12239TIP3   OH258207   6.474   2.625  13.895 -0.2141 -0.2856 -0.3860
12239TIP3    H158208   6.559   2.665  13.876  0.0062 -0.8749 -0.6634
12239TIP3    H258209   6.414   2.664  13.832 -0.1141 -0.0009 -0.3077
12240TIP3   OH258210   1.200   5.595  12.851 -0.1883  0.0157  0.2391
12240TIP3    H158211   1.208   5.517  12.905 -1.2270  0.3370  0.8950
12240TIP3    H258212   1.277   5.648  12.872  1.2400 -1.3947 -1.2126
12241TIP3   OH258213   4.812   0.143   4.702 -0.6311 -0.3452  0.1684
12241TIP3    H158214   4.800   0.204   4.775 -0.1079 -1.2838  1.0739
12241TIP3    H258215   4.877   0.080   4.734 -0.5400 -0.8894 -1.0438
12242TIP3   OH258216   4.453   2.258  15.850 -0.0903 -0.3182 -0.6808
12242TIP3    H158217   4.469   2.215  15.934 -1.5508  0.0311 -0.1923
12242TIP3    H258218   4.382   2.207  15.811 -2.1423  1.7747  0.0793
12243TIP3   OH258219   2.112   3.614  15.593  0.2334  0.2027 -0.6902
12243TIP3    H158220   2.116   3.621  15.498 -2.1575  1.0036 -0.7991
12243TIP3    H258221   2.186   3.667  15.624 -1.0373  3.0551 -2.1035
12244TIP3   OH258222   3.541   4.456  11.407 -0.0947 -0.1439 -0.0392
12244TIP3    H158223   3.520   4.547  11.429 -0.1348  0.0697 -0.9294
12244TIP3    H258224   3.477   4.404  11.456  0.0050  0.2931  0.5719
12245TIP3   OH258225   2.264   4.986   1.290 -0.4058  0.0781  0.0491
12245TIP3    H158226   2.252   4.905   1.241 -0.4722 -0.5324  1.0562
12245TIP3    H258227   2.292   4.958   1.377 -0.4294  1.1370  0.4153
12246TIP3   OH258228   5.793   5.029   2.945 -0.0430 -0.2265 -0.5455
12246TIP3    H158229   5.735   4.980   3.004 -1.5258  1.0421 -0.9004
12246TIP3    H258230   5.879   4.989   2.959 -0.3223 -0.0438  2.4457
12247TIP3   OH258231   6.742   2.739  14.787 -0.4685 -0.1443  0.6587
12247TIP3    H158232   6.774   2.741  14.697  0.2605  0.6372  0.9193
12247TIP3    H258233   6.648   2.753  14.781 -0.1269  2.2124  0.1453
12248TIP3   OH258234   6.198   0.737   1.252  0.0631  0.1817 -0.1233
12248TIP3    H158235   6.243   0.818   1.228 -0.1517  0.3105 -0.0913
12248TIP3    H258236   6.248   0.702   1.325  1.4463 -0.8300 -1.5070
12249TIP3   OH258237   0.756   1.314   2.199  1.1043 -0.3510 -0.3003
12249TIP3    H158238   0.743   1.377   2.128  1.7651 -1.1552 -1.1667
12249TIP3    H258239   0.771   1.367   2.276 -1.5243  0.6003 -0.3282
12250TIP3   OH258240   1.958   3.695   5.278  0.1372 -0.1921 -0.1779
12250TIP3    H158241   1.882   3.645   5.249 -0.1740  0.3781 -0.3656
12250TIP3    H258242   2.021   3.629   5.307 -0.8998 -0.6388  1.1873
12251TIP3   OH258243   6.470   0.768  13.881 -0.3189  0.1392 -0.0291
12251TIP3    H158244   6.439   0.688  13.839  2.1079 -0.7787 -0.2286
12251TIP3    H258245   6.475   0.832  13.809 -0.3629 -0.1220 -0.2671
12252TIP3   OH258246   3.549   4.628  13.332  0.2615 -0.1578  0.1990
12252TIP3    H158247   3.500   4.554  13.296 -0.0305  0.0640  0.1384
12252TIP3    H258248   3.640   4.612  13.306  0.4553 -1.3035  1.4925
12253TIP3   OH258249   6.506   5.674   0.678 -0.3802  0.9708 -0.9015
12253TIP3    H158250   6.526   5.611   0.609 -0.3698 -1.2221  0.9434
12253TIP3    H258251   6.584   5.729   0.684  1.9554 -2.1673  0.7108
12254TIP3   OH258252   1.298   3.903   4.115  0.4533 -0.3106 -0.0027
12254TIP3    H158253   1.248   3.836   4.069 -1.6595  1.2514 -0.1332
12254TIP3    H258254   1.269   3.986   4.076  2.4827  0.7630  0.5931
12255TIP3   OH258255   1.761   5.902   3.139 -0.4577 -0.5358 -0.6854
12255TIP3    H158256   1.680   5.951   3.127  0.1113  0.5612 -0.1905
12255TIP3    H258257   1.813   5.921   3.062 -0.6033 -1.1318 -0.9384
12256TIP3   OH258258   6.307   1.733   1.033  0.1829  0.4149  0.0857
12256TIP3    H158259   6.238   1.781   1.079  1.4145  2.3677 -0.0199
12256TIP3    H258260   6.371   1.712   1.100  0.5967  0.6821 -0.2232
12257TIP3   OH258261   2.489   4.833  15.029  0.2842  0.2873  0.2179
12257TIP3    H158262   2.404   4.871  15.050  0.6102  0.3516  1.5443
12257TIP3    H258263   2.503   4.767  15.097  1.5471  0.7050  0.3982
12258TIP3   OH258264   1.643   4.570  14.572 -0.3955  0.0176 -0.2809
12258TIP3    H158265   1.714   4.530  14.522 -0.5939  0.3900 -0.8692
12258TIP3    H258266   1.624   4.652  14.526 -0.4975  0.4286  0.4770
12259TIP3   OH258267   6.349   4.540  11.214 -0.4760 -0.1258 -0.1039
12259TIP3    H158268   6.332   4.618  11.162  0.3171 -0.3772 -0.7666
12259TIP3    H258269   6.442   4.523  11.202 -0.4825 -0.7574  0.6269
12260TIP3   OH258270   4.709   3.740   2.712 -0.1250  0.2338 -0.4546
12260TIP3    H158271   4.739   3.733   2.803 -1.5084  0.4900  0.0488
12260TIP3    H258272   4.664   3.825   2.708 -3.0108 -1.1697 -0.4306
12261TIP3   OH258273   3.877   1.025   5.413 -0.0624 -0.1246 -0.4979
12261TIP3    H158274   3.889   1.102   5.357  1.3531  2.5305  3.1233
12261TIP3    H258275   3.965   0.989   5.423 -0.6047 -1.8435 -1.5117
12262TIP3   OH258276   6.524   6.617  16.347  0.2469  0.2808  0.0484
12262TIP3    H158277   6.541   6.638  16.439  3.0857 -0.2882 -0.2441
12262TIP3    H258278   6.564   6.530  16.335 -0.2968  0.2393 -1.6702
12263TIP3   OH258279   2.791   5.929   3.908  0.1112 -0.3550  0.1212
12263TIP3    H158280   2.834   5.857   3.954  0.7966  0.5775  0.9960
12263TIP3    H258281   2.852   5.952   3.837  0.7899  0.5361  0.9613
12264TIP3   OH258282   6.622   4.593  15.040 -0.3153  0.5310 -0.7617
12264TIP3    H158283   6.694   4.636  14.994  0.9704 -0.3984  0.3084
12264TIP3    H258284   6.570   4.665  15.075  0.1253  1.2235 -1.4765
12265TIP3   OH258285   3.521   1.283   5.591 -0.5703 -0.1182 -0.4819
12265TIP3    H158286   3.610   1.250   5.607 -0.7048 -0.0804  0.3583
12265TIP3    H258287   3.529   1.378   5.599 -0.4104 -0.0014 -1.8035
12266TIP3   OH258288   0.029   5.303  13.124  0.3010 -0.0036 -0.8343
12266TIP3    H158289   0.100   5.363  13.099 -0.1324  0.5187 -0.8171
12266TIP3    H258290   0.035   5.295  13.219  0.8257 -0.5850 -0.9058
12267TIP3   OH258291   0.797   3.839  16.079 -0.5992 -0.4371  0.2568
12267TIP3    H158292   0.891   3.855  16.073 -0.5211 -0.4816  1.1945
12267TIP3    H258293   0.779   3.838  16.173 -1.6458  0.1723  0.0741
12268TIP3   OH258294   0.291   2.982   2.936  0.0140 -0.0925 -0.6473
12268TIP3    H158295   0.279   3.076   2.932 -0.1247 -0.1356 -1.3221
12268TIP3    H258296   0.280   2.960   3.029 -0.6900  0.4545 -0.5998
12269TIP3   OH258297   2.938   5.115   4.940 -0.0958 -0.6989 -0.4373
12269TIP3    H158298   2.869   5.051   4.959 -0.3097  0.1983  2.1574
12269TIP3    H258299   2.892   5.198   4.929  0.3889 -0.5236 -1.2341
12270TIP3   OH258300   2.882   3.818   1.479  0.0224  0.7432  0.0680
12270TIP3    H158301   2.883   3.909   1.511 -0.0190  1.3219 -1.4614
12270TIP3    H258302   2.950   3.817   1.411  0.6209 -0.6186  0.6603
12271TIP3   OH258303   5.920   0.588  12.404  0.4108 -0.3011 -0.2349
12271TIP3    H158304   5.832   0.624  12.413  0.3038 -0.7823  0.8308
12271TIP3    H258305   5.950   0.575  12.494  0.9316 -1.6571 -0.5814
12272TIP3   OH258306   6.178   2.243  14.357 -0.0621 -0.0542 -0.6312
12272TIP3    H158307   6.171   2.224  14.450  0.5762  1.0638 -0.3269
12272TIP3    H258308   6.272   2.257  14.342 -0.4162  3.3924 -0.6054
12273TIP3   OH258309   0.260   0.741   3.572  0.0858 -0.9023  0.5362
12273TIP3    H158310   0.196   0.673   3.548  1.9329 -2.2964 -0.7905
12273TIP3    H258311   0.294   0.712   3.657  1.5830 -2.2960 -0.4727
12274TIP3   OH258312   0.485   6.666   3.613  0.1119 -0.5122  0.4257
12274TIP3    H158313   0.493   6.597   3.547  0.8096 -0.3866  0.3701
12274TIP3    H258314   0.451   6.742   3.564  1.6350 -0.0969 -0.0302
12275TIP3   OH258315   5.714   4.117  13.711  0.0864 -0.1049  0.5645
12275TIP3    H158316   5.736   4.091  13.622  1.5614  0.8337  0.6206
12275TIP3    H258317   5.659   4.195  13.701 -1.9496 -1.4711  0.4647
12276TIP3   OH258318   5.510   1.936  16.987  0.3944  0.9128 -1.0847
12276TIP3    H158319   5.573   1.892  16.929  0.4782  0.7077 -0.8413
12276TIP3    H258320   5.432   1.882  16.983  1.0194 -0.1724  0.4494
12277TIP3   OH258321   2.095   0.770  12.611  0.8075 -0.0620  0.5780
12277TIP3    H158322   2.188   0.780  12.591  0.9494  2.4598  1.9724
12277TIP3    H258323   2.092   0.763  12.707 -0.4546  1.3660  0.6877
12278TIP3   OH258324   6.281   2.815   4.537 -0.2125  0.0485  0.2529
12278TIP3    H158325   6.327   2.761   4.601 -2.0476 -1.9228  0.0052
12278TIP3    H258326   6.198   2.837   4.580 -1.6623 -1.6508 -1.4902
12279TIP3   OH258327   5.971   4.942  11.021 -0.2808 -0.0502 -0.0206
12279TIP3    H158328   6.046   4.924  10.965 -0.2874 -1.5479  0.3974
12279TIP3    H258329   5.987   5.030  11.056  1.0901 -0.1956 -0.2333
12280TIP3   OH258330   1.657   4.927   2.963  0.0720 -0.5664 -0.4963
12280TIP3    H158331   1.660   4.851   2.905 -0.5219 -0.9070 -0.0900
12280TIP3    H258332   1.744   4.966   2.956  0.3952 -1.3057 -0.6767
12281TIP3   OH258333   3.805   3.408   3.225  0.3925  0.4124 -0.1381
12281TIP3    H158334   3.800   3.353   3.147 -0.0047 -2.3442  1.6965
12281TIP3    H258335   3.833   3.348   3.295  0.0306  2.5889  1.9966
12282TIP3   OH258336   2.834   6.666  14.348 -0.0149  0.1591 -0.0361
12282TIP3    H158337   2.880   6.750  14.342 -1.5617  0.9736 -1.3825
12282TIP3    H258338   2.904   6.600  14.344  1.1336  1.3529 -0.4963
12283TIP3   OH258339   2.862   5.151   1.107  0.5781  0.3113 -0.4842
12283TIP3    H158340   2.830   5.240   1.091 -0.0613  0.2950  0.6578
12283TIP3    H258341   2.949   5.150   1.068 -0.3489  0.6782 -2.7329
12284TIP3   OH258342   0.044   0.661  10.787  0.1712  0.1285  0.0002
12284TIP3    H158343  -0.050   0.647  10.792  0.2103 -1.1078 -1.7661
12284TIP3    H258344   0.082   0.595  10.846 -0.0077 -0.8162 -0.9258
12285TIP3   OH258345   4.166   4.752   6.058 -0.2341  0.4143 -0.0994
12285TIP3    H158346   4.112   4.764   6.136 -0.7870 -0.0724 -0.4028
12285TIP3    H258347   4.110   4.778   5.985  0.4976  1.5170 -0.3025
12286TIP3   OH258348   0.745   0.465   0.065  0.2568  0.3042  0.0891
12286TIP3    H158349   0.731   0.420   0.148  1.7935 -1.1723 -0.3968
12286TIP3    H258350   0.839   0.481   0.061  0.2576  0.0896 -1.4794
12287TIP3   OH258351   6.397   3.847   3.348 -0.8194 -0.8461  0.2967
12287TIP3    H158352   6.467   3.797   3.307 -0.6080 -1.6403  1.5547
12287TIP3    H258353   6.321   3.833   3.292  0.0284  0.1246 -1.1519
12288TIP3   OH258354   1.398   3.992  14.307 -0.2671  0.4806 -0.3777
12288TIP3    H158355   1.441   3.968  14.389 -0.5628 -2.0545 -0.8843
12288TIP3    H258356   1.413   3.917  14.249  0.6741  2.4959 -2.9770
12289TIP3   OH258357   6.811   2.515  16.468  0.0468  0.7694 -0.1039
12289TIP3    H158358   6.806   2.509  16.563  0.1873 -0.1723 -0.1448
12289TIP3    H258359   6.903   2.536  16.450  1.3089 -3.7569 -0.1580
12290TIP3   OH258360   0.669   0.413  10.650  0.1337 -0.2397  0.0032
12290TIP3    H158361   0.591   0.399  10.596 -0.6922  0.3685  0.9826
12290TIP3    H258362   0.740   0.424  10.587 -0.6412 -0.4173 -0.9357
12291TIP3   OH258363   2.238   1.024   4.046  0.1801  0.0762  0.4715
12291TIP3    H158364   2.148   1.055   4.042 -0.5375 -1.5424  2.4319
12291TIP3    H258365   2.239   0.946   3.990  0.2951 -0.0467  0.6419
12292TIP3   OH258366   0.448   4.730   4.002 -0.5398  0.4094 -0.4892
12292TIP3    H158367   0.491   4.685   3.929 -0.9226 -0.2364 -0.3281
12292TIP3    H258368   0.444   4.663   4.072  0.1641  1.1243  0.2619
12293TIP3   OH258369   3.438   1.252   2.696  0.6374 -0.0862 -0.3416
12293TIP3    H158370   3.459   1.234   2.604  0.5193  0.2673 -0.4382
12293TIP3    H258371   3.346   1.228   2.705  0.1296  1.6043 -0.7791
12294TIP3   OH258372   3.176   6.273  13.807 -0.2354  0.7705  0.1784
12294TIP3    H158373   3.109   6.217  13.769  1.3140 -0.5043 -0.8228
12294TIP3    H258374   3.195   6.338  13.739  1.1532 -0.3103 -0.5130
12295TIP3   OH258375   6.645   1.545  16.697  0.4513 -0.2908 -0.3353
12295TIP3    H158376   6.583   1.617  16.681  0.4979 -0.5054 -1.5885
12295TIP3    H258377   6.605   1.469  16.654  0.9659 -0.7374 -0.0287
12296TIP3   OH258378   1.630   6.188   5.564  0.0269 -0.4423 -0.4194
12296TIP3    H158379   1.633   6.093   5.550 -0.0298 -0.5744  0.4330
12296TIP3    H258380   1.697   6.223   5.504 -1.2099 -0.8278 -2.1176
12297TIP3   OH258381   0.663   5.254  15.996 -0.3322  0.4264 -0.0851
12297TIP3    H158382   0.678   5.181  16.056  1.5190 -1.2092 -2.3488
12297TIP3    H258383   0.600   5.220  15.933  1.6817  0.0972 -2.0511
12298TIP3   OH258384   0.151   2.221  16.296 -0.5375 -0.0593 -0.2787
12298TIP3    H158385   0.170   2.308  16.331 -0.4358  0.2230 -1.0091
12298TIP3    H258386   0.056   2.212  16.304 -0.4748 -0.1747  0.4404
12299TIP3   OH258387   6.393   3.104   3.507 -0.3751  0.0993  0.6436
12299TIP3    H158388   6.394   3.088   3.412 -0.3714  0.3857  0.5952
12299TIP3    H258389   6.363   3.021   3.544  2.3068 -1.0109  0.5904
12300TIP3   OH258390   4.182   4.620   3.951  0.1210  0.2985 -0.2083
12300TIP3    H158391   4.119   4.550   3.933 -0.1434  0.8867 -1.7060
12300TIP3    H258392   4.264   4.588   3.914  0.8137 -0.5418  1.8885
12301TIP3   OH258393   6.685   0.422  10.724  0.5510  0.2006  0.2223
12301TIP3    H158394   6.636   0.503  10.739  1.0608  0.4426  0.6124
12301TIP3    H258395   6.643   0.358  10.780 -0.0032  0.1281 -0.2618
12302TIP3   OH258396   4.759   3.508   3.115 -0.0409 -0.1965 -0.7398
12302TIP3    H158397   4.853   3.509   3.100  0.0457 -0.7921 -0.2588
12302TIP3    H258398   4.729   3.424   3.081 -0.3852 -0.0461 -0.8165
12303TIP3   OH258399   2.091   3.813   2.883 -0.1139  0.2690 -0.7088
12303TIP3    H158400   2.138   3.893   2.858 -0.2726  0.2367 -1.1239
12303TIP3    H258401   2.157   3.758   2.925  0.2903  0.1131 -1.5296
12304TIP3   OH258402   1.956   4.578  11.599 -0.0939  0.4885 -0.4680
12304TIP3    H158403   1.985   4.509  11.540  2.2144  1.3496 -0.4489
12304TIP3    H258404   1.897   4.631  11.546  0.7390  0.3701 -1.5630
12305TIP3   OH258405   0.961   6.598  12.516  0.2808 -0.4497  0.3106
12305TIP3    H158406   0.933   6.625  12.603  1.8632 -1.0810  1.0618
12305TIP3    H258407   0.895   6.535  12.488 -0.2336 -0.2571  1.0607
12306TIP3   OH258408   1.515   2.353  11.980 -0.1220 -0.8012 -0.1099
12306TIP3    H158409   1.488   2.395  11.898  1.1436  0.2122 -0.0438
12306TIP3    H258410   1.594   2.401  12.007 -1.1237 -0.3528  2.2971
12307TIP3   OH258411   1.809   6.256  11.606  0.1356  0.1411 -0.2581
12307TIP3    H158412   1.799   6.162  11.624  1.4961  0.1163  0.5450
12307TIP3    H258413   1.836   6.260  11.514 -0.8429 -0.1742 -0.5716
12308TIP3   OH258414   2.414   5.474  13.966 -0.0570  0.2991  0.0277
12308TIP3    H158415   2.478   5.523  14.019 -0.1894 -0.1111  0.5802
12308TIP3    H258416   2.400   5.529  13.889  1.0179  0.3662 -0.1420
12309TIP3   OH258417   3.256   2.431  15.596 -0.4129  0.1380 -0.2896
12309TIP3    H158418   3.189   2.385  15.547  1.3871  0.2665 -3.1141
12309TIP3    H258419   3.326   2.367  15.607  0.1695  0.8121  0.0362
12310TIP3   OH258420   1.050   6.171   0.110  0.2561  0.4135  0.3146
12310TIP3    H158421   1.097   6.095   0.074  0.1079  0.8874 -0.9004
12310TIP3    H258422   1.106   6.246   0.088  0.9546  0.6098  2.4360
12311TIP3   OH258423   4.461   2.531  16.993 -0.0820 -0.1070 -0.2510
12311TIP3    H158424   4.393   2.553  16.929 -2.9280  0.6291  2.7845
12311TIP3    H258425   4.460   2.435  16.996  1.2968 -0.2605 -2.3683
12312TIP3   OH258426   4.481   3.618   4.878  0.1693  0.2816 -0.5568
12312TIP3    H158427   4.504   3.526   4.867  0.4438  0.2169  0.4134
12312TIP3    H258428   4.556   3.666   4.846  0.7708  0.1189  0.5650
12313TIP3   OH258429   2.124   4.134  16.069 -0.2532  0.2339  0.1971
12313TIP3    H158430   2.036   4.147  16.035 -0.8514 -0.4694  1.4319
12313TIP3    H258431   2.144   4.043  16.049  0.6723  0.6820 -1.0915
12314TIP3   OH258432   1.456   5.894   4.082 -0.2541 -0.0892  0.1777
12314TIP3    H158433   1.536   5.888   4.030 -0.2399 -0.4299  0.2330
12314TIP3    H258434   1.485   5.880   4.172  0.1437  3.1959  0.6798
12315TIP3   OH258435   4.227   4.439  10.966  0.5243  0.8245 -0.0106
12315TIP3    H158436   4.244   4.517  10.914  2.7542  1.8648  2.0568
12315TIP3    H258437   4.310   4.392  10.967 -0.4345 -0.9522 -0.1781
12316TIP3   OH258438   3.077   0.703   2.707  0.4609 -0.2166  0.2743
12316TIP3    H158439   3.128   0.664   2.637 -1.3602 -0.4328 -1.0113
12316TIP3    H258440   3.049   0.629   2.761  1.7792 -0.0602  1.2000
12317TIP3   OH258441   5.147   6.289  16.576  0.0715  0.7675  0.2070
12317TIP3    H158442   5.219   6.336  16.534  0.6967 -1.1816 -1.0251
12317TIP3    H258443   5.189   6.217  16.624 -0.9857  0.0217  0.0637
12318TIP3   OH258444   1.214   3.051  11.526 -0.1202  0.2756  0.1434
12318TIP3    H158445   1.237   2.960  11.508  0.9090  0.6939 -0.7690
12318TIP3    H258446   1.175   3.049  11.613  0.1063 -1.0021  0.2333
12319TIP3   OH258447   4.760   5.956   4.355  0.4886  0.6192 -0.1001
12319TIP3    H158448   4.736   5.921   4.441  1.7028 -1.3634 -0.4944
12319TIP3    H258449   4.699   5.914   4.295  0.0573  1.5029 -0.2872
12320TIP3   OH258450   2.457   1.795   0.755  0.0881 -0.2309  0.3900
12320TIP3    H158451   2.389   1.729   0.772 -0.9861  0.9541  0.9010
12320TIP3    H258452   2.461   1.846   0.836  0.6562  0.5322 -0.1113
12321TIP3   OH258453   4.549   0.291   0.737 -0.1134 -0.1822  0.3940
12321TIP3    H158454   4.480   0.355   0.752 -0.0206 -0.0939  0.4462
12321TIP3    H258455   4.518   0.211   0.780  0.2862  0.1558  1.3304
12322TIP3   OH258456   4.751   3.331  11.854  0.6027 -0.2627 -0.2020
12322TIP3    H158457   4.786   3.286  11.931  0.6228 -0.1640 -0.1537
12322TIP3    H258458   4.827   3.374  11.814  0.5443 -0.0833 -0.1205
12323TIP3   OH258459   1.265   1.728  13.063 -0.3710  1.2178 -0.1081
12323TIP3    H158460   1.187   1.692  13.022  0.4441  0.9959 -1.5182
12323TIP3    H258461   1.337   1.701  13.007  0.6934  1.7310  0.9580
12324TIP3   OH258462   2.889   3.964  15.293  0.4437  0.0281  0.1508
12324TIP3    H158463   2.859   4.052  15.315  0.6108  0.5891 -1.7092
12324TIP3    H258464   2.942   3.975  15.214  0.7889 -1.6959  0.0916
12325TIP3   OH258465   0.746   2.589  16.580 -0.1850 -0.0181 -0.6326
12325TIP3    H158466   0.823   2.532  16.580 -0.3437 -0.2864  0.7795
12325TIP3    H258467   0.673   2.530  16.597 -0.3676  0.5496  0.7270
12326TIP3   OH258468   3.561   4.624  12.753  0.6452 -0.3380 -0.6394
12326TIP3    H158469   3.517   4.542  12.729 -0.1809 -0.2084  0.3235
12326TIP3    H258470   3.491   4.677  12.793  1.0578  1.0406 -1.6932
12327TIP3   OH258471   2.240   3.366  15.738  1.0880  0.2262 -0.4473
12327TIP3    H158472   2.263   3.367  15.645  1.9692  1.9379 -0.2474
12327TIP3    H258473   2.189   3.445  15.751 -0.8333 -1.0275  0.1582
12328TIP3   OH258474   2.268   4.882  15.237  0.1033  0.5314 -0.1950
12328TIP3    H158475   2.301   4.967  15.265  4.6466 -0.4809 -1.5619
12328TIP3    H258476   2.251   4.835  15.318  1.3649  1.4983  0.6673
12329TIP3   OH258477   2.022   4.942   3.237  0.1931 -0.8062  0.5801
12329TIP3    H158478   1.928   4.956   3.226  0.2983 -0.0004  0.6675
12329TIP3    H258479   2.059   5.030   3.246  1.4171 -0.7181 -3.1596
12330TIP3   OH258480   2.569   1.932  15.442  0.1052 -0.2233  0.0437
12330TIP3    H158481   2.556   1.837  15.453  3.7322 -0.7272  1.0899
12330TIP3    H258482   2.575   1.966  15.531  1.6005  0.5081 -0.3119
12331TIP3   OH258483   1.315   5.448   1.129  0.2901 -0.4024 -0.2083
12331TIP3    H158484   1.270   5.364   1.141 -0.0346 -0.1460  0.3873
12331TIP3    H258485   1.287   5.477   1.042 -0.0789 -0.6203 -0.1648
12332TIP3   OH258486   2.876   4.367  17.024  0.4264  0.1459 -0.9322
12332TIP3    H158487   2.815   4.436  17.048 -0.2470 -0.3571 -1.1641
12332TIP3    H258488   2.922   4.346  17.105  0.0121  0.2542 -0.6680
12333TIP3   OH258489   2.434   6.162   2.038 -0.3349  0.1565  0.6213
12333TIP3    H158490   2.470   6.237   2.085 -1.4340  0.3032  1.2885
12333TIP3    H258491   2.352   6.142   2.084  0.2872 -1.9289  0.9255
12334TIP3   OH258492   6.598   2.452  11.713 -0.1264 -0.1269 -0.1235
12334TIP3    H158493   6.651   2.513  11.663  1.6431 -1.0289  0.5746
12334TIP3    H258494   6.534   2.418  11.650  0.6211  0.4160 -1.1945
12335TIP3   OH258495   6.113   0.441  16.203  0.2133  0.1436 -0.1520
12335TIP3    H158496   6.018   0.436  16.215  0.2928 -0.8694  0.1973
12335TIP3    H258497   6.147   0.371  16.259  1.0403 -0.7201 -1.6837
12336TIP3   OH258498   4.600   3.464  17.095  0.4771  0.1920 -0.6697
12336TIP3    H158499   4.636   3.552  17.101  0.2953  0.1789  1.9200
12336TIP3    H258500   4.635   3.429  17.013  1.2966  2.3210 -1.2997
12337TIP3   OH258501   2.166   4.783   4.055 -0.2039 -0.9100 -0.7043
12337TIP3    H158502   2.254   4.749   4.041  1.8424  3.8466 -1.4528
12337TIP3    H258503   2.138   4.816   3.970 -2.2987 -1.2765 -0.2362
12338TIP3   OH258504   3.525   5.961   5.107  0.4031  0.6435  0.5005
12338TIP3    H158505   3.492   5.876   5.076  0.5020  0.2923  1.3349
12338TIP3    H258506   3.550   6.007   5.027  0.5737 -0.2039  0.0516
12339TIP3   OH258507   4.800   5.292   3.470 -0.1041 -0.0092  0.4690
12339TIP3    H158508   4.737   5.331   3.409 -1.9411 -0.1640  2.1753
12339TIP3    H258509   4.877   5.349   3.464 -0.9997  1.1599 -0.4789
12340TIP3   OH258510   2.672   6.240   5.815  0.0029  0.0012 -0.0883
12340TIP3    H158511   2.641   6.178   5.749 -0.9671  1.3897 -0.9769
12340TIP3    H258512   2.766   6.222   5.823  0.1019 -0.3321 -1.6977
12341TIP3   OH258513   3.476   1.887  13.185  0.2667  0.3755  0.1578
12341TIP3    H158514   3.552   1.911  13.237 -1.0060  2.0899  1.3475
12341TIP3    H258515   3.508   1.883  13.095  1.7934  0.8143  0.6571
12342TIP3   OH258516   4.261   4.155  13.414 -0.3057 -0.0203 -0.4415
12342TIP3    H158517   4.265   4.225  13.480 -1.2828  0.5018 -0.9135
12342TIP3    H258518   4.344   4.107  13.424 -0.0268  0.6361  0.5121
12343TIP3   OH258519   5.360   0.930   4.224  0.3776 -0.0926  0.2009
12343TIP3    H158520   5.424   0.950   4.155 -1.1431 -3.0933 -2.3703
12343TIP3    H258521   5.407   0.870   4.282  0.4266 -1.1485 -0.8689
12344TIP3   OH258522   5.855   4.105  11.105  0.3412 -0.1656  0.5198
12344TIP3    H158523   5.828   4.195  11.125 -0.3972 -0.0757 -0.8190
12344TIP3    H258524   5.856   4.101  11.010  1.8994 -1.1390  0.5409
12345TIP3   OH258525   3.624   6.148  12.283  0.4147  0.4289  0.3142
12345TIP3    H158526   3.631   6.073  12.343  0.1328 -0.5499 -0.8480
12345TIP3    H258527   3.564   6.208  12.327 -0.3961 -0.6171  0.6715
12346TIP3   OH258528   0.378   3.663   5.230  0.6495  0.4989 -0.1314
12346TIP3    H158529   0.384   3.667   5.135 -0.2632  0.7692 -0.1819
12346TIP3    H258530   0.311   3.727   5.253  0.0050 -0.4133  0.6029
12347TIP3   OH258531   5.664   0.274   2.063 -0.3161 -0.3144 -0.3478
12347TIP3    H158532   5.591   0.276   2.001 -0.7984 -0.3363  0.2076
12347TIP3    H258533   5.678   0.366   2.086 -0.8034 -0.3841  0.2644
12348TIP3   OH258534   1.452   0.773   2.435  0.0974  0.4366 -0.0301
12348TIP3    H158535   1.359   0.794   2.449 -0.4796 -1.0198 -1.4284
12348TIP3    H258536   1.484   0.751   2.523 -1.0609  0.3186  0.3880
12349TIP3   OH258537   6.532   6.308  15.218 -0.1527 -0.5508  0.0526
12349TIP3    H158538   6.529   6.232  15.276 -1.9029 -0.4565  0.1239
12349TIP3    H258539   6.477   6.373  15.261  0.6883  0.5022 -0.4029
12350TIP3   OH258540   4.145   5.909  14.552 -0.2524  0.1875 -0.1878
12350TIP3    H158541   4.073   5.865  14.597  1.6161 -1.5286  1.2815
12350TIP3    H258542   4.143   5.873  14.463 -0.2746 -1.0312  0.2899
12351TIP3   OH258543   3.046   1.859  16.367 -0.3300  0.3708  0.2685
12351TIP3    H158544   3.096   1.799  16.310  1.2189  1.7128  0.1471
12351TIP3    H258545   2.984   1.902  16.308 -0.8415 -0.4497  0.1926
12352TIP3   OH258546   2.414   5.483   1.695 -0.1702 -0.3717  0.4839
12352TIP3    H158547   2.351   5.433   1.643  1.5441 -1.3276 -0.7745
12352TIP3    H258548   2.491   5.426   1.702  1.6573  1.8117 -0.4865
12353TIP3   OH258549   0.453   5.763  15.618  0.0880  0.8104  0.7524
12353TIP3    H158550   0.406   5.688  15.581  1.8833 -0.7385  1.4524
12353TIP3    H258551   0.520   5.783  15.553 -0.5162  1.9968  0.4689
12354TIP3   OH258552   2.355   0.859  13.447  0.0320 -0.5578  0.5450
12354TIP3    H158553   2.384   0.915  13.375  0.1027  0.0072  1.0028
12354TIP3    H258554   2.396   0.898  13.525 -1.3726 -0.1684  1.1134
12355TIP3   OH258555   2.685   0.682  16.446 -0.2425  0.8064  0.3329
12355TIP3    H158556   2.644   0.672  16.361 -0.0139 -0.9519  0.3828
12355TIP3    H258557   2.628   0.635  16.507  1.5887 -1.5599  0.4263
12356TIP3   OH258558   3.883   0.121   4.980  0.3339 -0.0058  0.1786
12356TIP3    H158559   3.824   0.060   5.026 -0.0316  1.0256  1.1255
12356TIP3    H258560   3.958   0.131   5.039  1.3420 -1.0543 -0.8772
12357TIP3   OH258561   0.196   0.035   4.118  0.2575  0.2262  0.8123
12357TIP3    H158562   0.262   0.072   4.060 -0.7236  2.4818  1.0293
12357TIP3    H258563   0.233   0.045   4.206  1.2141 -2.0515  0.7174
12358TIP3   OH258564   1.595   5.779   2.805 -0.1717 -0.9036 -0.9735
12358TIP3    H158565   1.594   5.755   2.898  1.8624  1.1834 -0.3125
12358TIP3    H258566   1.507   5.811   2.788 -0.2631 -0.2281  0.5876
12359TIP3   OH258567   6.552   5.701   5.864 -0.6492 -0.1933 -0.4853
12359TIP3    H158568   6.523   5.787   5.834  0.8527 -0.1853 -2.0541
12359TIP3    H258569   6.617   5.720   5.932  0.5402 -0.0199 -1.6377
12360TIP3   OH258570   2.238   2.353  11.567  0.3444 -0.5426  0.1329
12360TIP3    H158571   2.198   2.402  11.496 -0.3014 -0.1084  0.7848
12360TIP3    H258572   2.324   2.393  11.579  0.1139 -0.0542  0.1651
12361TIP3   OH258573   1.598   5.593  11.418 -0.1081 -0.2559 -0.1061
12361TIP3    H158574   1.561   5.680  11.407  1.0657  0.3766  0.7617
12361TIP3    H258575   1.566   5.543  11.343 -1.2895  0.7423 -0.2833
12362TIP3   OH258576   1.529   5.165  15.185 -0.7259 -0.3327 -0.1248
12362TIP3    H158577   1.478   5.150  15.106 -0.4029 -2.9346  0.0821
12362TIP3    H258578   1.594   5.231  15.160  0.7706 -2.6231 -2.7315
12363TIP3   OH258579   4.029   2.254   2.240 -0.2123 -0.7358  0.0520
12363TIP3    H158580   3.986   2.335   2.209 -0.6808 -0.8949  0.2730
12363TIP3    H258581   4.074   2.220   2.163  2.2333  1.1157  0.5291
12364TIP3   OH258582   5.547   6.070  14.436 -0.6482  0.3808  0.0334
12364TIP3    H158583   5.531   6.154  14.392  1.2395  0.8192  0.0840
12364TIP3    H258584   5.621   6.032  14.388 -1.2378 -1.0911  0.2526
12365TIP3   OH258585   4.105   3.439   5.384 -0.4692  0.3629  0.5331
12365TIP3    H158586   4.194   3.408   5.396 -0.6034  0.4908  2.1264
12365TIP3    H258587   4.093   3.506   5.452 -0.9860  2.1736 -1.2229
12366TIP3   OH258588   1.882   0.841  14.460 -0.2377  0.1749  0.2530
12366TIP3    H158589   1.891   0.884  14.545 -0.2043 -1.0837  0.9221
12366TIP3    H258590   1.939   0.764  14.466 -0.5621 -0.1636 -0.7464
12367TIP3   OH258591   2.999   2.384   1.348 -0.6813 -0.6439  0.0446
12367TIP3    H158592   3.083   2.417   1.381 -1.1594  0.4854  0.1875
12367TIP3    H258593   2.960   2.459   1.303 -2.4844 -0.5570  1.6409
12368TIP3   OH258594   6.530   2.336  11.474 -0.3958  0.5677 -0.2945
12368TIP3    H158595   6.504   2.388  11.398 -0.0564 -0.1104 -0.8757
12368TIP3    H258596   6.621   2.314  11.458  0.1819  1.7784  1.0876
12369TIP3   OH258597   5.041   1.804   5.154  0.0029 -0.5309 -0.2136
12369TIP3    H158598   4.983   1.844   5.219  1.9080  2.6611 -0.2307
12369TIP3    H258599   5.117   1.774   5.205  0.8714  0.7106 -0.7105
12370TIP3   OH258600   6.598   5.963   1.745  0.3097  0.1724  0.2271
12370TIP3    H158601   6.530   6.030   1.750 -0.8991 -1.0629  1.0626
12370TIP3    H258602   6.675   6.009   1.711 -0.0751  2.2789  2.0069
12371TIP3   OH258603   0.452   0.432  14.233  0.3533  0.4806 -0.5179
12371TIP3    H158604   0.546   0.433  14.253  0.4918  1.2510 -1.1598
12371TIP3    H258605   0.414   0.376  14.301  1.0599  1.5138  0.8012
12372TIP3   OH258606   2.888   6.385  14.615  0.2781  0.0866 -0.2227
12372TIP3    H158607   2.809   6.434  14.596  0.1647  1.1393  2.5014
12372TIP3    H258608   2.944   6.446  14.663  0.8380 -1.8865  1.8342
12373TIP3   OH258609   1.653   1.183   0.904  0.1503  0.2520 -0.4708
12373TIP3    H158610   1.582   1.120   0.919  0.6491 -0.0035  0.9784
12373TIP3    H258611   1.620   1.240   0.835 -0.9532 -0.6368 -0.7065
12374TIP3   OH258612   0.441   3.079   6.036 -0.1340 -0.3405 -0.0204
12374TIP3    H158613   0.424   3.154   6.094  0.6087 -1.5171  1.8081
12374TIP3    H258614   0.516   3.105   5.983 -1.2339  1.0132 -0.9932
12375TIP3   OH258615   6.529   1.148  13.981 -0.1944 -0.0142 -0.6886
12375TIP3    H158616   6.517   1.243  13.986 -0.3318 -0.0325 -0.6665
12375TIP3    H258617   6.480   1.122  13.903 -1.2532 -0.2420  0.0327
12376TIP3   OH258618   4.548   4.782   6.509 -0.1787 -0.0243 -0.4619
12376TIP3    H158619   4.571   4.861   6.458  0.2952  1.8724  2.4540
12376TIP3    H258620   4.585   4.798   6.596 -2.2085 -2.4036  0.9638
12377TIP3   OH258621   4.167   3.630   0.101  0.6410 -0.3267  0.1850
12377TIP3    H158622   4.206   3.618   0.014  0.2500 -0.6471  0.0465
12377TIP3    H258623   4.155   3.540   0.134 -2.8670 -0.5141 -1.1008
12378TIP3   OH258624   5.030   2.606  13.194 -0.3050  0.1812 -0.7597
12378TIP3    H158625   5.058   2.538  13.133  1.3640  0.4131 -0.2948
12378TIP3    H258626   5.111   2.649  13.221 -1.3347  2.6458 -1.3543
12379TIP3   OH258627   1.517   4.452  12.292 -0.4773  0.5577  0.2136
12379TIP3    H158628   1.577   4.387  12.331 -0.7219  0.2432  0.0749
12379TIP3    H258629   1.430   4.422  12.319 -0.6735  0.1596 -0.8257
12380TIP3   OH258630   4.941   4.526   0.200 -0.1133 -0.0322  0.3713
12380TIP3    H158631   4.857   4.506   0.242 -0.4494  0.0716 -0.2360
12380TIP3    H258632   5.007   4.495   0.262 -0.5926  0.5936  1.2085
12381TIP3   OH258633   3.794   6.715   0.508 -0.0535  0.4479 -0.1925
12381TIP3    H158634   3.716   6.671   0.475  0.0705 -0.7012  0.9436
12381TIP3    H258635   3.798   6.690   0.601  0.9250  1.5672  0.0922
12382TIP3   OH258636   4.673   0.942  14.888 -0.4345 -0.0336  0.6063
12382TIP3    H158637   4.610   1.012  14.875 -0.3957  0.4041  2.5554
12382TIP3    H258638   4.747   0.983  14.932  0.0411 -1.0716  0.8139
12383TIP3   OH258639   6.449   0.096   5.290  0.4426 -0.4090  0.8043
12383TIP3    H158640   6.499   0.168   5.328 -0.6299  0.2971  0.8934
12383TIP3    H258641   6.477   0.094   5.198  0.9798 -0.3351  0.9629
12384TIP3   OH258642   0.315   5.062  13.579  0.2670 -0.5782  0.5534
12384TIP3    H158643   0.317   4.982  13.632  0.7304 -1.4765 -0.7637
12384TIP3    H258644   0.402   5.066  13.539 -0.3888 -0.4707 -0.9094
12385TIP3   OH258645   0.835   0.122  12.927  0.8725 -0.2052  0.4999
12385TIP3    H158646   0.742   0.100  12.935  0.6891 -0.2398 -1.4032
12385TIP3    H258647   0.835   0.208  12.884  1.7283  0.3749  1.5949
12386TIP3   OH258648   2.068   0.437  14.381 -0.6764  0.5707  0.1092
12386TIP3    H158649   2.163   0.448  14.378 -0.5157 -0.6275 -0.0537
12386TIP3    H258650   2.038   0.465  14.295 -0.5338  1.3628  0.3072
12387TIP3   OH258651   2.361   6.321   4.752 -0.4964  0.4292  0.3836
12387TIP3    H158652   2.450   6.290   4.733 -1.0675 -0.0460 -1.8200
12387TIP3    H258653   2.371   6.374   4.831  2.2496  2.4459 -1.1150
12388TIP3   OH258654   5.047   0.349   1.922  0.7691  0.4982 -0.3978
12388TIP3    H158655   4.956   0.369   1.899  0.6084 -0.4002 -0.5765
12388TIP3    H258656   5.099   0.408   1.869  0.2682  1.7698  0.4775
12389TIP3   OH258657   0.866   6.296  10.853  0.4918  0.0924 -0.3199
12389TIP3    H158658   0.867   6.275  10.946  0.5929 -0.7584 -0.5088
12389TIP3    H258659   0.857   6.392  10.850  0.9954  0.1789  0.5661
12390TIP3   OH258660   4.908   4.663  12.564 -0.9388  0.1326  0.1991
12390TIP3    H158661   4.916   4.688  12.472  0.3026 -2.6757 -0.5542
12390TIP3    H258662   4.985   4.609  12.582 -0.1244  2.1183  3.5030
12391TIP3   OH258663   5.818   0.678  11.783  0.1181 -0.0731  0.1438
12391TIP3    H158664   5.787   0.654  11.696 -1.2039  0.9579  0.3028
12391TIP3    H258665   5.823   0.773  11.782  1.8878 -0.1273  0.6269
12392TIP3   OH258666   3.132   0.234  11.421 -0.1703  0.5699  0.0022
12392TIP3    H158667   3.054   0.264  11.375  0.3314  2.7326  0.4390
12392TIP3    H258668   3.100   0.169  11.484 -1.2196 -0.4634 -1.5472
12393TIP3   OH258669   5.283   4.573   1.913  0.1015 -0.3862  0.4952
12393TIP3    H158670   5.270   4.658   1.872  1.4292 -0.1368  0.5379
12393TIP3    H258671   5.288   4.593   2.007  1.1668 -0.3804  0.4548
12394TIP3   OH258672   6.401   4.755  12.402 -0.0429  0.0075  0.7561
12394TIP3    H158673   6.404   4.803  12.319  2.0377 -0.9473  0.2108
12394TIP3    H258674   6.371   4.667  12.378 -0.1066 -0.0744  1.1271
12395TIP3   OH258675   0.896   0.928  11.364 -0.0073  0.3652  0.0127
12395TIP3    H158676   0.852   0.875  11.431 -0.9487 -1.3319 -1.8711
12395TIP3    H258677   0.835   0.999  11.345 -0.8058 -0.4936 -0.7042
12396TIP3   OH258678   1.546   6.606   4.130 -0.2945 -0.2017 -0.0160
12396TIP3    H158679   1.528   6.621   4.223 -1.8708 -0.8137 -0.1906
12396TIP3    H258680   1.514   6.685   4.086  0.2676  0.0027 -0.0642
12397TIP3   OH258681   5.857   3.248  15.238 -0.7053  0.4374 -0.2019
12397TIP3    H158682   5.834   3.327  15.286  0.4454 -0.3630  1.8061
12397TIP3    H258683   5.875   3.278  15.149 -2.8534  2.0028 -0.1832
12398TIP3   OH258684   2.198   4.608  14.456  0.4785  0.3654 -0.8275
12398TIP3    H158685   2.179   4.581  14.366 -0.1551  2.3051 -1.3341
12398TIP3    H258686   2.270   4.671  14.447  0.4826  0.4888  0.0255
12399TIP3   OH258687   0.466   4.500  14.790  0.0619  0.5095  0.1461
12399TIP3    H158688   0.423   4.558  14.853  0.7545 -0.1481  1.2741
12399TIP3    H258689   0.394   4.464  14.738 -0.8541 -0.7562  2.1379
12400TIP3   OH258690   0.502   4.038  14.646  0.1086 -0.4229  0.0298
12400TIP3    H158691   0.423   4.092  14.637  1.6077  1.8452 -0.2195
12400TIP3    H258692   0.505   3.987  14.564  0.7470  2.1661 -1.6957
12401TIP3   OH258693   5.154   4.526   1.522 -0.1401  0.4981 -0.2508
12401TIP3    H158694   5.233   4.478   1.545 -0.5158  0.7116  1.7185
12401TIP3    H258695   5.169   4.558   1.433  0.8737 -1.6587 -0.9133
12402TIP3   OH258696   5.115   0.363  16.241 -0.5995 -0.0342  0.3016
12402TIP3    H158697   5.202   0.373  16.202 -1.9592 -1.2023 -3.4595
12402TIP3    H258698   5.081   0.452  16.248  0.3523  0.3210  0.4708
12403TIP3   OH258699   5.158   1.277  13.419  0.0695 -0.4084  0.3633
12403TIP3    H158700   5.082   1.225  13.394  2.0852 -3.5493  0.1433
12403TIP3    H258701   5.155   1.279  13.515 -1.1267  0.9789  0.3272
12404TIP3   OH258702   2.081   5.742  15.972  0.0072  0.8000  0.0638
12404TIP3    H158703   2.006   5.800  15.985 -0.5509  0.6835 -2.2313
12404TIP3    H258704   2.147   5.774  16.034 -1.0925  2.4222  0.4665
12405TIP3   OH258705   6.796   6.341   1.221 -0.2947  0.3375  0.0457
12405TIP3    H158706   6.832   6.293   1.296 -1.1757 -0.4328 -0.0104
12405TIP3    H258707   6.728   6.284   1.186 -0.2968  0.9485 -0.9928
12406TIP3   OH258708   3.033   6.048   4.679  0.2117 -0.2120 -0.5197
12406TIP3    H158709   2.972   6.120   4.698  1.1646  0.7881 -1.1613
12406TIP3    H258710   3.023   5.989   4.754 -1.0129  0.2784 -0.2621
12407TIP3   OH258711   0.803   0.781   5.532  0.8154 -0.5373 -0.5423
12407TIP3    H158712   0.784   0.862   5.579 -0.8724 -1.3134  0.1769
12407TIP3    H258713   0.877   0.743   5.579  1.8652  0.7152 -1.0997
12408TIP3   OH258714   3.061   5.858  11.539 -0.1949 -0.3311  0.3024
12408TIP3    H158715   3.072   5.766  11.564  1.6104 -0.3608 -0.4751
12408TIP3    H258716   3.150   5.891  11.528 -0.8196  0.7804 -2.0620
12409TIP3   OH258717   0.457   3.533   1.840 -0.5752  0.2104  0.0146
12409TIP3    H158718   0.363   3.519   1.832 -0.5229 -0.1267 -0.0108
12409TIP3    H258719   0.483   3.572   1.757 -0.6546  0.0927 -0.0660
12410TIP3   OH258720   4.818   1.234  12.067  0.1884  0.0713 -0.2345
12410TIP3    H158721   4.833   1.237  12.162 -0.5337 -1.8646 -0.0134
12410TIP3    H258722   4.789   1.323  12.045 -0.1163  0.4307  1.4335
12411TIP3   OH258723   4.553   6.737  16.121 -0.1859  0.0153  0.7843
12411TIP3    H158724   4.647   6.744  16.139 -0.0398  0.1067  0.0061
12411TIP3    H258725   4.527   6.825  16.095 -0.2080 -0.2845 -0.2696
12412TIP3   OH258726   3.212   2.307   2.483 -0.0102  0.3708 -0.1510
12412TIP3    H158727   3.214   2.393   2.526  0.4212  0.3633 -0.1489
12412TIP3    H258728   3.302   2.276   2.488 -0.1498 -0.0530 -0.2162
12413TIP3   OH258729   1.740   5.068  12.923 -1.1089  0.0879  0.3318
12413TIP3    H158730   1.660   5.085  12.873 -0.3159  1.8091 -0.4287
12413TIP3    H258731   1.711   5.066  13.014 -1.8482  2.1757  0.1937
12414TIP3   OH258732   5.407   5.408  14.685 -0.1089  0.4559  0.3940
12414TIP3    H158733   5.461   5.340  14.644  0.3916  0.6448  0.7221
12414TIP3    H258734   5.441   5.490  14.649 -0.4188  0.5551  0.3294
12415TIP3   OH258735   2.674   0.876   3.019  0.5244  0.8839 -0.1418
12415TIP3    H158736   2.641   0.821   2.948  1.2540  0.8255 -0.4476
12415TIP3    H258737   2.767   0.854   3.024  0.8546  2.1592 -0.3443
12416TIP3   OH258738   1.154   3.545   1.413  0.1460  0.6957  0.3184
12416TIP3    H158739   1.107   3.476   1.366 -0.6597  0.3913  1.5508
12416TIP3    H258740   1.246   3.518   1.408  0.3753  1.5994 -2.6333
12417TIP3   OH258741   1.070   2.793   2.535  0.2091  0.2636  0.3418
12417TIP3    H158742   1.133   2.836   2.592  0.5430 -0.6841  0.7020
12417TIP3    H258743   1.064   2.851   2.458  2.1191 -0.0062 -0.0637
12418TIP3   OH258744   1.602   4.889   0.172  0.0458 -0.5189 -0.2352
12418TIP3    H158745   1.590   4.932   0.256  0.1831  2.0158 -1.4343
12418TIP3    H258746   1.661   4.815   0.192  0.5817  0.3726  1.7707
12419TIP3   OH258747   1.407   2.514   1.289 -0.2594 -0.0989 -0.4016
12419TIP3    H158748   1.369   2.602   1.286  0.5981  0.2524 -1.5291
12419TIP3    H258749   1.338   2.460   1.329 -2.0776  0.4722 -2.5635
12420TIP3   OH258750   3.278   4.843  11.755  0.0139 -0.5131 -0.2825
12420TIP3    H158751   3.304   4.935  11.747 -2.6653  0.3073 -0.5410
12420TIP3    H258752   3.355   4.799  11.791  1.6456  1.6591 -0.9102
12421TIP3   OH258753   3.205   6.132  16.552  0.2499  0.4544 -0.1793
12421TIP3    H158754   3.294   6.163  16.539  0.6579  0.1250  1.5201
12421TIP3    H258755   3.153   6.211  16.563  0.3834  0.6373 -0.8152
12422TIP3   OH258756   1.196   1.029   6.023 -0.0192  0.1489 -0.9478
12422TIP3    H158757   1.227   1.119   6.023  0.2073  0.0713 -0.6085
12422TIP3    H258758   1.263   0.980   6.071  0.0394 -0.2599 -1.4296
12423TIP3   OH258759   1.256   2.639  15.559  0.2888  0.4210 -0.0414
12423TIP3    H158760   1.231   2.604  15.473 -0.5903  0.6334  0.1130
12423TIP3    H258761   1.273   2.562  15.612 -1.6101  0.1666  0.2906
12424TIP3   OH258762   4.548   4.752   1.793 -0.2289  0.5146  0.2763
12424TIP3    H158763   4.561   4.749   1.699  0.3014  1.9304  0.2799
12424TIP3    H258764   4.635   4.738   1.830 -0.4266  0.0096  0.5657
12425TIP3   OH258765   1.503   2.630  16.088  0.5433  0.1825  0.0832
12425TIP3    H158766   1.526   2.615  15.996  1.6570  2.3437 -0.0603
12425TIP3    H258767   1.557   2.569  16.137 -1.8990 -2.8853 -0.6770
12426TIP3   OH258768   6.319   1.746  12.307 -0.4179  0.3969 -0.4129
12426TIP3    H158769   6.310   1.841  12.301  0.1280  0.4458 -0.4963
12426TIP3    H258770   6.239   1.717  12.351  0.2099  1.0759  1.2448
12427TIP3   OH258771   2.984   0.745  12.824  0.3065  0.1581 -1.2105
12427TIP3    H158772   2.955   0.669  12.874  1.2556  0.7471  0.3290
12427TIP3    H258773   3.079   0.734  12.816  0.6234  1.6789  0.0027
12428TIP3   OH258774   5.054   5.962   2.320  0.1718 -0.0212 -0.3118
12428TIP3    H158775   5.129   5.902   2.323  0.1237 -0.0354  1.2585
12428TIP3    H258776   4.992   5.919   2.261  1.1678 -0.2608 -1.2273
12429TIP3   OH258777   6.474   4.161   4.936 -0.1425 -0.4270 -0.0494
12429TIP3    H158778   6.392   4.114   4.953 -0.3032  0.0202  0.4449
12429TIP3    H258779   6.464   4.244   4.983  0.9776 -0.7579  0.8248
12430TIP3   OH258780   2.431   4.146   2.086 -0.1352 -0.0289 -0.2973
12430TIP3    H158781   2.501   4.211   2.095 -2.2396  2.8122 -2.5722
12430TIP3    H258782   2.444   4.107   2.000 -0.2693 -0.9583  0.0844
12431TIP3   OH258783   1.429   0.662   0.759  0.1579  0.5165  0.4330
12431TIP3    H158784   1.382   0.626   0.683 -0.5883 -0.7306  1.4579
12431TIP3    H258785   1.497   0.717   0.720  0.3720 -0.7955 -1.1856
12432TIP3   OH258786   4.357   5.939  15.175  0.0275  0.3280 -0.1683
12432TIP3    H158787   4.388   5.864  15.123 -2.8905 -0.3305 -1.1559
12432TIP3    H258788   4.341   5.902  15.262 -0.6361 -0.0410 -0.4354
12433TIP3   OH258789   3.983   4.198  11.547  0.7858  0.4779  0.0568
12433TIP3    H158790   3.936   4.280  11.563  1.5564  0.6790  1.4120
12433TIP3    H258791   3.915   4.134  11.531  0.1326  1.1397  0.1439
12434TIP3   OH258792   4.232   1.866  12.786  0.2882  0.4636  0.6114
12434TIP3    H158793   4.183   1.911  12.855 -0.5081  1.4834 -0.5753
12434TIP3    H258794   4.285   1.801  12.832  0.4169  1.6880  2.2555
12435TIP3   OH258795   2.433   0.403   3.880  0.2223 -0.0771  0.0155
12435TIP3    H158796   2.490   0.352   3.822 -0.4664  0.0912 -0.8272
12435TIP3    H258797   2.494   0.451   3.936  0.9365  0.5508 -1.2483
12436TIP3   OH258798   5.452   2.872   5.125  0.0850  0.1207  0.3615
12436TIP3    H158799   5.367   2.916   5.121 -0.2212 -0.4687  0.3236
12436TIP3    H258800   5.466   2.856   5.218  1.0582  1.9375  0.5696
12437TIP3   OH258801   6.563   3.297  15.177  0.5158  0.2051  0.2407
12437TIP3    H158802   6.538   3.303  15.269  0.6283 -0.8808  0.3507
12437TIP3    H258803   6.575   3.388  15.150  1.5405  0.5080  1.5871
12438TIP3   OH258804   6.502   3.078   1.909  0.2403  0.4371  0.0309
12438TIP3    H158805   6.540   2.999   1.871  1.8530  0.8561  0.6906
12438TIP3    H258806   6.471   3.051   1.996  2.3137  0.8346  0.9565
12439TIP3   OH258807   4.328   1.935   0.210 -0.1027 -0.2492 -0.3441
12439TIP3    H158808   4.263   2.003   0.191 -1.5581 -1.4837  0.0317
12439TIP3    H258809   4.335   1.934   0.305  1.6946  0.9353 -0.4191
12440TIP3   OH258810   0.203   4.325  11.290 -0.1403 -0.0829  0.4797
12440TIP3    H158811   0.290   4.285  11.279 -0.1121 -0.0790  0.6950
12440TIP3    H258812   0.180   4.354  11.202 -0.4223 -1.0942  0.2053
12441TIP3   OH258813   5.868   4.709  11.620  0.8070 -0.3425 -0.7038
12441TIP3    H158814   5.933   4.657  11.667 -1.9499 -2.9323  0.5901
12441TIP3    H258815   5.807   4.739  11.688 -0.2108  0.6943 -2.0072
12442TIP3   OH258816   0.133   2.456  13.878  0.6142 -0.1097 -0.7886
12442TIP3    H158817   0.197   2.472  13.947 -1.7476 -2.3767  2.2486
12442TIP3    H258818   0.052   2.495  13.910 -0.3268 -0.1862 -2.8900
12443TIP3   OH258819   1.467   5.585   2.009 -0.4532  0.6590 -0.0613
12443TIP3    H158820   1.423   5.502   1.988 -1.5893  1.2437 -0.0130
12443TIP3    H258821   1.559   5.560   2.019 -0.6827 -0.5068 -0.6167
12444TIP3   OH258822   3.349   5.761   3.727  0.1569  1.0212 -0.1923
12444TIP3    H158823   3.420   5.700   3.706  1.7961  3.3964 -2.1067
12444TIP3    H258824   3.280   5.739   3.664  0.9021  1.3707 -1.1646
12445TIP3   OH258825   6.767   4.886   5.207 -0.1683  0.4281  0.5204
12445TIP3    H158826   6.830   4.922   5.145  1.1848 -1.5911  0.6204
12445TIP3    H258827   6.768   4.792   5.190  0.6627 -0.3070  3.9150
12446TIP3   OH258828   4.096   3.722   2.181 -0.5153 -0.5666 -0.5483
12446TIP3    H158829   4.183   3.746   2.148 -0.8613 -0.7063 -1.5873
12446TIP3    H258830   4.052   3.806   2.194  0.1775 -0.4289  1.1819
12447TIP3   OH258831   6.599   0.842  11.970 -0.2879  0.0356  0.3250
12447TIP3    H158832   6.552   0.925  11.972  0.0328  0.3098 -1.3579
12447TIP3    H258833   6.559   0.793  11.897  1.3047 -0.1433 -0.4722
12448TIP3   OH258834   5.097   2.959   6.861  0.1301 -0.6936  0.0663
12448TIP3    H158835   5.057   2.906   6.792  0.3576  0.0289 -0.6429
12448TIP3    H258836   5.106   3.046   6.821  0.6254 -0.3655  0.8804
12449TIP3   OH258837   2.975   3.052  14.773 -0.9312  0.9282 -0.3363
12449TIP3    H158838   3.055   3.040  14.720 -0.4560 -0.0309  0.5667
12449TIP3    H258839   2.977   3.145  14.798  1.0340  0.5109  1.3818
12450TIP3   OH258840   1.122   3.892   6.401  0.0495  0.1301 -0.6922
12450TIP3    H158841   1.173   3.814   6.422  0.5311  0.7254  0.4720
12450TIP3    H258842   1.169   3.932   6.327  0.9690  0.3571 -0.0114
12451TIP3   OH258843   0.188   5.751   0.185  0.1423 -0.2370  0.0651
12451TIP3    H158844   0.159   5.689   0.253 -1.4668 -0.0247 -0.3881
12451TIP3    H258845   0.192   5.835   0.230 -0.2275 -0.2220  0.0746
12452TIP3   OH258846   1.832   5.700   3.862  0.1473 -0.3603  0.7685
12452TIP3    H158847   1.891   5.769   3.831  0.5372 -1.3067 -0.6787
12452TIP3    H258848   1.829   5.712   3.957  0.0786  1.7286  0.5336
12453TIP3   OH258849   6.389   2.358  13.945 -0.1866 -0.0595  0.3276
12453TIP3    H158850   6.399   2.318  13.858  1.4534 -0.4707  0.6590
12453TIP3    H258851   6.453   2.430  13.944 -1.6995  1.3408  0.4457
12454TIP3   OH258852   0.025   2.617  14.173  0.4280 -0.4926  0.0576
12454TIP3    H158853   0.021   2.713  14.174 -1.4033 -0.5332  1.3567
12454TIP3    H258854   0.025   2.592  14.265 -1.3586 -1.7669 -0.2406
12455TIP3   OH258855   3.317   3.446  11.607 -0.4573  0.7918  0.4006
12455TIP3    H158856   3.320   3.363  11.558  0.4818  1.4709 -0.7609
12455TIP3    H258857   3.408   3.475  11.610 -0.9522  2.7414 -0.9804
12456TIP3   OH258858   1.764   6.024  13.065 -0.1839 -0.0269  0.1179
12456TIP3    H158859   1.812   6.095  13.109 -0.8766  0.5318  0.0070
12456TIP3    H258860   1.814   6.006  12.986 -0.4868  0.9909 -0.3223
12457TIP3   OH258861   1.667   1.932   1.384 -0.4837 -0.1829  0.3346
12457TIP3    H158862   1.692   1.973   1.301 -0.8045 -2.1781 -0.7993
12457TIP3    H258863   1.671   1.838   1.367 -3.7691 -0.6810  1.5743
12458TIP3   OH258864   0.252   1.263  17.076 -0.2334  0.5976  0.5407
12458TIP3    H158865   0.296   1.286  17.159  0.1205  0.3355  0.4313
12458TIP3    H258866   0.277   1.172  17.061 -0.6649  0.5066  0.3734
12459TIP3   OH258867   0.930   1.356  15.219  0.1005  0.2356  0.2723
12459TIP3    H158868   0.926   1.283  15.281 -0.0469  0.2571  0.2881
12459TIP3    H258869   0.930   1.434  15.273  1.1407  0.2395  0.2984
12460TIP3   OH258870   4.228   1.580   1.163 -0.2787 -0.1602  0.0489
12460TIP3    H158871   4.316   1.578   1.200  0.0912 -1.8469 -0.8031
12460TIP3    H258872   4.203   1.672   1.164  1.3751  0.3145  0.5814
12461TIP3   OH258873   6.242   3.059   1.554  0.2967 -0.2147  0.6867
12461TIP3    H158874   6.275   2.971   1.536  0.4372 -0.0099 -0.0782
12461TIP3    H258875   6.153   3.045   1.587 -0.5466 -0.5630 -1.5519
12462TIP3   OH258876   1.906   1.635  13.151 -0.1593  0.3686  0.4892
12462TIP3    H158877   1.978   1.697  13.159  0.9825 -0.7355 -0.6370
12462TIP3    H258878   1.941   1.566  13.094 -1.1904 -1.5565  2.0630
12463TIP3   OH258879   2.617   3.052   3.189  0.5425  0.3708  0.4423
12463TIP3    H158880   2.672   3.042   3.267 -0.6966  0.7393  1.3826
12463TIP3    H258881   2.617   2.965   3.149  1.1592  0.1627  0.8714
12464TIP3   OH258882   0.429   1.259  11.031 -0.0263  0.0902  0.2528
12464TIP3    H158883   0.370   1.310  11.087 -0.3115  0.1158 -0.0689
12464TIP3    H258884   0.405   1.168  11.047  1.3907 -0.0499  1.8603
12465TIP3   OH258885   2.359   3.819  15.062 -0.2879  0.7953  0.2122
12465TIP3    H158886   2.404   3.830  14.979  1.4967  1.0056  1.1745
12465TIP3    H258887   2.297   3.747  15.046  0.7296  0.1605 -1.0151
12466TIP3   OH258888   0.095   6.677   4.854  0.0067 -0.1649 -0.0694
12466TIP3    H158889   0.030   6.622   4.897 -0.7672  0.9714  0.2477
12466TIP3    H258890   0.120   6.742   4.920  0.4602  0.2317 -0.6187
12467TIP3   OH258891   1.033   5.097   0.876 -0.0844 -0.6633 -0.6408
12467TIP3    H158892   1.122   5.121   0.903 -0.5584  1.2446 -0.6161
12467TIP3    H258893   1.023   5.006   0.903  1.6718 -0.7481 -0.1675
12468TIP3   OH258894   3.589   4.410   0.952 -0.8041  0.2762  0.2157
12468TIP3    H158895   3.509   4.414   1.004 -1.5645 -2.3966 -0.6235
12468TIP3    H258896   3.649   4.357   1.006 -0.0105  1.2068  0.2770
12469TIP3   OH258897   2.882   3.135   6.548 -0.0034  0.1751 -0.0505
12469TIP3    H158898   2.897   3.180   6.632  0.0367 -0.6991  0.4167
12469TIP3    H258899   2.934   3.055   6.554 -0.6039 -0.2649 -0.5978
12470TIP3   OH258900   4.349   6.591  15.269  0.1090  0.2982  0.1845
12470TIP3    H158901   4.380   6.632  15.188  1.8231  0.3202  0.8010
12470TIP3    H258902   4.419   6.530  15.293  0.1191  0.9986  2.1606
12471TIP3   OH258903   3.678   3.463  14.059 -0.1754  0.0002  0.1762
12471TIP3    H158904   3.665   3.419  13.975  0.9563 -0.5323  0.2702
12471TIP3    H258905   3.735   3.404  14.108 -2.6955 -0.8668  2.2573
12472TIP3   OH258906   6.261   5.758   5.614 -0.2453  0.1729  0.0133
12472TIP3    H158907   6.249   5.666   5.591  2.0605  0.1124 -1.3295
12472TIP3    H258908   6.175   5.798   5.604 -1.4083 -1.8943  1.1036
12473TIP3   OH258909   3.933   1.228  15.937 -0.6959 -0.2540  0.3263
12473TIP3    H158910   3.877   1.296  15.898  0.3808  0.4840  0.0124
12473TIP3    H258911   3.885   1.147  15.922 -1.4451  0.2971 -0.4046
12474TIP3   OH258912   2.876   2.503  16.201  0.1590 -0.0744  0.1402
12474TIP3    H158913   2.948   2.519  16.262  0.1444  1.7703 -0.2686
12474TIP3    H258914   2.918   2.467  16.123  0.6649  1.0397 -0.1164
12475TIP3   OH258915   1.125   2.101  11.214  0.4438  0.3797  0.2838
12475TIP3    H158916   1.208   2.127  11.254  1.0082 -0.2099 -0.4789
12475TIP3    H258917   1.107   2.168  11.149  1.0743 -0.2376 -0.5535
12476TIP3   OH258918   1.640   5.165   4.193  1.1420  0.3586  0.1743
12476TIP3    H158919   1.675   5.083   4.157  1.3814  1.3460 -2.0218
12476TIP3    H258920   1.617   5.144   4.283  0.4564 -2.3603 -0.5338
12477TIP3   OH258921   4.392   0.869   0.174 -0.1556 -0.3207 -0.6363
12477TIP3    H158922   4.296   0.860   0.177 -0.0411 -2.3629 -1.2424
12477TIP3    H258923   4.422   0.786   0.136  2.0033 -0.6847  1.6006
12478TIP3   OH258924   0.704   0.750  16.334  0.2465 -0.3808  0.1512
12478TIP3    H158925   0.767   0.810  16.374 -0.2769 -0.4648  1.1404
12478TIP3    H258926   0.618   0.787  16.355 -0.0545 -0.1184 -1.4256
12479TIP3   OH258927   2.749   3.910   3.931 -0.0228  0.1799  0.4162
12479TIP3    H158928   2.763   3.824   3.892 -1.0679 -0.6236  1.7451
12479TIP3    H258929   2.661   3.907   3.967  0.9818  0.7058  3.1593
12480TIP3   OH258930   3.618   2.701   4.860 -0.3222  0.0645 -0.1479
12480TIP3    H158931   3.692   2.754   4.830  1.1550 -0.6983  1.9271
12480TIP3    H258932   3.571   2.757   4.921 -0.8086  0.1471 -0.5902
12481TIP3   OH258933   6.793   2.284   2.821 -0.7533  0.3068  0.3628
12481TIP3    H158934   6.828   2.226   2.754 -0.1296 -0.2727  1.1733
12481TIP3    H258935   6.698   2.275   2.813 -0.7371  1.2349 -1.2816
12482TIP3   OH258936   5.559   0.891  13.781  0.2712  0.1568 -0.3380
12482TIP3    H158937   5.550   0.859  13.871 -1.5323  0.3194 -0.4439
12482TIP3    H258938   5.527   0.981  13.784  0.9267  0.4205 -0.9995
12483TIP3   OH258939   4.026   5.996   6.269 -0.2319 -0.0161 -0.8430
12483TIP3    H158940   4.012   5.909   6.306  0.5161  0.6459  1.1176
12483TIP3    H258941   3.973   6.055   6.324  0.5218  0.9516 -1.1211
12484TIP3   OH258942   5.708   1.899  14.328 -0.2945 -0.3135 -0.2197
12484TIP3    H158943   5.739   1.814  14.297  1.0590  1.0723 -3.1115
12484TIP3    H258944   5.720   1.897  14.422  1.7491 -2.5511 -0.4359
12485TIP3   OH258945   6.668   3.552  12.745  0.5745 -0.3660  0.5317
12485TIP3    H158946   6.593   3.579  12.799 -0.9581  0.3928 -1.8294
12485TIP3    H258947   6.727   3.627  12.746  1.0277 -0.7111  1.8507
12486TIP3   OH258948   4.790   4.730   5.193  0.1095 -0.3331  0.2088
12486TIP3    H158949   4.841   4.680   5.129  0.5992 -1.1685  1.2259
12486TIP3    H258950   4.854   4.757   5.259 -0.3834  0.5295  0.3489
12487TIP3   OH258951   3.535   1.134  17.238  0.3833  0.2371  0.6247
12487TIP3    H158952   3.518   1.045  17.268 -2.4543  0.2516 -0.6686
12487TIP3    H258953   3.484   1.190  17.297  0.2862  0.8111  0.0067
12488TIP3   OH258954   3.097   6.051  14.654  0.0970  0.5847  0.4399
12488TIP3    H158955   3.109   5.961  14.685  0.3239 -0.1846 -1.7487
12488TIP3    H258956   3.027   6.086  14.710  0.4107 -0.7222  1.7234
12489TIP3   OH258957   2.894   3.060  11.555 -0.6916  0.1278 -0.3312
12489TIP3    H158958   2.866   3.142  11.515  0.6148  0.4905 -0.5364
12489TIP3    H258959   2.880   3.074  11.649 -1.3522  0.2188 -0.4340
12490TIP3   OH258960   2.083   4.835  11.964 -0.0566  0.1160  0.2283
12490TIP3    H158961   2.016   4.897  11.992 -0.5909  0.4074 -1.5653
12490TIP3    H258962   2.069   4.758  12.018 -0.7092  0.8095  1.0758
12491TIP3   OH258963   3.125   6.554  13.347  0.5035  0.0206  0.2919
12491TIP3    H158964   3.144   6.638  13.306 -2.7963  0.4957 -0.5439
12491TIP3    H258965   3.077   6.575  13.426  0.5343 -1.0808  0.6274
12492TIP3   OH258966   2.667   3.709   6.718 -0.1663  0.0391  0.1915
12492TIP3    H158967   2.731   3.739   6.654 -0.8305 -1.3255 -1.1901
12492TIP3    H258968   2.675   3.613   6.717 -2.0772 -0.1585  0.1154
12493TIP3   OH258969   2.631   6.264  15.668  0.1761 -0.0366  0.2296
12493TIP3    H158970   2.593   6.282  15.754  0.6694  1.1756  0.2106
12493TIP3    H258971   2.716   6.224  15.687 -0.7699 -2.1615  0.2737
12494TIP3   OH258972   3.173   2.576  15.078 -0.2679 -0.5277 -0.1437
12494TIP3    H158973   3.085   2.542  15.061  0.0796 -3.0634  2.4332
12494TIP3    H258974   3.230   2.500  15.071  1.3440  0.5358  0.8369
12495TIP3   OH258975   1.534   3.020  11.253  0.1699  0.0343  0.1744
12495TIP3    H158976   1.509   3.079  11.325 -0.5099 -0.3609  0.2636
12495TIP3    H258977   1.461   3.025  11.192  0.0679 -0.7859  0.2221
12496TIP3   OH258978   0.657   0.891   5.044 -0.7332  0.2706  0.2430
12496TIP3    H158979   0.655   0.981   5.012  0.1375  0.4480  0.6483
12496TIP3    H258980   0.746   0.861   5.025 -1.5650 -1.2072 -1.7501
12497TIP3   OH258981   3.013   1.252   5.295  0.0884  0.1381  0.0184
12497TIP3    H158982   2.939   1.273   5.351 -0.8408  0.1549 -1.1872
12497TIP3    H258983   3.077   1.321   5.312 -0.7288  0.8921  0.0605
12498TIP3   OH258984   6.023   2.837  11.116 -0.3115 -0.5630  0.1748
12498TIP3    H158985   5.998   2.844  11.024  1.5295 -1.3534 -0.4314
12498TIP3    H258986   5.965   2.898  11.161 -2.1377 -1.0983 -1.3100
12499TIP3   OH258987   0.731   0.863  15.624 -0.5950 -0.1689 -0.0473
12499TIP3    H158988   0.737   0.801  15.696  0.2848 -1.1195 -0.9051
12499TIP3    H258989   0.752   0.948  15.664 -0.0475 -0.6857  0.8028
12500TIP3   OH258990   0.789   2.454   3.519  0.8896  0.4167 -0.3862
12500TIP3    H158991   0.712   2.451   3.576  2.1522  0.8526  1.4442
12500TIP3    H258992   0.806   2.363   3.497 -1.5492  0.4506 -2.9205
12501TIP3   OH258993   6.297   5.011   3.198  0.1000  0.0225  0.1030
12501TIP3    H158994   6.377   5.030   3.151  0.5194  0.9827  1.1562
12501TIP3    H258995   6.315   4.929   3.245  0.8782  0.7949  1.1959
12502TIP3   OH258996   0.279   2.990  14.042  1.0434 -0.4024 -0.0096
12502TIP3    H158997   0.220   3.062  14.018  0.1577 -0.9629  0.4078
12502TIP3    H258998   0.367   3.025  14.028  0.6759  1.1767  1.2981
12503TIP3   OH258999   1.308   3.729  15.737  0.3423  0.2194 -0.6361
12503TIP3    H159000   1.344   3.798  15.681 -1.1855  1.2740 -0.3927
12503TIP3    H259001   1.287   3.774  15.819  0.0307 -0.7205 -0.1867
12504TIP3   OH259002   3.586   1.980  11.274  0.0762 -0.3916  0.7168
12504TIP3    H159003   3.679   1.993  11.253 -0.1306  0.1175  0.1222
12504TIP3    H259004   3.588   1.923  11.351  0.8940 -0.0092  0.9913
12505TIP3   OH259005   0.109   1.307  11.319 -0.0096  0.2841  0.1198
12505TIP3    H159006   0.127   1.213  11.316 -1.3106  0.0471 -1.5323
12505TIP3    H259007   0.014   1.314  11.316  0.0471  1.6666  0.6340
12506TIP3   OH259008   2.647   4.632  13.932 -0.5141 -0.4000  0.3047
12506TIP3    H159009   2.742   4.635  13.941 -0.5575  0.4783  0.5568
12506TIP3    H259010   2.614   4.674  14.011 -1.0487  1.4625 -0.8508
12507TIP3   OH259011   4.938   1.808  17.167 -0.4868  0.7388  0.5059
12507TIP3    H159012   5.008   1.754  17.203  0.0622  0.5672 -0.7788
12507TIP3    H259013   4.890   1.839  17.244  0.8300  0.6471  1.3912
12508TIP3   OH259014   1.156   0.030  12.059  0.2357  0.0577  0.1485
12508TIP3    H159015   1.099   0.008  11.985  0.8057 -0.5917 -0.0997
12508TIP3    H259016   1.120  -0.019  12.132  1.0206 -1.1120 -0.2209
12509TIP3   OH259017   5.979   5.885  16.319  0.2888 -0.3193 -0.2005
12509TIP3    H159018   6.011   5.968  16.354  1.2999 -0.2251 -1.2545
12509TIP3    H259019   5.966   5.829  16.396 -0.0907  0.7034  0.4916
12510TIP3   OH259020   0.019   0.415   4.118 -0.3961  1.0531  0.5234
12510TIP3    H159021   0.042   0.454   4.034  0.5625  0.0963  0.3305
12510TIP3    H259022  -0.033   0.338   4.096  1.5757 -0.3855  0.6779
12511TIP3   OH259023   5.183   1.901   3.881  0.3890 -0.1023 -0.4345
12511TIP3    H159024   5.275   1.884   3.900  0.6674  0.5906 -1.0961
12511TIP3    H259025   5.147   1.933   3.963  0.3051 -1.9881  0.3139
12512TIP3   OH259026   2.958   1.131   0.924  0.2774  0.3325 -0.0375
12512TIP3    H159027   3.008   1.049   0.927  0.6295  0.5626  0.5852
12512TIP3    H259028   2.967   1.161   0.834 -0.4685 -0.6879 -0.4668
12513TIP3   OH259029   0.649   5.540   4.338 -0.1325 -0.0817 -0.1896
12513TIP3    H159030   0.714   5.538   4.267 -1.7103 -0.9508 -1.6947
12513TIP3    H259031   0.608   5.454   4.335 -2.3272  0.8974 -0.2499
12514TIP3   OH259032   4.006   1.370  11.408 -0.0663  0.0894 -0.0027
12514TIP3    H159033   4.016   1.417  11.325  0.1346 -1.4463 -0.8919
12514TIP3    H259034   4.094   1.366  11.445  0.1121 -0.4749 -0.4591
12515TIP3   OH259035   2.973   3.494  16.148 -0.5202 -0.1065  0.5801
12515TIP3    H159036   2.986   3.480  16.242 -0.7959 -1.3477  0.4524
12515TIP3    H259037   2.984   3.588  16.136 -0.2823  0.0418  1.8250
12516TIP3   OH259038   4.727   5.608   1.899 -0.3820  0.5223  0.6557
12516TIP3    H159039   4.823   5.601   1.905 -0.2046  2.1772  0.4653
12516TIP3    H259040   4.713   5.698   1.869 -1.9521 -0.1726 -0.8559
12517TIP3   OH259041   0.874   2.879  16.232  0.1909 -0.0977 -0.4035
12517TIP3    H159042   0.834   2.954  16.188 -0.4927 -1.2733 -1.8683
12517TIP3    H259043   0.821   2.866  16.310  0.2241  0.8364 -0.2116
12518TIP3   OH259044   3.410   0.524  14.024  0.2015 -0.1848 -0.3099
12518TIP3    H159045   3.413   0.586  13.951  1.4892 -0.3110 -0.3857
12518TIP3    H259046   3.492   0.538  14.071 -0.5305 -0.2288  1.0343
12519TIP3   OH259047   2.545   5.030   1.888 -0.3278  0.2465 -0.1657
12519TIP3    H159048   2.455   5.062   1.877  0.0273  1.8535  1.2049
12519TIP3    H259049   2.588   5.097   1.941  1.6729 -0.5374 -0.7137
12520TIP3   OH259050   3.867   1.589   4.325  0.3211  0.5655  0.0680
12520TIP3    H159051   3.850   1.516   4.384  0.3981  0.1513 -0.4055
12520TIP3    H259052   3.800   1.653   4.345  0.2820  0.3829  0.5265
12521TIP3   OH259053   6.070   3.564   4.300  0.3541  0.3487 -0.0530
12521TIP3    H159054   6.160   3.582   4.327 -0.1359  0.7392  1.4307
12521TIP3    H259055   6.024   3.647   4.315 -1.1576 -0.9437  3.3983
12522TIP3   OH259056   1.032   0.244  16.905 -0.2746  0.1446  0.3659
12522TIP3    H159057   1.007   0.225  16.814 -0.4373 -0.4761  0.5336
12522TIP3    H259058   1.005   0.166  16.954 -1.9858  1.2665  1.2848
12523TIP3   OH259059   2.493   1.654   4.822  0.4954 -0.4017 -0.2341
12523TIP3    H159060   2.399   1.666   4.835  0.5262 -0.9002  0.5278
12523TIP3    H259061   2.514   1.576   4.873  1.1726 -0.7763 -1.0704
12524TIP3   OH259062   2.895   3.131  12.622  0.0071 -0.1574  0.3457
12524TIP3    H159063   2.846   3.048  12.626  0.1154 -0.2266  0.2561
12524TIP3    H259064   2.898   3.162  12.712 -1.8442  0.8116  0.1146
12525TIP3   OH259065   0.474   5.734   4.304  0.2257 -0.0558  0.4321
12525TIP3    H159066   0.559   5.690   4.302  0.6083  0.6838  0.0070
12525TIP3    H259067   0.410   5.664   4.290  0.8217 -0.4816 -0.2116
12526TIP3   OH259068   4.859   4.446  12.362 -0.1007  0.2715 -0.5602
12526TIP3    H159069   4.766   4.459  12.342 -0.4360  0.8361  1.1558
12526TIP3    H259070   4.859   4.399  12.445  1.1379  1.0149 -0.1108
12527TIP3   OH259071   6.743   1.260   1.253  0.1754  0.2994 -0.3618
12527TIP3    H159072   6.825   1.301   1.279  0.1475 -0.4115  0.9561
12527TIP3    H259073   6.717   1.208   1.329 -1.1729  0.0089 -0.9810
12528TIP3   OH259074   5.687   0.294   0.854 -0.0049  0.0182  0.2102
12528TIP3    H159075   5.769   0.335   0.828 -0.8603  0.9507 -1.1884
12528TIP3    H259076   5.623   0.366   0.854 -0.6634 -0.4970  2.1938
12529TIP3   OH259077   2.499   6.419   0.236  0.2308  0.1162  0.4749
12529TIP3    H159078   2.539   6.475   0.303 -0.8615 -0.0376  1.2785
12529TIP3    H259079   2.573   6.387   0.185  0.9093  2.0217  0.1908
12530TIP3   OH259080   2.982   0.070  11.594 -0.3070  0.2316  0.6441
12530TIP3    H159081   2.917   0.140  11.585 -0.1840  0.4410  1.3788
12530TIP3    H259082   2.933  -0.003  11.631 -0.4813 -0.1477 -0.3097
12531TIP3   OH259083   2.309   0.222  12.515  0.2606 -0.1409  0.3760
12531TIP3    H159084   2.392   0.270  12.518  0.0790  0.2046 -0.0926
12531TIP3    H259085   2.282   0.227  12.424 -0.5015  0.1279  0.6110
12532TIP3   OH259086   5.591   5.076   5.733 -0.1424  0.0481 -0.0554
12532TIP3    H159087   5.665   5.132   5.707  3.2024 -1.7543  4.3131
12532TIP3    H259088   5.555   5.118   5.811 -2.4070 -0.2963 -0.8378
12533TIP3   OH259089   1.985   0.055  14.939  0.0752  0.1053  0.0156
12533TIP3    H159090   2.017   0.088  15.023  0.5971 -1.2721  0.3896
12533TIP3    H259091   2.016   0.119  14.875 -0.2630  1.1375  0.8412
12534TIP3   OH259092   3.029   4.035   3.438  0.3294 -0.0969  0.5404
12534TIP3    H159093   2.972   4.094   3.487  0.7053 -0.4882  1.4791
12534TIP3    H259094   2.975   4.005   3.365  0.2616  1.6860 -0.1817
12535TIP3   OH259095   0.515   5.004  15.987 -0.6305 -0.5158  0.0083
12535TIP3    H159096   0.574   4.929  15.976 -0.7823 -0.4841 -1.1367
12535TIP3    H259097   0.493   5.030  15.897 -1.6951  0.0118  0.4092
12536TIP3   OH259098   6.353   6.024   2.132  0.3041  0.0024 -0.0389
12536TIP3    H159099   6.363   5.935   2.100  0.6429 -0.2458  0.7365
12536TIP3    H259100   6.442   6.050   2.159  0.0214  0.1943  0.7101
12537TIP3   OH259101   2.589   5.587   1.336 -0.1840  0.4444  0.3481
12537TIP3    H159102   2.578   5.524   1.265 -0.3079  0.4017  0.4057
12537TIP3    H259103   2.660   5.644   1.306 -0.6541  0.8158 -0.0829
12538TIP3   OH259104   2.823   3.256   1.983 -0.1528 -0.5751 -0.0559
12538TIP3    H159105   2.735   3.261   2.019  0.0971 -1.0355  0.6260
12538TIP3    H259106   2.826   3.171   1.940  0.4393 -1.2303  1.2328
12539TIP3   OH259107   4.002   2.530   0.593 -0.0273 -0.1609 -0.2207
12539TIP3    H159108   4.095   2.538   0.571  0.0173  2.0454  0.5214
12539TIP3    H259109   3.991   2.438   0.616  2.4718 -0.0944  1.7133
12540TIP3   OH259110   1.392   2.430  15.820 -0.2971 -0.7809 -0.6123
12540TIP3    H159111   1.400   2.516  15.861  0.9043 -1.1259 -0.0881
12540TIP3    H259112   1.453   2.433  15.746  0.6049 -1.5494  0.0791
12541TIP3   OH259113   3.377   6.631  14.015  0.0052  0.3521 -0.8791
12541TIP3    H159114   3.302   6.572  14.018 -0.7686  1.3410  0.5202
12541TIP3    H259115   3.368   6.684  14.094  0.9889  1.9403 -1.7928
12542TIP3   OH259116   2.998   5.782   1.432  0.1288 -0.2140 -0.0556
12542TIP3    H159117   2.985   5.774   1.527 -0.4823 -0.4892 -0.1631
12542TIP3    H259118   2.997   5.877   1.416  1.8400 -0.0726  0.4269
12543TIP3   OH259119   5.995   4.550   3.036 -0.4442 -0.2464 -1.0030
12543TIP3    H159120   6.000   4.627   3.093 -1.9439 -0.4550 -0.5392
12543TIP3    H259121   5.926   4.572   2.973 -0.6273 -1.0505 -1.0973
12544TIP3   OH259122   0.256   2.207   5.386  0.0919  0.0220  0.5914
12544TIP3    H159123   0.294   2.134   5.337  0.2726 -0.4949  1.4766
12544TIP3    H259124   0.172   2.224   5.344  0.8070  0.4763 -0.7282
12545TIP3   OH259125   1.933   1.289  16.737 -0.4965  0.0123  0.1005
12545TIP3    H159126   1.894   1.201  16.742 -0.2949 -0.2693 -2.2030
12545TIP3    H259127   1.861   1.345  16.709 -0.1797  0.2172 -0.3111
12546TIP3   OH259128   3.110   1.386  15.459 -0.3875  0.0821 -0.3657
12546TIP3    H159129   3.136   1.302  15.422 -0.1284  0.8265 -1.9766
12546TIP3    H259130   3.020   1.399  15.429 -1.1109 -0.4429  1.4513
12547TIP3   OH259131   3.134   0.775   3.811 -0.4138  0.5604 -0.1592
12547TIP3    H159132   3.190   0.803   3.883 -0.6415  1.7973 -0.4538
12547TIP3    H259133   3.068   0.843   3.803 -1.3692 -0.3733 -0.4873
12548TIP3   OH259134   2.235   6.726   3.647  0.1253  0.6364  0.5354
12548TIP3    H159135   2.304   6.668   3.679 -0.3653 -0.4328 -0.2823
12548TIP3    H259136   2.210   6.778   3.723 -0.5947 -1.4148  1.7761
12549TIP3   OH259137   0.927   3.376   2.354  0.4763  0.0990  0.1671
12549TIP3    H159138   1.010   3.395   2.311 -1.0125  1.2345 -2.4576
12549TIP3    H259139   0.883   3.315   2.295 -0.5835 -0.4659  1.4892
12550TIP3   OH259140   1.929   3.425   0.112  0.1391  0.3941  0.1215
12550TIP3    H159141   1.933   3.513   0.074  0.1113 -0.3833 -1.7922
12550TIP3    H259142   2.013   3.415   0.157  0.3187  1.2549 -0.0012
12551TIP3   OH259143   2.866   5.115  16.997 -0.1285 -0.3940  0.0431
12551TIP3    H159144   2.771   5.106  17.009 -0.4333 -0.0843 -1.8728
12551TIP3    H259145   2.877   5.200  16.956  1.2828  0.8422  2.7303
12552TIP3   OH259146   3.065   1.646   6.495  0.5924 -0.0810  0.5535
12552TIP3    H159147   3.103   1.722   6.450  0.1128  0.2333  0.6796
12552TIP3    H259148   3.002   1.610   6.432 -0.0895  0.3673  0.9735
12553TIP3   OH259149   2.051   1.546  14.147 -0.2914 -0.2851 -0.5932
12553TIP3    H159150   2.049   1.543  14.052 -1.5568  0.8537 -0.6223
12553TIP3    H259151   2.144   1.537  14.169  0.1608  0.7569 -1.9791
12554TIP3   OH259152   0.974   2.330   5.847 -0.3147  0.3351 -0.0691
12554TIP3    H159153   1.061   2.290   5.844  0.0134  0.6157  2.8443
12554TIP3    H259154   0.932   2.291   5.924 -3.1087 -0.2953 -1.7351
12555TIP3   OH259155   5.273   0.076   3.769  0.4000  0.2565 -0.1376
12555TIP3    H159156   5.178   0.069   3.762  0.4335  0.1962 -0.6064
12555TIP3    H259157   5.305   0.042   3.685  0.8889 -0.7887  0.4579
12556TIP3   OH259158   3.889   0.925  16.374  0.4235 -0.0779 -0.1471
12556TIP3    H159159   3.822   0.969  16.427  1.6820  0.0965  1.3998
12556TIP3    H259160   3.847   0.845  16.343 -0.8318  0.5573 -0.1519
12557TIP3   OH259161   4.603   3.526   4.354 -0.1631  0.0668  0.7919
12557TIP3    H159162   4.565   3.612   4.336  0.9509  0.7737  1.6242
12557TIP3    H259163   4.532   3.476   4.395 -0.9079  0.4817  0.0285
12558TIP3   OH259164   5.531   6.557  16.784 -0.3088 -0.3417  0.0324
12558TIP3    H159165   5.497   6.639  16.748 -0.8408 -0.0199  1.2332
12558TIP3    H259166   5.453   6.508  16.811 -0.1567 -2.1199 -2.3870
12559TIP3   OH259167   0.890   2.148   3.662 -0.2445 -0.1019  0.4397
12559TIP3    H159168   0.978   2.186   3.662 -0.7758  1.2543  1.8444
12559TIP3    H259169   0.889   2.089   3.587  1.4220  0.8713 -0.4002
12560TIP3   OH259170   0.140   1.827   2.656 -0.4763  0.4393 -0.1827
12560TIP3    H159171   0.169   1.779   2.578  0.5839 -0.4170  0.6820
12560TIP3    H259172   0.086   1.764   2.703  1.4608 -0.2463  1.2914
12561TIP3   OH259173   2.563   4.338  14.460  0.4499  0.0313  0.6172
12561TIP3    H159174   2.468   4.346  14.474  0.3737 -0.0341  0.1560
12561TIP3    H259175   2.601   4.347  14.547  0.0865  1.1013  0.6727
12562TIP3   OH259176   3.744   5.885   0.923 -0.2522  0.1123  0.0353
12562TIP3    H159177   3.798   5.819   0.880  1.6305  1.9139 -0.5130
12562TIP3    H259178   3.764   5.967   0.877 -4.6251  0.7599 -1.2771
12563TIP3   OH259179   2.301   0.808   2.417  0.1101  0.4109 -0.4749
12563TIP3    H159180   2.353   0.762   2.484  1.6600  0.0873 -1.8283
12563TIP3    H259181   2.245   0.867   2.467 -0.2195 -1.2168  1.2040
12564TIP3   OH259182   1.483   6.069  13.017  0.3252  0.6883 -0.1664
12564TIP3    H159183   1.570   6.029  13.014  0.2100  0.4531 -0.3709
12564TIP3    H259184   1.456   6.076  12.926 -0.9383 -1.5938 -0.0322
12565TIP3   OH259185   1.087   3.744   4.004  0.3365 -0.4754  0.0564
12565TIP3    H159186   1.079   3.660   4.050  0.8118 -0.4754  0.1435
12565TIP3    H259187   1.046   3.729   3.919 -1.0535 -0.3150  0.6796
12566TIP3   OH259188   4.131   3.040   2.264 -0.5513  0.5289  0.1635
12566TIP3    H159189   4.174   3.002   2.340 -1.6808 -0.9035  0.1260
12566TIP3    H259190   4.197   3.039   2.195  0.0097  0.3987  0.6985
12567TIP3   OH259191   2.862   2.764   0.657  0.2603 -0.7188  0.1796
12567TIP3    H159192   2.877   2.732   0.746  0.9659  0.6760  0.5868
12567TIP3    H259193   2.945   2.807   0.632 -0.8087  1.3315 -0.0710
12568TIP3   OH259194   1.916   4.460   4.534 -0.1295  0.6007  0.5692
12568TIP3    H159195   1.827   4.428   4.545 -0.8971  2.5897  0.6800
12568TIP3    H259196   1.969   4.382   4.521 -1.6687 -0.7291  1.9292
12569TIP3   OH259197   4.333   4.024  13.993 -0.1672  0.5760  0.1424
12569TIP3    H159198   4.402   4.090  14.005 -0.1089  0.2577  1.8887
12569TIP3    H259199   4.358   3.978  13.913  1.8629  0.2581  0.8817
12570TIP3   OH259200   1.682   0.967  16.698 -0.7153  0.2144  0.2566
12570TIP3    H159201   1.695   0.921  16.780 -0.8947 -1.6205 -0.7068
12570TIP3    H259202   1.594   1.003  16.704 -0.6742  0.2118  0.9100
12571TIP3   OH259203   5.943   2.888  10.860  0.2465 -0.4327 -0.5476
12571TIP3    H159204   6.016   2.834  10.829  1.1156  0.1715  0.4001
12571TIP3    H259205   5.958   2.973  10.818  0.8694  0.0929  0.6891
12572TIP3   OH259206   6.767   6.412  10.699 -0.1491 -0.1618  0.1609
12572TIP3    H159207   6.672   6.423  10.700 -0.1578  0.5488 -1.8318
12572TIP3    H259208   6.801   6.502  10.704  0.2962 -0.1883 -1.6176
12573TIP3   OH259209   5.911   0.877  14.779 -0.0560 -0.1518 -0.0561
12573TIP3    H159210   5.979   0.861  14.845 -0.2893 -0.6923  0.0569
12573TIP3    H259211   5.831   0.842  14.818 -0.5626  1.1489  0.1297
12574TIP3   OH259212   6.217   6.530   3.043  0.1527 -0.4967 -0.2961
12574TIP3    H159213   6.231   6.524   3.137  0.0507 -3.0160 -0.3895
12574TIP3    H259214   6.272   6.462   3.005  0.2386  0.4885 -2.0968
12575TIP3   OH259215   2.296   3.859   2.190 -0.3414 -0.4837  0.2012
12575TIP3    H159216   2.281   3.889   2.101  0.6527 -0.5225  0.0101
12575TIP3    H259217   2.316   3.938   2.240 -0.2908 -0.5306  0.2568
12576TIP3   OH259218   2.399   5.820   4.344  0.0489 -0.3389  0.6570
12576TIP3    H159219   2.463   5.766   4.389 -1.2265 -1.8135  0.7809
12576TIP3    H259220   2.445   5.902   4.325  1.8384 -1.2202  1.0235
12577TIP3   OH259221   4.590   0.565   0.975 -0.1733  0.1239  0.0877
12577TIP3    H159222   4.542   0.627   0.920  2.5258  0.5654 -1.9952
12577TIP3    H259223   4.618   0.617   1.050  0.9677  1.1314 -1.0006
12578TIP3   OH259224   3.346   2.690   2.775  0.8081  0.1850 -0.1135
12578TIP3    H159225   3.376   2.750   2.844  0.9279 -2.0945  1.9782
12578TIP3    H259226   3.424   2.642   2.750  0.1996 -1.1763  0.5047
12579TIP3   OH259227   6.460   2.702  13.392 -0.3864  0.1135  0.1993
12579TIP3    H159228   6.458   2.666  13.304 -1.5159 -1.4548  0.8172
12579TIP3    H259229   6.402   2.778  13.389 -0.0681  0.3297 -0.5077
12580TIP3   OH259230   4.996   1.258  13.061 -0.8618  0.0157  0.3571
12580TIP3    H159231   4.957   1.183  13.106 -0.6354 -0.1045  0.3509
12580TIP3    H259232   4.979   1.242  12.968 -1.1719  0.1750  0.3834
12581TIP3   OH259233   2.109   5.581   5.990  0.1394  0.3292 -0.2301
12581TIP3    H159234   2.102   5.540   5.903  0.3783  0.3384 -0.2544
12581TIP3    H259235   2.071   5.668   5.979 -0.4766  0.0755 -0.1509
12582TIP3   OH259236   0.550   5.070   0.805 -1.0850 -0.0483 -0.1890
12582TIP3    H159237   0.591   5.125   0.871  0.7226 -0.2324 -1.0924
12582TIP3    H259238   0.460   5.057   0.837 -0.3663  0.0594  2.0858
12583TIP3   OH259239   0.557   3.350  15.029  0.7309  0.0233 -0.3819
12583TIP3    H159240   0.625   3.410  14.997  1.3474 -0.3295  0.2341
12583TIP3    H259241   0.512   3.399  15.098 -0.2995  0.6152 -1.4320
12584TIP3   OH259242   2.611   2.554   1.363 -0.0701 -0.1927 -0.0666
12584TIP3    H159243   2.693   2.572   1.318 -0.5873 -1.0487 -1.4316
12584TIP3    H259244   2.636   2.542   1.455  0.8699  2.6768  0.1445
12585TIP3   OH259245   1.573   0.099  15.464  0.4796 -0.1743  0.3187
12585TIP3    H159246   1.480   0.082  15.479  0.3788  1.2703  1.5560
12585TIP3    H259247   1.616   0.016  15.485 -0.4838 -0.7374  0.1107
12586TIP3   OH259248   3.514   4.020   4.650  0.0084 -0.1012 -0.0428
12586TIP3    H159249   3.520   4.059   4.563 -1.6194  0.1408 -0.0674
12586TIP3    H259250   3.490   4.092   4.708  0.3634 -0.4024  0.4877
12587TIP3   OH259251   2.681   0.318  12.576  0.3346 -0.4379 -0.1100
12587TIP3    H159252   2.743   0.381  12.611 -2.6634  2.5191  0.3751
12587TIP3    H259253   2.684   0.331  12.481  1.0976 -1.0421 -0.1812
12588TIP3   OH259254   5.637   6.475  17.022 -0.0347 -0.4581 -0.0527
12588TIP3    H159255   5.593   6.519  16.949  0.7527  0.3428 -0.0750
12588TIP3    H259256   5.597   6.513  17.100 -1.9283 -2.3949 -0.0172
12589TIP3   OH259257   1.986   5.050  13.743 -0.2199  0.5430 -0.0282
12589TIP3    H159258   2.060   5.034  13.684  0.8700 -0.0691  1.4379
12589TIP3    H259259   2.026   5.089  13.821 -1.6879  1.8885  0.1144
12590TIP3   OH259260   2.934   3.255   2.781  0.2354 -0.2932  0.2315
12590TIP3    H159261   2.884   3.246   2.862  0.0007 -0.9610  0.0213
12590TIP3    H259262   2.953   3.348   2.774 -0.6372 -0.0866  0.5185
12591TIP3   OH259263   3.738   0.272  10.718  0.3682 -0.6582 -0.1690
12591TIP3    H159264   3.695   0.256  10.634  0.3493 -1.0775 -0.0824
12591TIP3    H259265   3.754   0.185  10.754 -2.1829 -0.5007  1.5767
12592TIP3   OH259266   4.880   4.987   7.014  0.2641 -0.2223  0.6716
12592TIP3    H159267   4.903   4.902   7.053  0.1659  0.7321  2.9890
12592TIP3    H259268   4.784   4.985   7.009  0.1972  0.0509  1.5717
12593TIP3   OH259269   2.107   5.115  12.519 -0.0996  0.3882 -0.4729
12593TIP3    H159270   2.158   5.035  12.511 -0.5313 -0.0300  0.6916
12593TIP3    H259271   2.018   5.090  12.495 -0.4055  0.2935  0.6908
12594TIP3   OH259272   3.466   3.214  14.400  0.1675 -0.6871  0.1138
12594TIP3    H159273   3.502   3.301  14.381 -1.5762  0.1499  0.3741
12594TIP3    H259274   3.445   3.177  14.314  0.9180 -0.8609  0.0015
12595TIP3   OH259275   6.752   2.851   1.263 -0.3341  0.2006 -0.2499
12595TIP3    H159276   6.724   2.761   1.281  2.7386 -1.1330 -1.4505
12595TIP3    H259277   6.793   2.847   1.177  2.3354  2.1286  0.8146
12596TIP3   OH259278   3.177   3.298   6.700 -0.3383  0.0782  0.0278
12596TIP3    H159279   3.181   3.330   6.791  0.0409 -0.2299  0.1202
12596TIP3    H259280   3.214   3.370   6.648 -2.7931  1.3089 -0.1753
12597TIP3   OH259281   2.596   1.372  14.747  0.0627  0.2001  0.4161
12597TIP3    H159282   2.521   1.335  14.793 -1.5171  1.2782 -1.1760
12597TIP3    H259283   2.570   1.374  14.655  2.0664  0.5923 -0.1929
12598TIP3   OH259284   2.375   4.762   5.487 -0.7165 -0.2655 -0.1341
12598TIP3    H159285   2.434   4.838   5.492 -3.1640  1.7505  0.0463
12598TIP3    H259286   2.428   4.689   5.518  1.6775  1.4001  0.0036
12599TIP3   OH259287   6.651   0.683   5.948 -0.5745 -0.5506  0.3346
12599TIP3    H159288   6.638   0.588   5.955 -2.5479 -0.4418 -1.1606
12599TIP3    H259289   6.574   0.721   5.990  0.8708  0.4856  2.2194
12600TIP3   OH259290   6.650   5.928  13.777 -0.0114  0.3536 -0.1140
12600TIP3    H159291   6.600   5.928  13.859 -0.3172 -3.1275 -0.1175
12600TIP3    H259292   6.585   5.905  13.710  0.8882 -0.4846 -0.7234
12601TIP3   OH259293   0.011   6.692   3.627  0.5159 -0.3213 -0.6175
12601TIP3    H159294  -0.006   6.762   3.690 -0.2471 -1.1642  0.1418
12601TIP3    H259295   0.105   6.676   3.634  1.0312  1.6400 -1.9263
12602TIP3   OH259296   1.713   5.044  15.554 -0.0606 -0.3551  0.0382
12602TIP3    H159297   1.798   5.049  15.509  0.0871 -1.4484  0.1646
12602TIP3    H259298   1.662   4.983  15.501 -0.6159 -0.0438  0.2120
12603TIP3   OH259299   2.132   6.152  16.783 -0.1186 -0.0745 -0.1986
12603TIP3    H159300   2.112   6.078  16.726 -1.3659 -0.0039  0.1205
12603TIP3    H259301   2.098   6.228  16.736 -0.2088  0.1084  0.1634
12604TIP3   OH259302   4.291   5.239  16.485  0.0280  0.1084 -0.2827
12604TIP3    H159303   4.382   5.213  16.504 -0.1649 -2.0591 -1.9246
12604TIP3    H259304   4.292   5.263  16.392 -0.5622  2.9351  0.3477
12605TIP3   OH259305   2.821   0.335   3.946 -0.7382 -0.0980 -0.7469
12605TIP3    H159306   2.902   0.369   3.985 -1.0991  0.0502 -0.1116
12605TIP3    H259307   2.815   0.379   3.861 -0.0199 -0.3087 -0.9123
12606TIP3   OH259308   3.092   1.332  10.981 -0.6070 -0.3540 -0.0702
12606TIP3    H159309   3.015   1.374  10.942 -1.6199 -0.8679  1.2838
12606TIP3    H259310   3.094   1.245  10.943 -2.0970 -1.1576  1.5581
12607TIP3   OH259311   0.242   4.789  13.056 -0.4635  0.2885 -0.4749
12607TIP3    H159312   0.204   4.877  13.057 -0.7758  0.1749 -1.3101
12607TIP3    H259313   0.280   4.778  13.143  0.0733  1.4745 -0.5330
12608TIP3   OH259314   1.276   4.749  15.412  0.3908 -0.2357  0.2239
12608TIP3    H159315   1.272   4.735  15.318  0.9884  0.1818  0.1308
12608TIP3    H259316   1.185   4.751  15.441  0.2159 -1.3372 -0.1953
12609TIP3   OH259317   6.518   4.226  14.550 -0.3421  0.1690 -0.5237
12609TIP3    H159318   6.558   4.307  14.518  0.4555 -0.2248 -0.5457
12609TIP3    H259319   6.477   4.251  14.633 -0.9194  0.7984 -0.9738
12610TIP3   OH259320   3.821   4.264   5.345  0.1021 -0.1498 -0.4359
12610TIP3    H159321   3.826   4.355   5.373  0.5652  0.1278 -1.3759
12610TIP3    H259322   3.861   4.263   5.258  0.7264 -1.3684 -0.1674
12611TIP3   OH259323   5.323   0.342  13.128 -0.4658  0.1335  0.5674
12611TIP3    H159324   5.398   0.380  13.174 -1.6914  1.6134  1.4116
12611TIP3    H259325   5.248   0.390  13.161 -1.7401 -0.8955 -0.7344
12612TIP3   OH259326   1.090   0.183   0.341 -0.6767 -0.3241  0.1549
12612TIP3    H159327   1.137   0.103   0.366 -1.2665 -0.7709 -0.1450
12612TIP3    H259328   1.049   0.161   0.258  0.0592  0.6666 -0.4885
12613TIP3   OH259329   4.043   6.210   4.149  0.1732  0.6914 -0.3799
12613TIP3    H159330   4.067   6.128   4.106  0.8976 -0.1141  1.4649
12613TIP3    H259331   3.982   6.251   4.088  1.6344 -0.0392 -2.4845
12614TIP3   OH259332   4.954   2.127  12.880  0.5608 -0.3335  0.1330
12614TIP3    H159333   5.034   2.086  12.912  0.1514 -1.3967 -0.1749
12614TIP3    H259334   4.950   2.101  12.788 -0.0387 -0.1216  0.0997
12615TIP3   OH259335   4.700   3.778   3.686 -0.4768  0.0583  0.7701
12615TIP3    H159336   4.747   3.837   3.744 -0.5744 -0.2098  1.1267
12615TIP3    H259337   4.712   3.691   3.725  0.2740 -0.2681 -0.1374
12616TIP3   OH259338   3.785   5.452  11.437 -0.1262 -0.7325 -0.3947
12616TIP3    H159339   3.692   5.461  11.457 -0.5404  1.1183 -2.7855
12616TIP3    H259340   3.791   5.372  11.384 -0.8052  0.5018 -2.4086
12617TIP3   OH259341   4.506   5.485  12.383 -0.1181 -0.3839 -0.1869
12617TIP3    H159342   4.592   5.479  12.426 -0.1292 -0.3590 -0.1609
12617TIP3    H259343   4.525   5.474  12.290  0.0724  0.8349 -0.3157
12618TIP3   OH259344   3.390   5.589   5.771  0.2223  0.4792  0.6549
12618TIP3    H159345   3.470   5.635   5.794 -0.3877  1.4533  0.8863
12618TIP3    H259346   3.353   5.639   5.698  0.5240 -0.7698 -0.4126
12619TIP3   OH259347   3.203   3.969  11.790  0.1934  0.0305  0.3453
12619TIP3    H159348   3.136   3.929  11.736  0.0074 -0.4161  0.9006
12619TIP3    H259349   3.249   4.029  11.731 -1.1702  0.9103  0.1551
12620TIP3   OH259350   1.453   3.028  12.559 -0.0000 -0.1528 -0.1685
12620TIP3    H159351   1.433   3.004  12.649  0.9653 -3.2096 -0.6542
12620TIP3    H259352   1.419   2.955  12.507  0.0567  1.2106 -2.2622
12621TIP3   OH259353   2.838   3.597  14.475  0.1966  0.4052 -0.0002
12621TIP3    H159354   2.783   3.534  14.522 -1.1674  0.3227 -1.6159
12621TIP3    H259355   2.798   3.603  14.388  0.4295  3.3180  0.0037
12622TIP3   OH259356   2.619   6.259   4.949 -0.1394 -0.0292  0.5424
12622TIP3    H159357   2.583   6.321   5.012  0.7585  0.5573  0.4898
12622TIP3    H259358   2.678   6.204   5.000  0.5726  0.4315  0.2359
12623TIP3   OH259359   3.646   2.041   6.208  0.0741 -0.2593  0.1441
12623TIP3    H159360   3.723   1.984   6.213  0.2472 -0.4030 -2.6004
12623TIP3    H259361   3.573   1.984   6.230  0.0580 -2.2117 -3.9049
12624TIP3   OH259362   2.111   4.458  15.622  0.0502  0.8669  0.2960
12624TIP3    H159363   2.143   4.369  15.640 -0.0945  0.5310 -1.0416
12624TIP3    H259364   2.142   4.509  15.697 -0.0087 -0.3346  1.1755
12625TIP3   OH259365   6.085   1.543  15.293  0.7158 -0.2374 -0.1691
12625TIP3    H159366   6.141   1.597  15.237  0.5536  1.3214  1.1147
12625TIP3    H259367   6.146   1.499  15.353  0.8832 -1.8583 -1.4488
12626TIP3   OH259368   0.090   3.542  13.575  0.2704 -0.4453 -0.0994
12626TIP3    H159369   0.029   3.469  13.563  1.5550 -1.6692  0.5106
12626TIP3    H259370   0.099   3.581  13.488 -0.5581 -0.9039 -0.3981
12627TIP3   OH259371   2.832   0.048   5.207 -0.3830  0.0675  0.4974
12627TIP3    H159372   2.823   0.110   5.134  1.3740 -0.3183 -0.0973
12627TIP3    H259373   2.887   0.095   5.271  1.1678 -0.8954 -0.0608
12628TIP3   OH259374   5.951   5.818   4.365 -0.7729 -0.2246  0.8127
12628TIP3    H159375   6.004   5.895   4.385  0.0694 -0.9819  1.5272
12628TIP3    H259376   5.909   5.839   4.281 -1.3394  1.4157  1.4625
12629TIP3   OH259377   3.129   5.164  11.189  0.1094 -0.2705 -0.0688
12629TIP3    H159378   3.130   5.157  11.093 -0.7762 -2.6355  0.0297
12629TIP3    H259379   3.038   5.184  11.210  0.5765  1.6749  0.2575
12630TIP3   OH259380   4.062   2.297   3.199  0.3445 -0.0348 -0.7488
12630TIP3    H159381   4.043   2.236   3.128 -0.1471  0.4605 -1.0492
12630TIP3    H259382   3.977   2.330   3.226  0.5804  0.2822 -0.3759
12631TIP3   OH259383   3.917   3.374  13.132 -0.3964  0.2963  0.4562
12631TIP3    H159384   4.004   3.372  13.172 -0.6486  1.2963  1.0790
12631TIP3    H259385   3.864   3.319  13.190 -0.4687  0.7067  0.7794
12632TIP3   OH259386   5.806   6.536   2.341 -0.0250 -0.4216 -0.3138
12632TIP3    H159387   5.768   6.562   2.425 -0.6855 -1.2429 -0.3362
12632TIP3    H259388   5.842   6.449   2.358  1.3579  0.1086 -0.4539
12633TIP3   OH259389   1.733   3.738  15.768  0.1897 -0.1204 -0.6135
12633TIP3    H159390   1.796   3.809  15.773  3.3056 -2.6041 -1.1350
12633TIP3    H259391   1.668   3.758  15.835  2.7819  1.5036  1.6072
12634TIP3   OH259392   5.453   5.684   4.836  0.5622 -0.1607 -0.5427
12634TIP3    H159393   5.519   5.636   4.886 -2.0208 -1.1170  2.2205
12634TIP3    H259394   5.424   5.621   4.769 -1.2943 -1.8720  1.7121
12635TIP3   OH259395   1.251   2.913   1.895  0.3841  0.5817 -0.5479
12635TIP3    H159396   1.259   2.972   1.821  1.3167  0.5222 -0.5011
12635TIP3    H259397   1.224   2.830   1.857  0.1744  0.7359 -0.7379
12636TIP3   OH259398   5.420   6.163   3.569  0.6589  0.2152  0.3222
12636TIP3    H159399   5.393   6.082   3.612 -1.7611  1.4284  1.2797
12636TIP3    H259400   5.361   6.171   3.493  0.9451  1.0095  0.1720
12637TIP3   OH259401   1.599   3.566  15.047 -0.2066  0.1685 -0.1080
12637TIP3    H159402   1.684   3.599  15.078  0.4538 -1.8882  0.3840
12637TIP3    H259403   1.615   3.540  14.957 -0.3203 -0.2247 -0.0138
12638TIP3   OH259404   1.323   6.036  12.460 -0.4696 -0.4595 -0.6726
12638TIP3    H159405   1.349   5.969  12.523 -1.8501  0.1181  0.5726
12638TIP3    H259406   1.244   6.075  12.498 -0.2895  1.1663 -1.8687
12639TIP3   OH259407   2.037   4.332   5.677 -0.2824 -0.6252  0.0623
12639TIP3    H159408   1.983   4.363   5.605 -1.6161 -0.4999  1.0887
12639TIP3    H259409   2.111   4.392   5.679 -0.4491 -0.3710 -0.9186
12640TIP3   OH259410   2.657   4.091   5.156  0.5071 -0.3396  0.1442
12640TIP3    H159411   2.749   4.108   5.176  0.5584  0.0355 -0.3929
12640TIP3    H259412   2.646   4.120   5.065  0.2393 -1.7957 -0.3215
12641TIP3   OH259413   0.191   1.755  10.811  0.1618  0.4515  0.2117
12641TIP3    H159414   0.249   1.801  10.750  0.8001 -0.4574  0.1147
12641TIP3    H259415   0.186   1.666  10.776 -3.4780  1.0828 -1.3682
12642TIP3   OH259416   6.257   0.367  12.281 -0.3204  0.0352 -0.5306
12642TIP3    H159417   6.199   0.294  12.300 -1.1610  1.1029  1.3720
12642TIP3    H259418   6.199   0.434  12.244  0.7048 -0.7118 -3.8293
12643TIP3   OH259419   1.164   5.909  16.626  0.6965  0.4200  0.1900
12643TIP3    H159420   1.075   5.913  16.660  0.0791  1.3901 -1.4576
12643TIP3    H259421   1.160   5.953  16.541  2.6578  0.1062 -0.1156
12644TIP3   OH259422   0.369   3.538  12.670 -0.0978  0.2343  0.4967
12644TIP3    H159423   0.335   3.562  12.583  1.1097  1.8435  0.4200
12644TIP3    H259424   0.426   3.463  12.654 -0.8151 -0.2427  0.1037
12645TIP3   OH259425   1.155   4.669   1.466  0.8412 -0.3986 -0.0537
12645TIP3    H159426   1.109   4.643   1.545  0.4607  0.9044  0.1779
12645TIP3    H259427   1.233   4.613   1.463 -0.3453 -2.1165 -0.0588
12646TIP3   OH259428   2.543   3.686  16.714  0.4778  0.0449 -0.1206
12646TIP3    H159429   2.535   3.779  16.736 -2.2547 -0.2136  0.3857
12646TIP3    H259430   2.563   3.643  16.797 -0.4583 -0.0006  0.0958
12647TIP3   OH259431   1.214   3.302   5.713  0.3862 -0.2088 -0.1202
12647TIP3    H159432   1.270   3.301   5.791 -0.8627 -0.0117  0.7946
12647TIP3    H259433   1.264   3.252   5.648  1.1892 -0.8926  0.9851
12648TIP3   OH259434   3.705   1.519  11.734  0.1842  0.1627  0.5262
12648TIP3    H159435   3.658   1.602  11.733  0.0844  0.1101  0.6747
12648TIP3    H259436   3.777   1.531  11.673 -2.6829 -1.2979 -3.6056
12649TIP3   OH259437   4.035   1.883  10.495  0.4119 -0.5520 -0.1840
12649TIP3    H159438   4.025   1.977  10.513  1.8619  0.1328 -2.5683
12649TIP3    H259439   4.115   1.858  10.542 -0.8134 -1.0541  1.7627
12650TIP3   OH259440   6.565   1.387   3.215  0.0944  0.2800 -0.0722
12650TIP3    H159441   6.491   1.358   3.268  1.1501  0.5877  1.6464
12650TIP3    H259442   6.579   1.478   3.242  1.4894  0.0247  0.1468
12651TIP3   OH259443   6.792   0.455  16.962  0.3262 -0.3566 -0.3000
12651TIP3    H159444   6.809   0.391  16.892 -0.0745  1.3752 -2.0562
12651TIP3    H259445   6.804   0.540  16.920  0.3802  0.7562  1.8517
12652TIP3   OH259446   1.125   2.182  11.750 -0.2283  0.0938  0.1158
12652TIP3    H159447   1.211   2.188  11.706 -0.9074 -0.2560 -1.3326
12652TIP3    H259448   1.137   2.115  11.817  0.6037 -0.0296 -0.1425
12653TIP3   OH259449   1.268   1.300  14.835  0.0689  0.3020  0.1163
12653TIP3    H159450   1.319   1.380  14.825  1.8413 -0.7686 -0.0004
12653TIP3    H259451   1.225   1.309  14.920  1.1695  0.9179  0.6363
12654TIP3   OH259452   6.195   3.455  11.323  0.1113  0.4356 -0.0890
12654TIP3    H159453   6.102   3.475  11.326  0.0597  0.5483 -1.5212
12654TIP3    H259454   6.213   3.439  11.230  1.2390 -0.9441  0.3271
12655TIP3   OH259455   3.499   2.525  12.036  0.4639  0.1384  0.4009
12655TIP3    H159456   3.578   2.538  11.983  0.9387 -0.0572  1.0350
12655TIP3    H259457   3.527   2.465  12.105 -0.4898 -0.6675  0.1111
12656TIP3   OH259458   0.253   4.131   5.265  0.4788  0.1006 -0.2930
12656TIP3    H159459   0.314   4.106   5.333  0.9718  1.9025 -0.0353
12656TIP3    H259460   0.167   4.106   5.300  0.7581  0.6470  0.8212
12657TIP3   OH259461   4.544   3.009   2.670 -0.4900  0.2031 -0.1694
12657TIP3    H159462   4.582   2.932   2.713 -0.8787  1.1611  2.0097
12657TIP3    H259463   4.620   3.062   2.645 -0.2414  1.1068  2.2485
12658TIP3   OH259464   0.597   0.254  12.611 -0.6636  0.5197  0.2216
12658TIP3    H159465   0.578   0.218  12.697  0.7023  0.8236  0.6727
12658TIP3    H259466   0.653   0.188  12.569 -2.2058 -0.1451 -0.8899
12659TIP3   OH259467   6.059   5.692   1.427 -0.0783 -0.9141  0.0802
12659TIP3    H159468   6.038   5.746   1.504 -0.4876  1.6325 -1.6958
12659TIP3    H259469   6.114   5.621   1.462 -1.3115 -0.6304  2.8950
12660TIP3   OH259470   1.328   3.313  10.956  0.0664 -0.0411 -0.3859
12660TIP3    H159471   1.283   3.390  10.921  0.4571  0.3153 -0.1257
12660TIP3    H259472   1.303   3.242  10.898 -1.5043 -0.0312  0.2366
12661TIP3   OH259473   5.331   4.848   1.548  0.2842 -0.5723  0.3607
12661TIP3    H159474   5.263   4.905   1.513 -1.0540 -2.7589 -0.7793
12661TIP3    H259475   5.400   4.849   1.482 -0.4722 -1.5251 -0.4753
12662TIP3   OH259476   4.676   1.767  11.892 -0.3242 -0.0132  0.9884
12662TIP3    H159477   4.633   1.782  11.808  1.2716 -0.8016 -0.0266
12662TIP3    H259478   4.609   1.725  11.946 -1.0568 -0.5502 -0.2822
12663TIP3   OH259479   1.734   5.468   1.573 -0.0724  0.4877 -0.8003
12663TIP3    H159480   1.819   5.508   1.555 -0.5136  0.9291 -2.0208
12663TIP3    H259481   1.752   5.401   1.639  1.0077  1.3881 -0.1578
12664TIP3   OH259482   1.019   5.675  14.517  0.1859 -0.0044  0.2160
12664TIP3    H159483   1.033   5.583  14.494  0.6925  0.4164 -1.2784
12664TIP3    H259484   0.964   5.709  14.446 -0.4115  0.7251  1.0199
12665TIP3   OH259485   4.614   1.040   0.410 -0.4408  0.3633 -0.0886
12665TIP3    H159486   4.668   1.113   0.380  1.2537 -0.8270 -0.0642
12665TIP3    H259487   4.636   0.968   0.351 -1.1182 -0.4883  0.6658
12666TIP3   OH259488   2.409   6.647  13.234 -0.2871 -0.0229  0.1451
12666TIP3    H159489   2.461   6.718  13.272 -0.0347 -0.1681  0.0721
12666TIP3    H259490   2.319   6.669  13.257 -0.1410 -0.1041  0.8354
12667TIP3   OH259491   3.941   1.643  17.229  0.2732 -0.2020 -0.5655
12667TIP3    H159492   3.958   1.643  17.135  0.4511  0.7111 -0.5387
12667TIP3    H259493   4.008   1.701  17.265 -0.8662  0.8376 -0.0770
12668TIP3   OH259494   0.098   4.124   6.286 -0.2362  0.6363 -0.3994
12668TIP3    H159495   0.021   4.174   6.259 -0.3066  0.6814 -0.1158
12668TIP3    H259496   0.078   4.034   6.264 -0.5643  0.5834  0.1053
12669TIP3   OH259497   1.901   3.650  11.159  0.0888 -0.2986 -0.0137
12669TIP3    H159498   1.917   3.611  11.245 -1.8623  1.4461  1.2300
12669TIP3    H259499   1.985   3.689  11.134  1.1614 -2.3218  0.2076
12670TIP3   OH259500   3.925   4.959   4.397  0.6872  0.4376 -0.5338
12670TIP3    H159501   3.878   5.036   4.368  2.1330  0.8828 -1.8370
12670TIP3    H259502   3.864   4.886   4.381 -0.5328  1.2384  0.3383
12671TIP3   OH259503   2.651   5.232   6.042 -0.1295  0.2143 -0.0489
12671TIP3    H159504   2.736   5.219   6.001  0.5297 -0.7172  1.5293
12671TIP3    H259505   2.604   5.150   6.027  0.0692 -0.0860  0.8821
12672TIP3   OH259506   1.645   0.556   2.118  0.2058 -0.1268 -0.0343
12672TIP3    H159507   1.646   0.471   2.162  0.0891 -0.3788 -0.5083
12672TIP3    H259508   1.557   0.563   2.082  0.2199  0.1881 -0.0065
12673TIP3   OH259509   4.850   5.556   4.594 -0.2025  0.7268 -0.1522
12673TIP3    H159510   4.886   5.580   4.509 -0.4865  1.1665 -0.1512
12673TIP3    H259511   4.914   5.590   4.657 -0.5536  1.3977 -0.1540
12674TIP3   OH259512   6.622   4.011   2.858  0.2398 -0.5932  0.4382
12674TIP3    H159513   6.573   3.955   2.798  0.3862 -0.8287  0.5373
12674TIP3    H259514   6.658   3.951   2.923 -2.3388 -0.0847  2.5238
12675TIP3   OH259515   1.808   5.462  13.390 -0.3281  0.1407  0.2569
12675TIP3    H159516   1.778   5.548  13.420  2.2218  1.0300  0.4384
12675TIP3    H259517   1.793   5.404  13.466  0.4355  1.0460  1.1272
12676TIP3   OH259518   5.568   4.438   0.357  0.0075  0.3591 -0.3562
12676TIP3    H159519   5.567   4.476   0.269 -2.0304  0.8167 -0.1923
12676TIP3    H259520   5.479   4.454   0.390 -1.3931 -5.1155 -0.5498
12677TIP3   OH259521   3.740   0.740   4.080  0.2764  0.2073  0.0459
12677TIP3    H159522   3.729   0.820   4.028 -0.0162 -1.1499 -2.1136
12677TIP3    H259523   3.828   0.710   4.059  0.7810  0.4555  1.6548
12678TIP3   OH259524   3.958   5.697   3.110 -0.2405 -0.0696 -0.0182
12678TIP3    H159525   4.029   5.746   3.069  0.3310 -0.7925  0.0872
12678TIP3    H259526   3.895   5.682   3.040  0.4284 -0.7378 -0.4915
12679TIP3   OH259527   2.869   4.297   3.572 -0.3966 -0.4232  0.2660
12679TIP3    H159528   2.904   4.382   3.546  0.3232 -0.6514  0.4711
12679TIP3    H259529   2.852   4.305   3.666 -0.2268 -0.5366  0.3077
12680TIP3   OH259530   4.334   4.369   1.827 -0.0879 -0.2299 -0.7603
12680TIP3    H159531   4.314   4.346   1.917  0.5288  1.7671 -0.0565
12680TIP3    H259532   4.309   4.461   1.819 -1.5117 -0.7348 -3.0827
12681TIP3   OH259533   4.004   1.362   0.606  0.0919 -0.2027 -0.0749
12681TIP3    H159534   3.942   1.369   0.533 -1.8014  2.0785  1.6196
12681TIP3    H259535   3.984   1.278   0.647 -0.9517 -0.1037 -0.3549
12682TIP3   OH259536   4.155   3.227  14.609  0.4171 -0.3502 -0.0188
12682TIP3    H159537   4.188   3.168  14.676 -1.6636  0.2556  1.6687
12682TIP3    H259538   4.202   3.203  14.529  1.8443 -2.1541  1.3042
12683TIP3   OH259539   4.627   5.686  17.224  0.1229  0.0732 -0.1095
12683TIP3    H159540   4.668   5.770  17.207  0.7765 -0.0238  0.9281
12683TIP3    H259541   4.638   5.672  17.318  0.6377 -1.4877 -0.3715
12684TIP3   OH259542   4.178   2.236  16.854 -0.9637 -0.5281 -0.2622
12684TIP3    H159543   4.094   2.192  16.859 -0.3790 -1.7272 -0.5934
12684TIP3    H259544   4.237   2.171  16.816 -0.6124  1.3497 -3.2993
12685TIP3   OH259545   4.571   5.942   0.169 -0.4489 -0.3551 -0.7619
12685TIP3    H159546   4.641   5.972   0.110 -0.6519 -0.3274 -0.9902
12685TIP3    H259547   4.494   5.936   0.113 -0.5431 -0.7552 -0.5937
12686TIP3   OH259548   2.741   3.662   4.898 -0.0788  0.3046  0.0087
12686TIP3    H159549   2.742   3.646   4.804  1.2286  0.3127 -0.0031
12686TIP3    H259550   2.653   3.638   4.926 -0.2192 -0.5240 -1.0835
12687TIP3   OH259551   2.044   2.312   2.971  0.0747 -0.2068 -0.0786
12687TIP3    H159552   1.972   2.282   2.915  0.6131 -1.0682 -0.3356
12687TIP3    H259553   2.116   2.330   2.910  0.2957 -0.0361  0.2278
12688TIP3   OH259554   0.739   0.349   0.619  1.1271 -0.3595  0.6254
12688TIP3    H159555   0.833   0.339   0.605  1.0521 -1.9536  1.0753
12688TIP3    H259556   0.732   0.394   0.703  1.5052 -1.3906  1.2324
12689TIP3   OH259557   4.335   4.673  16.355  0.2350  0.0179  0.1254
12689TIP3    H159558   4.389   4.673  16.434  0.8680 -0.8128 -0.2870
12689TIP3    H259559   4.398   4.674  16.283 -0.3377  2.2188 -0.4068
12690TIP3   OH259560   1.945   4.597   1.777 -0.7451  0.4970  0.0827
12690TIP3    H159561   1.903   4.616   1.694 -1.2959 -1.7577 -0.2259
12690TIP3    H259562   1.919   4.507   1.798 -0.1887  0.7960  2.4354
12691TIP3   OH259563   3.257   0.710  12.744  0.3035 -0.1291 -0.2560
12691TIP3    H159564   3.300   0.785  12.702 -0.6979 -0.5203 -2.1145
12691TIP3    H259565   3.329   0.658  12.779  1.3526 -0.2416 -2.3867
12692TIP3   OH259566   1.864   3.661   2.829 -0.5765  0.0386 -0.5026
12692TIP3    H159567   1.926   3.730   2.852 -1.2219  0.0663  1.3395
12692TIP3    H259568   1.879   3.644   2.736  1.7998  0.4186 -0.2420
12693TIP3   OH259569   4.554   2.419   0.124  0.0427  0.4409 -0.1763
12693TIP3    H159570   4.623   2.444   0.185  2.1112 -2.5652 -1.0768
12693TIP3    H259571   4.599   2.408   0.040 -1.5554 -1.3923 -0.8501
12694TIP3   OH259572   1.877   1.367  10.204  0.4902 -0.3323 -0.0593
12694TIP3    H159573   1.856   1.416  10.125  1.5671 -1.0660 -0.8269
12694TIP3    H259574   1.880   1.433  10.273  1.0384  0.5601 -0.9077
12695TIP3   OH259575   1.229   4.699  16.304 -0.3947 -0.1393  0.0167
12695TIP3    H159576   1.288   4.660  16.240 -1.3116 -0.0783 -0.8883
12695TIP3    H259577   1.280   4.701  16.386  0.9199  0.1077 -0.7828
12696TIP3   OH259578   2.572   2.843  16.839 -0.4230 -0.0756 -0.5610
12696TIP3    H159579   2.607   2.763  16.800 -2.4489 -0.8955 -0.8163
12696TIP3    H259580   2.583   2.909  16.771  0.6234 -0.2632 -0.6047
12697TIP3   OH259581   0.169   0.075   0.730 -0.5105  0.4089  0.2160
12697TIP3    H159582   0.229   0.141   0.767 -0.6342  0.6895 -0.0776
12697TIP3    H259583   0.112   0.125   0.671  0.5965 -0.2244 -1.4785
12698TIP3   OH259584   3.639   6.476   4.736  0.2662  0.6844  1.0158
12698TIP3    H159585   3.693   6.549   4.706  1.3073 -1.0800 -1.8562
12698TIP3    H259586   3.695   6.427   4.796  2.1498 -1.1672 -1.9846
12699TIP3   OH259587   5.311   3.153  10.868  0.3792 -0.0519 -0.0949
12699TIP3    H159588   5.270   3.083  10.919  3.5308 -0.7441  1.8006
12699TIP3    H259589   5.282   3.233  10.911 -1.0243 -0.3200 -0.4921
12700TIP3   OH259590   0.430   6.341  16.568 -0.5534  0.6479  0.6231
12700TIP3    H159591   0.418   6.431  16.599 -1.3358  0.9720 -0.5275
12700TIP3    H259592   0.377   6.288  16.626 -0.9117  1.0653  0.6828
12701TIP3   OH259593   1.035   3.001   2.061 -0.5464 -0.3139  0.5564
12701TIP3    H159594   0.987   2.928   2.100 -0.6515 -1.3275 -1.3403
12701TIP3    H259595   1.098   2.959   2.003  0.7223  1.0822  0.8616
12702TIP3   OH259596   4.832   1.550   0.602  0.4476 -0.7025 -0.3971
12702TIP3    H159597   4.791   1.634   0.621  0.4675 -0.9526  0.8133
12702TIP3    H259598   4.870   1.561   0.515  1.9865  1.1217  0.4543
12703TIP3   OH259599   5.777   6.275   5.530  0.0016 -0.4604  0.3302
12703TIP3    H159600   5.767   6.190   5.486 -0.4369 -0.4745  0.4560
12703TIP3    H259601   5.868   6.275   5.561  0.0428 -0.8304  0.2154
12704TIP3   OH259602   5.447   0.863   1.463 -0.0464  0.2166 -0.0889
12704TIP3    H159603   5.462   0.871   1.557  1.2943 -2.2889 -0.0143
12704TIP3    H259604   5.491   0.940   1.426 -1.8311  2.0485  1.3419
12705TIP3   OH259605   6.486   5.373   5.744  0.2951 -0.1024 -0.5703
12705TIP3    H159606   6.408   5.319   5.755  0.8886 -0.8429  0.1399
12705TIP3    H259607   6.478   5.441   5.811 -0.7451  1.0934 -1.8464
12706TIP3   OH259608   6.660   5.596   4.448 -0.2041 -0.3655  0.3109
12706TIP3    H159609   6.589   5.633   4.396  0.7269  1.0082 -0.0483
12706TIP3    H259610   6.740   5.625   4.404  0.5932 -0.8709  1.3688
12707TIP3   OH259611   6.012   3.160   0.043 -0.0971  0.2221  0.0718
12707TIP3    H159612   6.003   3.110   0.125 -2.9852  0.6006  0.0749
12707TIP3    H259613   5.976   3.103  -0.024 -2.2263  1.6895 -0.1263
12708TIP3   OH259614   6.101   4.973   5.150 -0.0639 -0.1942  0.3485
12708TIP3    H159615   6.171   5.010   5.204  1.1715 -1.0135 -0.6450
12708TIP3    H259616   6.121   4.879   5.147 -0.2119 -0.1951 -1.3562
12709TIP3   OH259617   5.739   2.879   0.744  0.6160  0.5992  0.1107
12709TIP3    H159618   5.772   2.801   0.787 -1.8654 -0.4665  0.2685
12709TIP3    H259619   5.727   2.943   0.814  0.7707  0.4195  0.3005
12710TIP3   OH259620   1.285   6.404   5.522  0.3669 -0.3214 -0.2622
12710TIP3    H159621   1.355   6.459   5.488  0.4109 -0.4334 -0.3520
12710TIP3    H259622   1.328   6.345   5.584  0.5048 -1.0113 -1.0024
12711TIP3   OH259623   2.375   4.207  10.895 -0.3326  0.5999  0.1843
12711TIP3    H159624   2.348   4.262  10.822  0.3244  1.4659  0.5816
12711TIP3    H259625   2.443   4.151  10.859 -1.3613 -0.3558 -0.3561
12712TIP3   OH259626   1.600   2.732   1.542 -0.5563 -0.4356  0.0755
12712TIP3    H159627   1.621   2.638   1.543 -0.0658 -0.3350 -0.2414
12712TIP3    H259628   1.685   2.775   1.533 -0.7685  0.0470  0.3767
12713TIP3   OH259629   2.945   5.309   3.941 -0.5298 -0.1039 -0.4267
12713TIP3    H159630   2.980   5.220   3.950  0.4166  0.4428  2.4394
12713TIP3    H259631   3.023   5.364   3.926 -0.8842  0.4427 -0.3158
12714TIP3   OH259632   6.770   5.321  13.622  0.0964 -0.3614 -0.0334
12714TIP3    H159633   6.856   5.279  13.613  0.0966 -0.7806  1.5991
12714TIP3    H259634   6.708   5.253  13.595  0.1818 -0.8736  0.9991
12715TIP3   OH259635   0.369   5.180   4.851  0.3730 -0.4055 -0.3948
12715TIP3    H159636   0.316   5.193   4.930  1.9560 -2.3628  1.1162
12715TIP3    H259637   0.319   5.222   4.781 -3.8654 -3.0917  0.6245
12716TIP3   OH259638   0.626   6.520   1.285  0.0725  0.7498 -0.7399
12716TIP3    H159639   0.586   6.451   1.231  2.6721  0.6430 -2.6955
12716TIP3    H259640   0.659   6.474   1.362  0.4446  0.0376 -1.3115
12717TIP3   OH259641   5.532   5.167   2.161  0.3558 -0.0804  0.6645
12717TIP3    H159642   5.442   5.199   2.165 -0.0967 -1.2516  0.5259
12717TIP3    H259643   5.565   5.175   2.250  0.3365  0.9391  0.5879
12718TIP3   OH259644   2.164   6.752   2.695 -0.4229 -0.2387 -0.1854
12718TIP3    H159645   2.074   6.760   2.726 -0.4962 -0.6340 -0.2941
12718TIP3    H259646   2.179   6.658   2.688  0.5491 -0.2500  1.4558
12719TIP3   OH259647   6.383   5.938  15.994 -0.1008 -0.0633  0.2698
12719TIP3    H159648   6.292   5.956  16.020 -0.5859  0.9197 -1.8399
12719TIP3    H259649   6.433   6.012  16.029 -0.6043  0.8276 -0.8183
12720TIP3   OH259650   6.524   1.693  13.634 -0.6439 -0.3410  0.1258
12720TIP3    H159651   6.430   1.703  13.647 -1.0912 -0.2155 -2.5995
12720TIP3    H259652   6.536   1.601  13.612 -0.3197 -0.1196 -0.6624
12721TIP3   OH259653   5.233   0.001  11.169 -0.1865  0.1250 -0.5637
12721TIP3    H159654   5.249   0.092  11.194  1.5875 -0.6878  1.6118
12721TIP3    H259655   5.138  -0.010  11.180 -0.5962  1.9282 -1.8634
12722TIP3   OH259656   4.051   1.685  15.423 -0.1996  0.5612  0.4886
12722TIP3    H159657   4.047   1.687  15.518  0.9539  1.3863  0.5382
12722TIP3    H259658   4.022   1.596  15.400  0.7094 -0.0698  1.6742
12723TIP3   OH259659   4.222   6.267   1.910 -0.1354 -0.6254 -0.3534
12723TIP3    H159660   4.301   6.321   1.900  0.5592 -1.5202  0.1766
12723TIP3    H259661   4.217   6.249   2.004 -0.2335 -1.6749 -0.5555
12724TIP3   OH259662   5.077   5.454   1.042 -0.3592  0.0904 -0.5779
12724TIP3    H159663   5.124   5.523   1.089  2.3690 -0.8180 -1.7784
12724TIP3    H259664   5.003   5.433   1.099  1.2691  0.8761  2.0064
12725TIP3   OH259665   1.682   2.375  16.056 -0.3218  0.7564 -0.2211
12725TIP3    H159666   1.636   2.314  15.997  1.2906  0.9572 -1.7753
12725TIP3    H259667   1.663   2.342  16.144 -1.3431 -0.6330 -0.9134
12726TIP3   OH259668   3.421   4.430   1.565  0.1194 -0.2798  0.3338
12726TIP3    H159669   3.386   4.516   1.590  0.7469  0.0815 -0.0134
12726TIP3    H259670   3.389   4.416   1.476  2.5215  0.9996 -0.8040
12727TIP3   OH259671   1.155   1.591  13.296 -0.0452  0.0061 -0.4739
12727TIP3    H159672   1.165   1.532  13.222 -1.0438 -0.2476 -0.4165
12727TIP3    H259673   1.164   1.679  13.258 -0.6688 -0.1190 -0.9211
12728TIP3   OH259674   5.188   0.417   1.602 -0.1340 -0.0366 -0.2008
12728TIP3    H159675   5.277   0.442   1.579 -0.6801  1.4505 -0.8066
12728TIP3    H259676   5.144   0.499   1.622 -1.5978 -0.6437 -0.7391
12729TIP3   OH259677   3.348   5.324   5.724  0.3089  0.5745  0.0788
12729TIP3    H159678   3.353   5.419   5.736 -0.0620  0.6095 -0.0232
12729TIP3    H259679   3.371   5.310   5.632  2.5058  0.3631  0.6057
12730TIP3   OH259680   0.048   6.092  14.024 -0.2271  0.3345  0.0532
12730TIP3    H159681   0.079   6.177  13.990 -0.0192 -0.1532 -1.0152
12730TIP3    H259682   0.106   6.074  14.098  0.1710  0.8046 -0.1363
12731TIP3   OH259683   3.510   3.480   0.400 -0.1634 -0.2629 -0.1963
12731TIP3    H159684   3.596   3.509   0.430 -0.2302  0.5694 -0.7721
12731TIP3    H259685   3.509   3.386   0.418  1.2210 -0.4625 -1.0162
12732TIP3   OH259686   6.338   4.398   0.586  0.0899  0.2209  0.3310
12732TIP3    H159687   6.334   4.315   0.538  0.7556  0.0244  0.6013
12732TIP3    H259688   6.249   4.431   0.584  0.0602  0.1238 -0.8826
12733TIP3   OH259689   6.616   2.058   2.682  0.4573  0.6716  0.2086
12733TIP3    H159690   6.683   2.012   2.731  0.3150 -0.2693 -0.4428
12733TIP3    H259691   6.588   1.995   2.615 -1.5716  0.7707  0.8940
12734TIP3   OH259692   4.045   5.295  13.129 -0.3857 -0.0504 -0.0658
12734TIP3    H159693   4.049   5.380  13.085 -1.3906 -0.0965 -0.2746
12734TIP3    H259694   3.955   5.265  13.115 -0.5266 -0.4006  1.4257
12735TIP3   OH259695   6.447   0.286  14.029  0.2883 -0.2529 -0.6694
12735TIP3    H159696   6.394   0.263  13.952 -0.0534  0.9907 -0.8309
12735TIP3    H259697   6.397   0.355  14.073  1.3542  0.3443 -0.3549
12736TIP3   OH259698   0.796   3.985   1.419 -0.7371 -0.3381  0.0200
12736TIP3    H159699   0.848   4.046   1.472  0.7057 -1.0965 -0.4871
12736TIP3    H259700   0.761   3.923   1.483 -0.2563 -0.3620  0.2663
12737TIP3   OH259701   0.754   0.405  16.974  0.4634  0.2580  0.5711
12737TIP3    H159702   0.763   0.327  17.029  2.8184 -0.2948 -0.4628
12737TIP3    H259703   0.830   0.459  16.997  0.8394  0.5564 -1.2425
12738TIP3   OH259704   6.666   5.001   0.078 -0.7072  0.5787 -0.1844
12738TIP3    H159705   6.698   4.966   0.162  1.5951  3.2212  0.1954
12738TIP3    H259706   6.727   4.965   0.013  0.7463  2.4862  0.0270
12739TIP3   OH259707   2.724   4.252   2.138  0.2088 -0.2010 -0.3219
12739TIP3    H159708   2.727   4.165   2.098  1.3874 -0.7310  0.8635
12739TIP3    H259709   2.766   4.241   2.223 -1.1714  1.1639  0.5873
12740TIP3   OH259710   1.150   2.291  15.807 -0.8470 -0.1571 -0.0874
12740TIP3    H159711   1.169   2.237  15.884 -1.1732 -0.7133 -0.3906
12740TIP3    H259712   1.224   2.352  15.803 -0.3134 -0.7725  0.0930
12741TIP3   OH259713   1.195   0.310  12.391  0.0364  0.5414 -0.2936
12741TIP3    H159714   1.249   0.233  12.409 -0.7626 -0.3510 -1.4881
12741TIP3    H259715   1.118   0.299  12.447 -0.2870  0.2189 -0.7929
12742TIP3   OH259716   3.168   6.738   2.876  0.1084  0.7044  0.3820
12742TIP3    H159717   3.241   6.797   2.857 -0.9639  1.2288 -2.6181
12742TIP3    H259718   3.198   6.652   2.846 -0.2961  0.8258 -0.3945
12743TIP3   OH259719   1.015   3.326   3.460  0.0071 -0.0450 -0.0642
12743TIP3    H159720   1.029   3.240   3.419  0.5110 -0.0797  0.1759
12743TIP3    H259721   1.100   3.350   3.494  0.4070  1.5387 -1.9870
12744TIP3   OH259722   2.607   6.325   6.356  0.1596  0.6778 -0.2030
12744TIP3    H159723   2.515   6.328   6.332  0.7654  1.6405 -2.7311
12744TIP3    H259724   2.653   6.305   6.274  2.2308  0.7120  0.8747
12745TIP3   OH259725   4.316   5.855   5.485  0.0946  0.5394  0.4455
12745TIP3    H159726   4.295   5.867   5.392 -0.7801  0.7435  0.6649
12745TIP3    H259727   4.411   5.842   5.486  0.5205  2.9875 -0.2695
12746TIP3   OH259728   0.894   5.637  16.276  0.4392 -0.2003 -0.0380
12746TIP3    H159729   0.887   5.728  16.245  0.6751 -0.2338 -0.1927
12746TIP3    H259730   0.825   5.591  16.229 -0.4339  0.1206  0.8876
12747TIP3   OH259731   6.546   5.787  13.439 -0.1039 -0.3658 -0.1883
12747TIP3    H159732   6.525   5.773  13.531 -1.0200  2.0296  0.0138
12747TIP3    H259733   6.480   5.737  13.391 -3.1171  2.6023  0.4989
12748TIP3   OH259734   2.583   3.667   5.565  0.1685 -0.0764 -0.3321
12748TIP3    H159735   2.625   3.668   5.479 -0.2997 -0.2564 -0.5697
12748TIP3    H259736   2.622   3.741   5.612 -0.9837  1.2820 -1.4081
12749TIP3   OH259737   0.592   5.829  14.022 -0.0519 -0.0394 -0.4798
12749TIP3    H159738   0.641   5.786  13.951 -0.0322 -1.4692  0.3528
12749TIP3    H259739   0.573   5.916  13.989 -0.6833 -0.9053 -2.5447
12750TIP3   OH259740   0.800   3.314   5.648  0.0814  0.2878  0.0597
12750TIP3    H159741   0.875   3.279   5.696  0.0685 -0.2829 -0.3184
12750TIP3    H259742   0.787   3.401   5.684 -0.2774 -0.3236  1.4943
12751TIP3   OH259743   0.479   1.468  15.814  0.1336 -0.2271 -0.2816
12751TIP3    H159744   0.418   1.399  15.840 -0.2468 -0.2707 -1.2578
12751TIP3    H259745   0.509   1.442  15.727 -1.1489  1.5756 -1.3225
12752TIP3   OH259746   2.381   6.417  15.475  0.1148  0.1269  0.0367
12752TIP3    H159747   2.395   6.509  15.500  0.9462  0.2761 -0.9292
12752TIP3    H259748   2.365   6.420  15.381  1.1478 -0.8051 -0.1863
12753TIP3   OH259749   0.377   4.314  15.917  0.0876  0.1107  0.0476
12753TIP3    H159750   0.421   4.358  15.990 -0.4987 -0.1072  0.5462
12753TIP3    H259751   0.378   4.377  15.845 -0.5236  0.8532  0.6742
12754TIP3   OH259752   6.427   3.427  14.893  0.0272 -0.6887 -0.2988
12754TIP3    H159753   6.438   3.495  14.959 -4.4564  0.3555 -0.3658
12754TIP3    H259754   6.410   3.347  14.943  0.3387 -0.7269 -0.2471
12755TIP3   OH259755   2.127   5.289  14.279  0.0383  0.1269  0.1204
12755TIP3    H159756   2.221   5.300  14.294  0.0153  0.3048  0.1393
12755TIP3    H259757   2.092   5.378  14.282  0.4162  0.5662 -3.6672
12756TIP3   OH259758   5.420   0.511   1.519  0.4308 -0.3650 -0.4854
12756TIP3    H159759   5.445   0.590   1.471 -1.6369  0.1387 -0.8174
12756TIP3    H259760   5.478   0.509   1.595 -0.0515  1.9693  0.0023
12757TIP3   OH259761   5.330   5.606   2.143 -0.2322  0.5860 -0.2725
12757TIP3    H159762   5.362   5.614   2.053 -0.2998 -0.4436 -0.4066
12757TIP3    H259763   5.383   5.535   2.181 -0.1540  1.0621  0.5222
12758TIP3   OH259764   0.461   3.172   5.157  0.0874  0.8154 -0.2888
12758TIP3    H159765   0.548   3.159   5.195 -0.6550 -0.6197  1.0757
12758TIP3    H259766   0.423   3.244   5.209 -0.3351 -0.0728  0.6763
12759TIP3   OH259767   3.151   2.516  16.769 -0.5560 -0.5432 -0.2737
12759TIP3    H159768   3.141   2.507  16.864 -2.1928  1.8826 -0.1278
12759TIP3    H259769   3.061   2.518  16.735  0.0026 -1.8914 -1.9720
12760TIP3   OH259770   5.248   5.152   0.103  0.2733  0.1288  0.4228
12760TIP3    H159771   5.156   5.173   0.118  0.7334  3.4097 -0.4924
12760TIP3    H259772   5.294   5.199   0.173  1.3093 -0.7540  0.3519
12761TIP3   OH259773   2.916   1.637   2.499 -0.6069  0.1233 -0.3586
12761TIP3    H159774   2.995   1.649   2.551 -0.0619 -1.3087 -0.8127
12761TIP3    H259775   2.893   1.725   2.469 -0.6853  0.9318  1.8785
12762TIP3   OH259776   6.598   6.087   2.194 -0.1656  0.2511 -0.1397
12762TIP3    H159777   6.627   6.168   2.236  0.0354  0.3236 -0.4149
12762TIP3    H259778   6.676   6.032   2.189 -0.4526 -0.2472  0.6890
12763TIP3   OH259779   0.379   2.499  12.849 -0.6271  0.0176  0.9737
12763TIP3    H159780   0.388   2.409  12.820 -0.9840  0.4345 -0.4928
12763TIP3    H259781   0.421   2.501  12.935 -0.0849 -1.3950  0.7596
12764TIP3   OH259782   1.875   2.603  11.547 -0.0124 -0.1804  0.1042
12764TIP3    H159783   1.894   2.514  11.574  0.8368  0.0235  0.2002
12764TIP3    H259784   1.955   2.652  11.568 -0.4678  0.5969  0.0523
12765TIP3   OH259785   0.182   0.070   4.669 -0.6073 -0.2166 -0.1929
12765TIP3    H159786   0.207  -0.001   4.727 -0.5336 -0.0814 -0.0579
12765TIP3    H259787   0.245   0.065   4.597  0.0832  0.3836  0.3521
12766TIP3   OH259788   4.343   6.563   4.684 -0.0930 -0.2363 -0.1816
12766TIP3    H159789   4.295   6.625   4.739  3.9278  1.3009  2.0136
12766TIP3    H259790   4.308   6.576   4.596 -1.8204  2.5831  0.8151
12767TIP3   OH259791   2.246   5.659   6.603  0.0098  0.0943  0.0135
12767TIP3    H159792   2.166   5.698   6.638  0.5636  0.9012  0.4089
12767TIP3    H259793   2.220   5.570   6.579 -1.1490  0.5248 -0.4194
12768TIP3   OH259794   6.468   0.859   3.291 -0.0280  0.3829 -0.1828
12768TIP3    H159795   6.558   0.829   3.287  0.5483  2.0544 -0.6050
12768TIP3    H259796   6.424   0.796   3.348  0.9942 -1.3910 -1.2912
12769TIP3   OH259797   1.492   0.473   2.462  0.7381 -0.3033  0.3840
12769TIP3    H159798   1.478   0.441   2.373  0.4199  0.3658  0.1866
12769TIP3    H259799   1.581   0.509   2.461  2.5586 -4.2799  1.5562
12770TIP3   OH259800   0.135   2.504   2.780 -0.0773  0.2872  0.0129
12770TIP3    H159801   0.110   2.570   2.844  0.2594  0.4579 -0.0277
12770TIP3    H259802   0.091   2.424   2.809 -0.2765  0.4667  0.2094
12771TIP3   OH259803   3.245   2.311   0.357  0.6292 -0.0150 -0.2673
12771TIP3    H159804   3.234   2.358   0.440 -0.1108 -1.2940  0.4072
12771TIP3    H259805   3.159   2.313   0.317  0.8959  0.2673 -0.8336
12772TIP3   OH259806   0.761   3.540  15.247 -0.0694  0.5132  0.0875
12772TIP3    H159807   0.766   3.457  15.293 -0.2729 -0.5622 -1.7499
12772TIP3    H259808   0.669   3.548  15.221  0.5742 -0.4985 -2.8354
12773TIP3   OH259809   6.218   2.429  16.722  0.7629  0.4366 -0.4642
12773TIP3    H159810   6.180   2.517  16.724 -1.9623 -0.6708  0.4954
12773TIP3    H259811   6.155   2.377  16.672  0.9273 -1.5337  1.2595
12774TIP3   OH259812   5.009   1.991  14.266  0.3091  0.9287 -0.1187
12774TIP3    H159813   5.028   1.899  14.286  1.4466  0.4571 -2.9132
12774TIP3    H259814   4.952   1.987  14.189 -1.1472  2.5850  0.7997
12775TIP3   OH259815   2.481   5.965  14.537 -0.5900 -0.6113 -0.8508
12775TIP3    H159816   2.472   5.962  14.442 -2.0520 -1.4139 -0.7106
12775TIP3    H259817   2.573   5.988  14.552 -0.2925 -0.6939 -2.4484
12776TIP3   OH259818   3.648   2.434  13.803 -0.3375  0.1791  0.1512
12776TIP3    H159819   3.564   2.481  13.804  0.6521  2.0629  0.6255
12776TIP3    H259820   3.673   2.429  13.895  0.2598  0.0288 -0.0149
12777TIP3   OH259821   5.126   6.060  16.069 -0.1567  0.1129  0.2388
12777TIP3    H159822   5.139   6.051  15.974  2.2627  2.3961  0.2571
12777TIP3    H259823   5.080   6.143  16.079  0.8539  0.5931  1.0912
12778TIP3   OH259824   6.623   3.260   5.552 -0.4714  0.1273 -0.3198
12778TIP3    H159825   6.564   3.200   5.598  0.6347 -0.3422  0.5616
12778TIP3    H259826   6.695   3.204   5.522  0.3242  0.9219  0.0589
12779TIP3   OH259827   6.811   3.969  15.774  0.4414  0.1685  0.4189
12779TIP3    H159828   6.835   4.061  15.779  0.1027  0.1985  1.8875
12779TIP3    H259829   6.801   3.951  15.680  1.4718  1.3633  0.0672
12780TIP3   OH259830   6.177   5.976  11.064 -0.8141 -0.3768  0.7697
12780TIP3    H159831   6.170   6.044  11.131 -1.0217  0.8506 -0.4720
12780TIP3    H259832   6.099   5.923  11.077 -0.2667 -0.8979  2.2510
12781TIP3   OH259833   4.404   6.159   6.149  0.2624  0.5843  0.9110
12781TIP3    H159834   4.482   6.213   6.136 -0.4210  1.2778 -0.6509
12781TIP3    H259835   4.423   6.078   6.103  0.8278 -0.0880  2.2670
12782TIP3   OH259836   3.480   0.401  12.122  0.3288 -0.2337 -0.0404
12782TIP3    H159837   3.518   0.375  12.038  0.4873 -0.1566  0.0078
12782TIP3    H259838   3.386   0.408  12.104  0.5244  1.2625 -0.5937
12783TIP3   OH259839   3.978   3.260   1.344 -0.1834  0.1098 -0.2262
12783TIP3    H159840   3.971   3.273   1.250 -0.9953 -1.1256 -0.3705
12783TIP3    H259841   4.072   3.250   1.360  0.1778  2.4539 -0.5494
12784TIP3   OH259842   0.760   3.083  16.091 -0.1308  0.1043 -0.5811
12784TIP3    H159843   0.751   3.126  16.005 -2.1097 -0.4524 -0.7008
12784TIP3    H259844   0.670   3.061  16.116  0.3398  0.6957  1.8949
12785TIP3   OH259845   0.679   3.799   1.080 -0.8599  0.1590  0.0053
12785TIP3    H159846   0.749   3.785   1.144 -0.0428  2.0301 -0.3982
12785TIP3    H259847   0.724   3.831   1.002 -2.1084  0.7995 -0.4820
12786TIP3   OH259848   6.100   0.364   1.501 -0.3427 -0.0928 -0.1723
12786TIP3    H159849   6.036   0.323   1.558 -0.2426  0.3507  0.2715
12786TIP3    H259850   6.091   0.458   1.518  0.1096  0.0043 -0.4406
12787TIP3   OH259851   3.662   2.062   5.457 -0.0906 -0.0215  0.1520
12787TIP3    H159852   3.639   1.998   5.525 -2.1079  1.6921  1.2267
12787TIP3    H259853   3.718   2.125   5.502 -1.7073  1.3062  0.4345
12788TIP3   OH259854   4.259   5.905   3.384 -0.2604  0.5911  0.4146
12788TIP3    H159855   4.341   5.940   3.348 -0.1491 -1.8595 -2.0526
12788TIP3    H259856   4.192   5.932   3.322 -0.7857 -0.1710  0.6333
12789TIP3   OH259857   4.798   0.954   5.977 -0.0093  0.5356 -0.5039
12789TIP3    H159858   4.847   1.023   6.022  0.2256  0.3682 -0.5013
12789TIP3    H259859   4.849   0.875   5.991 -0.2885  0.3549 -0.4926
12790TIP3   OH259860   1.499   5.741   1.116  0.4617 -0.0541  0.0208
12790TIP3    H159861   1.536   5.725   1.203  2.2194 -0.0644 -0.6924
12790TIP3    H259862   1.540   5.675   1.060  0.2727  0.7097 -1.0467
12791TIP3   OH259863   3.917   3.402  13.921  0.1264 -0.3382  0.1520
12791TIP3    H159864   4.012   3.396  13.935  0.5554  1.4650 -1.6409
12791TIP3    H259865   3.881   3.330  13.973  2.2375  0.4599  2.9231
12792TIP3   OH259866   5.167   2.794   3.860 -0.0584  0.1668 -0.1520
12792TIP3    H159867   5.239   2.828   3.807  0.0834 -1.2080 -0.9097
12792TIP3    H259868   5.181   2.699   3.860 -0.7315  0.0325  1.3862
12793TIP3   OH259869   5.883   1.180   3.303 -0.1382 -0.7364  0.2411
12793TIP3    H159870   5.835   1.231   3.237  1.3412  0.6329  0.1576
12793TIP3    H259871   5.930   1.114   3.254 -0.8251 -1.1921  0.1826
12794TIP3   OH259872   1.284   5.495   3.904  0.1651 -0.2251 -0.8852
12794TIP3    H159873   1.202   5.446   3.908  0.8556 -1.3402  0.3683
12794TIP3    H259874   1.266   5.576   3.952 -0.4548 -0.0564 -1.3937
12795TIP3   OH259875   6.656   4.993   4.847  0.0268 -0.0274  0.3972
12795TIP3    H159876   6.658   4.897   4.849 -3.0838 -0.2621 -1.1458
12795TIP3    H259877   6.632   5.019   4.936 -1.2104 -0.8781  0.3420
12796TIP3   OH259878   3.535   4.952  11.404  0.1254 -0.5040  0.4273
12796TIP3    H159879   3.599   4.980  11.469  0.3425 -1.2106  0.5284
12796TIP3    H259880   3.503   5.033  11.365  1.1777 -0.1472  0.2885
12797TIP3   OH259881   4.972   0.204   2.840 -0.4798 -0.2637  0.1441
12797TIP3    H159882   4.952   0.117   2.805 -1.8658 -0.1312  0.5384
12797TIP3    H259883   4.895   0.227   2.892  1.4512 -0.4631  3.3352
12798TIP3   OH259884   0.395   6.166   3.899 -0.0084  0.2684 -0.0374
12798TIP3    H159885   0.413   6.074   3.879 -2.4960 -0.2985 -0.1043
12798TIP3    H259886   0.390   6.169   3.994  1.3039  0.6273  0.0297
12799TIP3   OH259887   5.484   5.794  13.812 -0.0490  0.4095  0.4197
12799TIP3    H159888   5.449   5.713  13.774 -0.0797  0.0719  1.1529
12799TIP3    H259889   5.484   5.778  13.907  2.3299  0.3072  0.4439
12800TIP3   OH259890   6.431   5.729   1.687  0.7622 -0.3356 -0.4912
12800TIP3    H159891   6.511   5.782   1.697 -0.5207  1.6378 -0.0998
12800TIP3    H259892   6.434   5.667   1.759  1.6563  0.0973 -0.1371
12801TIP3   OH259893   1.094   5.089   3.162  0.3722  0.0057  0.2763
12801TIP3    H159894   1.184   5.113   3.180  0.9129 -2.1274  0.6323
12801TIP3    H259895   1.090   5.079   3.067  0.3519  0.6361  0.2077
12802TIP3   OH259896   3.926   2.048  15.896  0.6180  1.2147 -0.4673
12802TIP3    H159897   4.006   1.995  15.886  0.1431  0.1891  0.8513
12802TIP3    H259898   3.862   1.988  15.934 -0.0684  2.6368  0.7301
12803TIP3   OH259899   4.167   4.901   6.914 -0.4595  0.3166  0.6905
12803TIP3    H159900   4.260   4.892   6.892 -0.2002  2.5603  0.6166
12803TIP3    H259901   4.144   4.819   6.957  1.3437 -0.6007 -0.0015
12804TIP3   OH259902   0.611   3.580  12.271 -0.0873 -0.0977 -0.0835
12804TIP3    H159903   0.531   3.632  12.259 -0.9244 -1.2992  0.1352
12804TIP3    H259904   0.628   3.583  12.365  0.3382  0.4451 -0.1716
12805TIP3   OH259905   3.020   2.838   2.898  0.5079 -0.0579  0.8355
12805TIP3    H159906   3.072   2.789   2.834  0.3373 -0.1964  0.8021
12805TIP3    H259907   3.049   2.929   2.887 -0.7799  0.2066 -0.7045
12806TIP3   OH259908   2.007   2.869  14.132  0.4041  0.3775  0.0368
12806TIP3    H159909   2.072   2.842  14.068  0.7190 -0.1794  0.5744
12806TIP3    H259910   2.010   2.800  14.199 -0.9231  0.1984 -0.0618
12807TIP3   OH259911   2.137   1.129  14.671 -0.2767 -0.0857  0.3476
12807TIP3    H159912   2.148   1.051  14.726 -1.1489  0.2135  0.9736
12807TIP3    H259913   2.042   1.135  14.656 -0.1927  0.6827  0.0650
12808TIP3   OH259914   1.222   4.557  14.400  0.4063  0.2129 -1.0178
12808TIP3    H159915   1.264   4.620  14.459 -1.4948 -0.5462  1.2713
12808TIP3    H259916   1.270   4.476  14.414  0.4279  0.2135 -1.0883
12809TIP3   OH259917   3.121   5.615  16.398  0.0789  0.1139 -0.3049
12809TIP3    H159918   3.078   5.633  16.314  0.2922 -0.3846 -0.5231
12809TIP3    H259919   3.155   5.526  16.389  0.2984  0.1410  0.2308
12810TIP3   OH259920   6.646   1.413   3.768  0.3208  0.5279 -0.0530
12810TIP3    H159921   6.641   1.319   3.786 -0.1783  0.5858  0.1410
12810TIP3    H259922   6.739   1.431   3.760  0.4389  0.0723  0.2301
12811TIP3   OH259923   5.334   4.241   2.756  0.4151 -0.0545  0.4211
12811TIP3    H159924   5.301   4.163   2.710 -2.0570  0.4599  1.1683
12811TIP3    H259925   5.396   4.206   2.820  2.5629 -0.9463 -1.9815
12812TIP3   OH259926   3.304   3.504  15.320  0.5110  0.4666  0.1282
12812TIP3    H159927   3.227   3.454  15.350 -0.4845  2.0151  0.3063
12812TIP3    H259928   3.367   3.437  15.293 -0.3865 -0.8970  1.2216
12813TIP3   OH259929   6.199   5.239  15.482 -0.0768 -0.2255  0.1396
12813TIP3    H159930   6.245   5.156  15.474 -1.9962 -1.3763  0.5065
12813TIP3    H259931   6.159   5.253  15.396  2.2450  1.6549 -0.7575
12814TIP3   OH259932   3.814   1.407  15.522  0.2040  0.0532 -0.0313
12814TIP3    H159933   3.773   1.380  15.604  0.2017 -0.4423 -0.1955
12814TIP3    H259934   3.798   1.335  15.461 -0.2784  0.6562 -0.6358
12815TIP3   OH259935   4.901   6.675   2.360 -0.3329  0.4637 -0.3790
12815TIP3    H159936   4.967   6.734   2.325 -1.5739  2.3935  0.3880
12815TIP3    H259937   4.948   6.592   2.373  0.9467  0.5945 -3.4375
12816TIP3   OH259938   4.437   5.612   1.800  0.5023 -0.1544 -0.8478
12816TIP3    H159939   4.354   5.615   1.849  1.7132 -1.0963  1.4194
12816TIP3    H259940   4.422   5.668   1.724 -1.9938  0.2259 -0.1640
12817TIP3   OH259941   0.504   2.407  15.552  0.5616 -0.2322  0.5295
12817TIP3    H159942   0.459   2.412  15.468  1.1726 -0.8333  0.1517
12817TIP3    H259943   0.434   2.394  15.616  0.2130 -1.6436 -0.0947
12818TIP3   OH259944   5.211   4.594  14.092 -0.0564 -0.4030 -0.3688
12818TIP3    H159945   5.234   4.551  14.175  2.8935  1.9614  0.2128
12818TIP3    H259946   5.269   4.554  14.027  0.1520  0.2123 -0.5618
12819TIP3   OH259947   0.512   1.733   0.957 -0.2503  0.3868 -0.4781
12819TIP3    H159948   0.483   1.773   0.874  0.2653 -1.6100 -1.6930
12819TIP3    H259949   0.604   1.711   0.942 -0.7327 -2.0675 -0.2796
12820TIP3   OH259950   5.084   3.435  13.097 -0.4315  0.6259 -0.5684
12820TIP3    H159951   5.051   3.428  13.186  0.9937 -4.6595 -0.0906
12820TIP3    H259952   5.011   3.406  13.042 -0.6146  1.7776 -0.9673
12821TIP3   OH259953   0.897   5.871   0.781  0.5460 -0.0231 -0.1166
12821TIP3    H159954   0.848   5.952   0.771  0.2197 -0.1139  0.6834
12821TIP3    H259955   0.846   5.805   0.733 -0.4805 -0.2568  1.2607
12822TIP3   OH259956   3.328   6.475  15.050 -0.2181  0.1997 -0.2094
12822TIP3    H159957   3.375   6.437  15.124  0.1366  1.0263 -0.0097
12822TIP3    H259958   3.283   6.400  15.010  0.4962 -0.4396  0.1595
12823TIP3   OH259959   4.279   4.192  12.945 -0.1094  0.4542 -0.8561
12823TIP3    H159960   4.345   4.144  12.994 -0.2363 -0.2256 -1.3410
12823TIP3    H259961   4.317   4.279  12.930  0.8820 -0.0908 -1.5719
12824TIP3   OH259962   0.505   3.160  14.022 -0.0141 -0.3140  0.1328
12824TIP3    H159963   0.596   3.182  14.002  0.3186 -0.7418  1.1458
12824TIP3    H259964   0.467   3.242  14.052  0.9054 -0.7500  2.7490
12825TIP3   OH259965   1.599   3.957  10.538  0.0485 -0.5067 -0.4260
12825TIP3    H159966   1.523   3.901  10.519 -0.1601 -0.2141 -0.4601
12825TIP3    H259967   1.593   3.974  10.632 -0.3901  0.1864 -0.5757
12826TIP3   OH259968   5.049   0.979  15.794 -0.4567  0.1714 -0.2555
12826TIP3    H159969   5.121   0.961  15.733  0.4747  0.9566  0.5821
12826TIP3    H259970   5.071   0.932  15.873 -0.3848  1.1466  0.3242
12827TIP3   OH259971   0.416   4.934   2.999  0.0625  0.1403  0.2364
12827TIP3    H159972   0.361   4.921   3.077 -0.0297 -0.9694  0.0097
12827TIP3    H259973   0.499   4.892   3.021  0.9942  2.0974  0.7059
12828TIP3   OH259974   3.670   5.698   4.919 -0.0770  0.3210  0.3914
12828TIP3    H159975   3.575   5.706   4.931 -0.4844 -1.4264 -1.1212
12828TIP3    H259976   3.685   5.721   4.828  0.7198 -0.7843  0.2131
12829TIP3   OH259977   6.746   6.057  14.603  0.3145 -0.0308 -0.4811
12829TIP3    H159978   6.801   6.044  14.526  1.4905  0.7512  0.1939
12829TIP3    H259979   6.785   6.133  14.648 -0.5354 -0.2668  0.7032
12830TIP3   OH259980   0.950   0.542   5.252  0.6744 -0.2047 -0.2794
12830TIP3    H159981   0.899   0.529   5.331  0.5688 -0.7695 -0.4375
12830TIP3    H259982   0.974   0.635   5.254  0.5970 -0.1945  0.3637
12831TIP3   OH259983   1.059   0.978   0.438  0.1332 -0.1091  0.3206
12831TIP3    H159984   1.147   0.939   0.431  0.1183 -0.5362  2.0249
12831TIP3    H259985   1.039   1.008   0.349  1.2637 -1.5843 -0.4820
12832TIP3   OH259986   5.238   4.405   0.099  0.2801  0.0948 -0.0452
12832TIP3    H159987   5.282   4.371   0.177 -1.8296 -0.4101  0.9753
12832TIP3    H259988   5.310   4.429   0.040  1.9116 -0.3151  1.6897
12833TIP3   OH259989   2.905   0.004  12.351 -0.4267  0.6129  0.4832
12833TIP3    H159990   2.820  -0.026  12.319 -0.4320  1.2179 -0.0989
12833TIP3    H259991   2.933   0.070  12.287  0.4601  0.4504  0.6864
12834TIP3   OH259992   5.932   2.452  13.390  0.1139 -0.2024  0.1179
12834TIP3    H159993   6.010   2.502  13.365  0.6628 -2.2017 -2.6889
12834TIP3    H259994   5.962   2.391  13.457  0.6639 -0.1011 -0.0358
12835TIP3   OH259995   3.169   6.224  11.305  0.9353 -0.3135 -0.1271
12835TIP3    H159996   3.233   6.295  11.299  1.2947 -0.4544  1.6279
12835TIP3    H259997   3.196   6.162  11.237  2.3136 -0.0847  0.1857
12836TIP3   OH259998   4.264   0.603   2.641 -0.6912  0.2643  0.2581
12836TIP3    H159999   4.359   0.616   2.638 -0.6441 -0.0241  0.3875
12836TIP3    H260000   4.237   0.643   2.723 -1.1466  3.1128 -1.1706
12837TIP3   OH260001   1.643   5.783   0.500  1.0926  0.6103 -0.8756
12837TIP3    H160002   1.646   5.707   0.558 -1.5346  0.0445 -1.3355
12837TIP3    H260003   1.583   5.756   0.430  0.8881  2.7700 -1.5925
12838TIP3   OH260004   5.219   0.071  16.620  0.2659 -0.2110  0.0132
12838TIP3    H160005   5.221  -0.018  16.654 -2.5945 -0.7444 -0.8806
12838TIP3    H260006   5.146   0.070  16.557 -0.1501  2.8600  0.3168
12839TIP3   OH260007   6.615   2.406  14.994 -0.1872 -0.4502  0.3013
12839TIP3    H160008   6.695   2.454  14.969 -1.5455  1.0199 -1.5709
12839TIP3    H260009   6.643   2.315  15.000  1.6964  0.0555 -0.0195
12840TIP3   OH260010   3.932   1.752  11.825 -0.0736 -0.1640  0.5509
12840TIP3    H160011   3.941   1.662  11.793 -1.7404 -0.5021  0.9410
12840TIP3    H260012   3.848   1.782  11.790 -0.7255  0.3535  2.4553
12841TIP3   OH260013   5.903   1.626  13.164  0.7669  0.5771 -0.0835
12841TIP3    H160014   5.845   1.679  13.219  0.0942 -1.4738  1.3202
12841TIP3    H260015   5.941   1.563  13.225  0.5832 -1.3341 -1.8470
12842TIP3   OH260016   4.213   0.109   5.418 -0.0155 -0.6268 -0.3828
12842TIP3    H160017   4.120   0.129   5.431  0.5006  2.8490 -0.8980
12842TIP3    H260018   4.238   0.057   5.495 -1.8003  0.7031  1.1930
12843TIP3   OH260019   3.730   6.675  16.518  0.2549 -0.0852 -0.1866
12843TIP3    H160020   3.748   6.607  16.453  0.3058 -2.7759  2.4384
12843TIP3    H260021   3.809   6.728  16.520  1.5028 -1.8462 -0.1953
12844TIP3   OH260022   1.624   5.559  15.854  0.4569 -0.4653  0.4663
12844TIP3    H160023   1.665   5.645  15.865 -0.7360  0.1485  0.3011
12844TIP3    H260024   1.634   5.541  15.760  0.7268 -0.5157  0.5043
12845TIP3   OH260025   3.878   3.501   1.874  0.2439  0.6609  0.1587
12845TIP3    H160026   3.819   3.513   1.948  0.5354  2.6618  0.1141
12845TIP3    H260027   3.834   3.438   1.818  0.0971 -1.0684  2.0814
12846TIP3   OH260028   2.976   5.319  17.165  0.5574  0.7134 -0.0837
12846TIP3    H160029   2.945   5.409  17.152 -2.3747 -0.4570 -2.1745
12846TIP3    H260030   2.957   5.299  17.257 -1.1086  1.4339 -0.2519
12847TIP3   OH260031   1.067   1.313  16.390  0.0337  0.0318 -0.5533
12847TIP3    H160032   1.162   1.303  16.387  0.2115  0.7419  1.2829
12847TIP3    H260033   1.052   1.405  16.367  0.2388  1.1844  3.1903
12848TIP3   OH260034   2.516   1.884   4.224 -0.1192 -0.1548  0.2357
12848TIP3    H160035   2.605   1.854   4.243 -0.1073  0.7635  1.8386
12848TIP3    H260036   2.465   1.803   4.216  0.5761 -0.6819  0.8806
12849TIP3   OH260037   0.608   2.905  14.182  1.0282  0.2920  0.4436
12849TIP3    H160038   0.617   2.948  14.097 -1.7262 -2.0518 -1.2242
12849TIP3    H260039   0.531   2.947  14.222  1.7919  0.7924  1.4365
12850TIP3   OH260040   5.367   5.994  12.296 -0.1784 -0.1076  0.5944
12850TIP3    H160041   5.402   6.042  12.371  3.7201 -0.0417 -1.0026
12850TIP3    H260042   5.387   5.902  12.315  1.5217 -0.0254 -0.5617
12851TIP3   OH260043   5.998   5.996   5.290 -0.1954  0.0089  0.3952
12851TIP3    H160044   6.022   5.930   5.354  0.2794  0.9849  1.2631
12851TIP3    H260045   5.904   6.011   5.304 -0.2106 -0.1792  0.4837
12852TIP3   OH260046   1.641   1.393   3.376  0.2874 -0.0569 -0.7566
12852TIP3    H160047   1.578   1.344   3.324  0.0406  0.9190 -1.3990
12852TIP3    H260048   1.709   1.419   3.314  2.2356 -2.4322  0.1926
12853TIP3   OH260049   1.995   6.306   4.134  0.1334  0.0635  0.4482
12853TIP3    H160050   1.924   6.369   4.122 -0.2571 -0.2151  1.2086
12853TIP3    H260051   2.068   6.342   4.085 -1.2277 -0.8647 -2.4893
12854TIP3   OH260052   3.314   5.470  11.728 -0.1612 -0.4330 -0.1990
12854TIP3    H160053   3.306   5.394  11.786  0.4828  1.0727  1.9504
12854TIP3    H260054   3.398   5.509  11.751  0.7849 -0.5094 -3.1548
12855TIP3   OH260055   4.944   5.172  16.583  0.2834 -0.1208  0.3343
12855TIP3    H160056   4.979   5.260  16.568  0.6628 -0.5121 -1.3156
12855TIP3    H260057   5.018   5.114  16.569 -0.0104 -0.7230  1.2209
12856TIP3   OH260058   1.161   6.418  13.325  0.1357  0.3707  0.4062
12856TIP3    H160059   1.204   6.332  13.319  0.7500  0.7424 -0.9567
12856TIP3    H260060   1.150   6.433  13.419  1.2707 -0.5962  0.7236
12857TIP3   OH260061   3.065   2.580  16.412 -0.3668  0.7186  0.2860
12857TIP3    H160062   3.020   2.501  16.440 -0.1557 -0.2215 -1.8861
12857TIP3    H260063   3.148   2.579  16.461 -0.3096 -0.4691  0.1781
12858TIP3   OH260064   2.951   3.638   2.862  0.7322 -0.0245 -0.3867
12858TIP3    H160065   2.996   3.589   2.794  2.2687  0.4671  0.2181
12858TIP3    H260066   2.933   3.573   2.930  0.2192 -0.2915 -0.7736
12859TIP3   OH260067   2.936   1.698  15.158  0.0812  0.6329 -0.1823
12859TIP3    H160068   2.932   1.635  15.086 -0.4951  1.2859 -0.7279
12859TIP3    H260069   2.875   1.663  15.224  2.5942 -1.4550  1.2572
12860TIP3   OH260070   2.572   4.008  15.652 -0.4227  0.2529 -0.1221
12860TIP3    H160071   2.566   3.927  15.704 -2.0339 -0.0138 -0.6651
12860TIP3    H260072   2.646   3.994  15.593 -0.1971 -0.5005  0.3282
12861TIP3   OH260073   4.268   4.085   4.043  0.6209  1.0537  0.6298
12861TIP3    H160074   4.210   4.161   4.047 -1.1111 -0.1722  4.8598
12861TIP3    H260075   4.328   4.096   4.117 -0.5051 -2.0932  2.2231
12862TIP3   OH260076   6.130   0.095  13.804 -0.5208  0.0698  0.0750
12862TIP3    H160077   6.166   0.180  13.782 -1.6440  0.5976  0.1807
12862TIP3    H260078   6.129   0.093  13.900  0.9046 -0.6982  0.0986
12863TIP3   OH260079   2.492   4.004  16.383  0.3062 -0.6228 -0.0050
12863TIP3    H160080   2.578   4.009  16.341  1.0449  0.7169  1.5671
12863TIP3    H260081   2.492   4.074  16.448 -1.3249 -1.6737  1.2316
12864TIP3   OH260082   6.218   4.409   5.448 -0.0085  0.6262  0.0048
12864TIP3    H160083   6.212   4.323   5.490 -0.7232 -0.1457 -1.5930
12864TIP3    H260084   6.151   4.462   5.493 -0.6072 -0.1070 -0.0018
12865TIP3   OH260085   2.908   0.528  14.989 -0.0514  0.1770  0.7372
12865TIP3    H160086   2.983   0.582  15.014  0.4815 -0.6983  1.0421
12865TIP3    H260087   2.944   0.442  14.969 -0.7756  0.1637 -0.6787
12866TIP3   OH260088   2.388   3.668  15.461 -0.8782 -0.1230  0.5234
12866TIP3    H160089   2.480   3.670  15.489 -0.8594  1.0314  0.4289
12866TIP3    H260090   2.365   3.575  15.460  0.2946 -0.4252  0.5377
12867TIP3   OH260091   3.060   3.333  11.567  0.4641 -0.6545 -0.5185
12867TIP3    H160092   3.086   3.278  11.642 -0.8951 -0.1447  0.3744
12867TIP3    H260093   3.138   3.383  11.545  0.8563 -0.7287  0.6487
12868TIP3   OH260094   6.147   3.801  13.236 -0.7546 -0.5730  0.2349
12868TIP3    H160095   6.148   3.883  13.284 -0.6430 -0.5228  0.1465
12868TIP3    H260096   6.239   3.785  13.213 -0.8199 -0.5268 -0.0768
12869TIP3   OH260097   6.076   3.092  12.597 -0.0329 -0.4938  0.8675
12869TIP3    H160098   6.012   3.131  12.537 -0.2392 -0.4707  1.1044
12869TIP3    H260099   6.024   3.060  12.670  0.0637 -1.6861  0.4396
12870TIP3   OH260100   6.659   4.453  17.217 -0.2732 -0.2303  0.2053
12870TIP3    H160101   6.655   4.388  17.147  0.7460 -0.9557  0.7876
12870TIP3    H260102   6.699   4.406  17.291  0.1711  0.9624  0.7522
12871TIP3   OH260103   3.043   0.221  10.897  0.1538  0.4400 -0.3955
12871TIP3    H160104   3.091   0.192  10.820 -1.2043  1.0654 -1.5408
12871TIP3    H260105   3.046   0.317  10.892 -0.0933  0.4860  0.2400
12872TIP3   OH260106   4.035   3.760   4.553 -0.1156 -0.0624  0.2874
12872TIP3    H160107   4.042   3.717   4.468 -0.6177 -1.3066  0.8467
12872TIP3    H260108   3.943   3.781   4.563 -0.0946 -0.0991  0.5946
12873TIP3   OH260109   2.613   5.294  15.462  0.5274 -0.2647  0.3387
12873TIP3    H160110   2.575   5.230  15.523 -0.6402 -0.5530 -0.6662
12873TIP3    H260111   2.641   5.366  15.519  1.1689 -1.3084  1.4116
12874TIP3   OH260112   5.927   3.870   2.020  0.0661  0.0981  0.0170
12874TIP3    H160113   5.961   3.798   1.968  2.2264 -0.5168  2.1043
12874TIP3    H260114   5.871   3.829   2.086  0.8607  0.3623  0.8745
12875TIP3   OH260115   5.969   5.159  16.251  0.0946 -0.0580  0.1981
12875TIP3    H160116   6.033   5.113  16.197  1.0465 -0.8121  1.8702
12875TIP3    H260117   5.887   5.149  16.204  0.8969 -0.5088 -1.1854
12876TIP3   OH260118   3.361   0.189  14.974 -0.1824 -0.0433 -0.1440
12876TIP3    H160119   3.291   0.147  14.924 -1.2964  0.3923  0.9753
12876TIP3    H260120   3.422   0.222  14.908  0.7879 -3.3489 -1.0993
12877TIP3   OH260121   6.622   2.399   4.923 -0.1984 -0.4986 -0.0738
12877TIP3    H160122   6.670   2.316   4.923  0.7739 -0.0431 -2.7074
12877TIP3    H260123   6.553   2.387   4.858 -1.6937 -0.0421  1.3589
12878TIP3   OH260124   6.589   2.671  11.452  0.4245 -0.0281  0.1867
12878TIP3    H160125   6.671   2.622  11.455  0.4753  0.0767  0.5455
12878TIP3    H260126   6.599   2.738  11.520  0.0702  0.0269  0.1847
12879TIP3   OH260127   6.762   2.643  12.449 -0.4277  0.0186  0.7927
12879TIP3    H160128   6.759   2.652  12.545  0.7591 -1.6217  1.0340
12879TIP3    H260129   6.735   2.729  12.416 -2.9276  0.0343  2.5446
12880TIP3   OH260130   5.923   4.109  12.869  0.5336  0.2536  0.2248
12880TIP3    H160131   5.976   4.180  12.832  0.2760 -0.7583 -2.3365
12880TIP3    H260132   5.982   4.034  12.870 -0.3805 -0.5526 -1.3945
12881TIP3   OH260133   1.102   5.709   0.680 -0.2732  0.1470 -0.4816
12881TIP3    H160134   1.039   5.762   0.729 -1.7910 -1.5000 -0.5534
12881TIP3    H260135   1.053   5.677   0.605  1.0358 -0.1843 -1.2166
12882TIP3   OH260136   0.444   6.282  17.088 -0.6809 -0.2475 -0.4946
12882TIP3    H160137   0.442   6.365  17.041 -0.4018 -1.1638 -2.2521
12882TIP3    H260138   0.536   6.269  17.111 -0.8053  0.1657  0.2430
12883TIP3   OH260139   1.084   6.600   1.806  0.4834 -0.1744  0.0198
12883TIP3    H160140   1.045   6.634   1.887 -0.2108 -2.1655  0.5788
12883TIP3    H260141   1.141   6.528   1.835  1.5093  0.1377 -1.1412
12884TIP3   OH260142   0.220   1.865   5.021 -0.0416 -0.3014 -0.6353
12884TIP3    H160143   0.148   1.821   4.976 -1.0768  0.0557  0.6051
12884TIP3    H260144   0.211   1.957   4.997 -0.6098 -0.1052  0.2437
12885TIP3   OH260145   2.925   1.871  14.027  0.1408  0.5179 -0.5714
12885TIP3    H160146   2.974   1.930  13.969  0.7525  1.3927  0.7833
12885TIP3    H260147   2.984   1.856  14.101 -0.8415 -0.1173  0.1073
12886TIP3   OH260148   0.769   1.597   2.262  0.0340 -0.1748 -0.0107
12886TIP3    H160149   0.785   1.623   2.353 -0.7258  1.4835 -0.3309
12886TIP3    H260150   0.856   1.581   2.226  0.4493  0.8226  0.5327
12887TIP3   OH260151   4.951   0.687   2.917  0.0150  0.6617 -0.0603
12887TIP3    H160152   4.952   0.645   2.831  0.1212  0.1880  0.1696
12887TIP3    H260153   4.871   0.655   2.959  0.9504 -0.6874  0.7766
12888TIP3   OH260154   2.203   2.693   2.423 -0.1520 -0.0147  0.2983
12888TIP3    H160155   2.277   2.642   2.457  0.2866 -0.5368 -1.3169
12888TIP3    H260156   2.217   2.781   2.458  1.2481 -0.1029  0.0455
12889TIP3   OH260157   1.847   4.380  13.690 -0.6012  0.3040 -0.2430
12889TIP3    H160158   1.853   4.305  13.632  0.1422  0.1329  0.0378
12889TIP3    H260159   1.794   4.349  13.764  1.8727 -0.8817  1.1964
12890TIP3   OH260160   6.179   1.982  12.314  0.4357  0.8749  0.0962
12890TIP3    H160161   6.085   1.967  12.306  0.5141  0.1657  0.4734
12890TIP3    H260162   6.193   2.066  12.271 -0.5148  1.4526  0.8823
12891TIP3   OH260163   3.678   4.340   2.741  0.7530 -0.3017  0.1352
12891TIP3    H160164   3.609   4.346   2.807 -0.8583 -0.7795 -1.4123
12891TIP3    H260165   3.686   4.246   2.724  0.5580 -0.1480 -0.8897
12892TIP3   OH260166   5.603   2.354   2.803  0.1778  0.1161 -0.7315
12892TIP3    H160167   5.556   2.308   2.872  0.0349  0.1767 -0.7895
12892TIP3    H260168   5.695   2.329   2.817 -0.0091 -0.9760 -1.3600
12893TIP3   OH260169   2.480   1.700  15.509  0.0088  0.1252 -0.0501
12893TIP3    H160170   2.469   1.647  15.431  1.2646  1.4135 -1.1721
12893TIP3    H260171   2.391   1.725  15.534 -0.4216 -0.3842 -1.0086
12894TIP3   OH260172   5.937   5.677   3.640 -0.1205 -1.0609  0.8222
12894TIP3    H160173   6.023   5.636   3.629  0.2847 -0.0526  0.0406
12894TIP3    H260174   5.886   5.645   3.565  0.0932 -0.3930  0.3906
12895TIP3   OH260175   4.027   1.522   4.105  0.7218 -0.4358 -0.1267
12895TIP3    H160176   3.967   1.541   4.177  1.9516  0.3444  0.7285
12895TIP3    H260177   3.972   1.523   4.027  0.0306  3.3038  0.2477
12896TIP3   OH260178   3.159   3.266  13.566 -0.1963  0.4533 -0.6317
12896TIP3    H160179   3.205   3.278  13.649 -1.8635  1.5954  0.1650
12896TIP3    H260180   3.203   3.326  13.506  0.2695  0.4724 -0.2820
12897TIP3   OH260181   2.184   3.643  11.267  0.1027  0.1962 -0.1161
12897TIP3    H160182   2.257   3.702  11.283 -0.2465  0.5184  0.3427
12897TIP3    H260183   2.189   3.580  11.339 -1.2820  1.4507  1.1443
12898TIP3   OH260184   0.213   1.917   5.304 -0.6191 -0.1585 -0.6551
12898TIP3    H160185   0.157   1.847   5.335  1.0251 -1.6662 -0.9268
12898TIP3    H260186   0.250   1.884   5.222 -0.9550  1.6555 -1.5955
12899TIP3   OH260187   1.342   3.997  14.868  0.3041 -0.4651  0.4232
12899TIP3    H160188   1.347   4.084  14.830  2.4340 -0.0807  1.4172
12899TIP3    H260189   1.372   4.009  14.959 -1.3808 -1.8927  1.2325
12900TIP3   OH260190   1.886   4.895  16.687  0.2540  0.2773 -0.4235
12900TIP3    H160191   1.864   4.952  16.614 -1.7869 -1.2080 -1.0602
12900TIP3    H260192   1.848   4.937  16.763  1.7665  1.4681 -0.2846
12901TIP3   OH260193   0.313   5.753  16.532  0.0142  0.1953  0.6312
12901TIP3    H160194   0.391   5.805  16.514  0.5188 -0.8849 -0.5153
12901TIP3    H260195   0.267   5.749  16.448 -0.5793 -0.2625  0.9711
12902TIP3   OH260196   1.242   4.260   5.052 -0.0912  0.0931  0.1100
12902TIP3    H160197   1.223   4.172   5.082 -1.0170 -0.4757 -1.9825
12902TIP3    H260198   1.337   4.261   5.038  0.0490 -0.2650  0.9573
12903TIP3   OH260199   2.430   3.153  10.838 -0.5316  0.0266 -0.5352
12903TIP3    H160200   2.524   3.141  10.852 -0.8222 -1.4252  0.3353
12903TIP3    H260201   2.422   3.244  10.810  0.9750  0.6550  0.8873
12904TIP3   OH260202   0.781   3.967  11.910 -0.0003  0.6059 -0.0689
12904TIP3    H160203   0.814   3.984  11.822 -0.9950 -0.6863 -0.7218
12904TIP3    H260204   0.825   3.887  11.938 -1.4078 -0.3062 -0.3564
12905TIP3   OH260205   4.901   1.722  16.873 -0.0612 -0.3542 -0.5965
12905TIP3    H160206   4.839   1.657  16.840  0.6058 -1.5937  0.4762
12905TIP3    H260207   4.853   1.770  16.940  0.0512 -1.1810  0.0935
12906TIP3   OH260208   3.198   4.566   2.619  0.0934  0.3017 -0.1971
12906TIP3    H160209   3.261   4.586   2.688 -2.1126 -1.2628  2.4489
12906TIP3    H260210   3.225   4.480   2.586  0.9715  0.9192 -1.1729
12907TIP3   OH260211   2.731   2.620  14.510 -0.3822  0.5807  0.6857
12907TIP3    H160212   2.737   2.559  14.437 -0.2768  1.2565  0.1138
12907TIP3    H260213   2.766   2.572  14.585  1.7407  0.6628 -0.1924
12908TIP3   OH260214   3.745   3.228  14.500 -0.0747 -0.7128 -0.2067
12908TIP3    H160215   3.675   3.173  14.463 -2.3042  1.2838  0.7691
12908TIP3    H260216   3.787   3.171  14.565 -2.8563 -1.1765  1.3971
12909TIP3   OH260217   0.450   1.488  12.142 -0.2383 -0.4165 -0.3978
12909TIP3    H160218   0.446   1.538  12.224  0.3496 -0.8575 -0.0913
12909TIP3    H260219   0.470   1.553  12.075 -0.3217 -0.1144 -0.1311
12910TIP3   OH260220   0.390   3.229  14.695 -0.0959  0.0648 -0.0750
12910TIP3    H160221   0.357   3.270  14.775  0.4649  1.0321 -0.3371
12910TIP3    H260222   0.434   3.150  14.726 -1.8837 -0.8370  0.3646
12911TIP3   OH260223   1.732   2.397   3.793  0.1417  0.6446 -0.4265
12911TIP3    H160224   1.759   2.305   3.792  1.6527  1.0636 -0.5967
12911TIP3    H260225   1.704   2.415   3.703  1.2604  0.7292 -0.7706
12912TIP3   OH260226   2.991   5.087  15.703 -0.4719  0.0848 -0.5906
12912TIP3    H160227   2.998   5.166  15.649 -0.0072 -0.9954 -2.1633
12912TIP3    H260228   3.080   5.072  15.735 -0.4488 -0.1396 -0.7651
12913TIP3   OH260229   5.370   5.858   5.308 -0.0976  0.0546  0.3418
12913TIP3    H160230   5.450   5.910   5.301  0.0027 -0.0845  0.4804
12913TIP3    H260231   5.314   5.909   5.366 -1.7142  2.2410 -2.8450
12914TIP3   OH260232   3.935   6.161   0.149 -0.1029  0.1197 -0.4195
12914TIP3    H160233   3.844   6.188   0.165  0.2223  1.0394 -0.0189
12914TIP3    H260234   3.974   6.157   0.237  0.2429 -0.2537 -0.5903
12915TIP3   OH260235   5.043   3.163   6.368 -0.4566 -0.3887  0.3010
12915TIP3    H160236   5.138   3.171   6.363 -0.4618 -0.8559 -1.1355
12915TIP3    H260237   5.014   3.244   6.411  0.6661 -0.8805  2.0537
12916TIP3   OH260238   6.099   6.730   3.949 -0.4006  0.2685  0.2374
12916TIP3    H160239   6.107   6.659   4.014 -1.0799 -0.5233 -0.5295
12916TIP3    H260240   6.006   6.736   3.930 -0.2604  0.8217 -0.3228
12917TIP3   OH260241   6.519   2.249   1.331  0.4649 -0.8801  0.4674
12917TIP3    H160242   6.571   2.270   1.254 -1.5079  1.2275 -0.4118
12917TIP3    H260243   6.540   2.317   1.395 -0.7636 -0.3071  0.2920
12918TIP3   OH260244   3.677   5.322  14.642  1.0107  0.1946  0.2657
12918TIP3    H160245   3.750   5.265  14.663  0.3661 -0.7360  0.0276
12918TIP3    H260246   3.672   5.322  14.547  0.0855 -0.5624  0.3002
12919TIP3   OH260247   4.961   0.414  11.331 -0.0754 -0.5306  0.3261
12919TIP3    H160248   4.874   0.380  11.309 -0.4586  0.3509  0.4141
12919TIP3    H260249   5.007   0.418  11.248 -0.7681  0.7309 -0.0283
12920TIP3   OH260250   5.445   5.693  12.738 -0.1114 -0.3042  0.1151
12920TIP3    H160251   5.512   5.626  12.725  0.5434  0.3136  0.2067
12920TIP3    H260252   5.493   5.775  12.735 -1.1882  0.3298 -2.2564
12921TIP3   OH260253   4.893   0.419  12.680  0.6460  0.1677  0.2057
12921TIP3    H160254   4.843   0.365  12.742 -0.9004 -2.9990 -3.3813
12921TIP3    H260255   4.983   0.389  12.690  0.9845  1.7603  2.7273
12922TIP3   OH260256   3.942   2.612  11.945 -0.8991 -1.2733  0.5340
12922TIP3    H160257   4.010   2.581  12.005  0.8985 -1.0375 -1.2655
12922TIP3    H260258   3.911   2.694  11.984 -0.4231 -1.5705  1.5647
12923TIP3   OH260259   4.945   5.655  16.025 -0.3367 -0.4193 -0.1945
12923TIP3    H160260   4.854   5.635  16.005  0.3178 -3.4015 -0.6720
12923TIP3    H260261   4.946   5.670  16.120 -1.2546 -0.6521 -0.1411
12924TIP3   OH260262   1.120   6.809   3.571  0.8088  0.1027  0.1507
12924TIP3    H160263   1.106   6.839   3.661 -1.3716 -2.3803  0.7806
12924TIP3    H260264   1.206   6.767   3.572  1.0970  0.6968  0.8885
12925TIP3   OH260265   4.185   0.442   2.215 -0.1041 -0.5932  0.1967
12925TIP3    H160266   4.110   0.422   2.271 -0.4135  0.7207  0.2907
12925TIP3    H260267   4.249   0.482   2.274  0.4675 -1.2442  0.0186
12926TIP3   OH260268   3.530   1.621  14.401  0.5103  0.1767  0.7570
12926TIP3    H160269   3.621   1.594  14.387  0.7255  1.0566  0.3327
12926TIP3    H260270   3.516   1.610  14.495  0.3530 -1.9986  0.5277
12927TIP3   OH260271   6.167   4.222  14.077 -0.5545  0.3577  0.2365
12927TIP3    H160272   6.177   4.286  14.148  0.2879 -0.4304  0.8487
12927TIP3    H260273   6.171   4.137  14.121  1.6238 -0.2043 -0.9081
12928TIP3   OH260274   0.920   0.033  14.759 -0.1789  0.8053  0.8091
12928TIP3    H160275   0.969   0.089  14.818  0.0354  1.5086 -0.0224
12928TIP3    H260276   0.907   0.086  14.680 -0.5814 -0.0603  0.2773
12929TIP3   OH260277   2.587   6.665  15.203  0.0564  0.1393 -0.1870
12929TIP3    H160278   2.548   6.752  15.215 -0.6103 -0.0608 -0.8411
12929TIP3    H260279   2.681   6.680  15.211 -0.1298  0.5917  1.7380
12930TIP3   OH260280   3.042   6.731   6.410 -0.1412 -0.3705 -0.2759
12930TIP3    H160281   2.964   6.768   6.451  1.7712  3.5310  0.3231
12930TIP3    H260282   3.008   6.677   6.338 -3.3893  1.3280 -0.2152
12931TIP3   OH260283   2.113   5.397   0.170  0.2253  0.1059 -0.9793
12931TIP3    H160284   2.126   5.302   0.178 -0.6223  0.0754  0.4080
12931TIP3    H260285   2.201   5.431   0.150  1.2761 -0.6953  1.7586
12932TIP3   OH260286   5.792   4.507   0.959 -0.6450 -0.6369 -0.2221
12932TIP3    H160287   5.853   4.545   1.023  0.1891 -2.1563 -0.0632
12932TIP3    H260288   5.735   4.451   1.012 -1.4244 -0.1403 -0.5308
12933TIP3   OH260289   0.154   2.610   1.113 -0.2092 -0.3478 -0.0539
12933TIP3    H160290   0.170   2.610   1.207 -1.9933  0.1660  0.2840
12933TIP3    H260291   0.121   2.698   1.094 -0.8236 -0.7562 -0.9760
12934TIP3   OH260292   1.522   3.115  16.589  0.4244 -0.2015  0.8667
12934TIP3    H160293   1.588   3.132  16.521 -0.2750 -0.6371  0.0661
12934TIP3    H260294   1.495   3.202  16.618 -0.7010  0.0596 -0.8312
12935TIP3   OH260295   4.414   2.098  11.060  0.1441  0.2213 -0.4748
12935TIP3    H160296   4.404   2.154  10.984 -0.1633 -2.4801 -2.5669
12935TIP3    H260297   4.509   2.084  11.067  0.3784  2.2295  1.0906
12936TIP3   OH260298   2.871   3.163   3.273  0.5113  0.1945 -0.7793
12936TIP3    H160299   2.905   3.249   3.297 -0.6516  0.2513  0.8228
12936TIP3    H260300   2.923   3.101   3.325  1.6710 -0.1617 -2.2786
12937TIP3   OH260301   2.905   1.028  15.108  0.2245  0.4836 -0.1284
12937TIP3    H160302   2.878   0.945  15.147  1.0726  0.0949 -0.3612
12937TIP3    H260303   2.855   1.034  15.026 -0.6796  0.7494  0.4253
12938TIP3   OH260304   6.393   6.402  13.457 -0.6022 -0.1103 -0.1151
12938TIP3    H160305   6.468   6.419  13.514 -1.1217 -3.8949  2.0812
12938TIP3    H260306   6.420   6.327  13.403 -1.7914  0.3658 -1.4312
12939TIP3   OH260307   5.899   4.397  10.498 -0.1556  0.2697 -0.4961
12939TIP3    H160308   5.857   4.330  10.443 -0.0120  0.4068 -0.7799
12939TIP3    H260309   5.993   4.377  10.491  0.0320  1.4800 -1.9213
12940TIP3   OH260310   1.649   3.810   2.981  0.2430 -0.0172  0.5510
12940TIP3    H160311   1.742   3.805   3.003  0.4002 -1.3762 -0.2625
12940TIP3    H260312   1.647   3.806   2.885 -0.6932 -1.5921  0.6032
12941TIP3   OH260313   4.562   6.266   3.073 -0.1472  0.0547  0.4371
12941TIP3    H160314   4.521   6.180   3.087 -1.8652  0.6464 -0.6213
12941TIP3    H260315   4.627   6.251   3.004 -2.3414  0.0349 -1.7846
12942TIP3   OH260316   3.082   5.948  12.910  0.0049 -0.4178  0.0649
12942TIP3    H160317   3.132   6.030  12.906  1.9582 -1.4866  1.1322
12942TIP3    H260318   3.034   5.953  12.992 -0.1169 -0.2308 -0.0151
12943TIP3   OH260319   3.931   4.547  16.212  0.0199  0.2358 -1.0731
12943TIP3    H160320   3.879   4.596  16.148  0.3529 -0.6781 -2.0804
12943TIP3    H260321   3.870   4.484  16.249 -1.0609  2.8202  1.9803
12944TIP3   OH260322   1.380   2.478   4.256 -0.1277  0.4653 -0.0152
12944TIP3    H160323   1.436   2.431   4.195 -1.2575 -0.8451 -0.1082
12944TIP3    H260324   1.306   2.508   4.203 -1.9484 -2.0735  0.8420
12945TIP3   OH260325   1.444   1.239  12.269 -0.0678  0.4211  0.0267
12945TIP3    H160326   1.403   1.166  12.223  1.2849  0.2757 -1.0255
12945TIP3    H260327   1.391   1.251  12.347 -1.8672  0.0167 -1.0661
12946TIP3   OH260328   0.809   5.420  17.238 -0.1020 -0.1854 -0.1890
12946TIP3    H160329   0.764   5.341  17.269  0.7934 -1.1771 -1.3737
12946TIP3    H260330   0.902   5.402  17.251  0.1502  0.3898 -1.0988
12947TIP3   OH260331   1.559   6.758   1.724 -0.1867  0.2627 -0.0647
12947TIP3    H160332   1.536   6.723   1.810  0.2375 -0.3204 -0.1796
12947TIP3    H260333   1.648   6.727   1.709  0.2390  1.4727 -0.1398
12948TIP3   OH260334   5.412   3.403  12.205  0.0909 -0.2269  0.2991
12948TIP3    H160335   5.450   3.480  12.247  1.2458 -0.9201  0.5714
12948TIP3    H260336   5.317   3.417  12.210  0.1963  0.0305  2.5357
12949TIP3   OH260337   6.082   6.435  16.103  0.4714 -0.1489 -0.5578
12949TIP3    H160338   5.987   6.447  16.103  0.6684  1.9247 -1.7004
12949TIP3    H260339   6.101   6.397  16.017  0.9266  3.2417 -2.1590
12950TIP3   OH260340   1.036   1.060   3.928  0.4210 -0.6083  0.2866
12950TIP3    H160341   1.109   1.095   3.877  0.0084 -0.6472 -0.3405
12950TIP3    H260342   1.071   0.979   3.966  0.9883 -0.1590  0.7482
12951TIP3   OH260343   5.358   0.080  16.316  0.0799 -0.3252 -0.6593
12951TIP3    H160344   5.419   0.139  16.361 -0.4969  0.6745 -1.1404
12951TIP3    H260345   5.275   0.093  16.362  0.0875 -1.2705 -0.3573
12952TIP3   OH260346   2.241   0.068  12.279  0.2545  0.2005  0.5790
12952TIP3    H160347   2.146   0.082  12.283  0.3857  0.9052  1.3506
12952TIP3    H260348   2.265   0.096  12.191 -0.2931 -0.2659  0.2713
12953TIP3   OH260349   6.510   0.177   4.833  0.4097  0.3431 -0.1493
12953TIP3    H160350   6.445   0.110   4.808  0.3954  0.4860 -0.5093
12953TIP3    H260351   6.591   0.146   4.794  0.5016  0.2994  0.0783
12954TIP3   OH260352   2.914   2.490  11.120  0.0528  0.3665  0.0656
12954TIP3    H160353   2.857   2.477  11.044 -3.6465  1.2330  2.4104
12954TIP3    H260354   2.965   2.569  11.098  0.8895 -0.7457 -2.3422
12955TIP3   OH260355   0.585   1.601  16.995  0.2279 -0.4572 -0.3927
12955TIP3    H160356   0.628   1.586  17.079 -0.1648  1.3653  0.1850
12955TIP3    H260357   0.492   1.593  17.013  0.1976 -2.0786 -1.1321
12956TIP3   OH260358   5.004   0.101  16.846 -0.0157  0.1242 -0.2351
12956TIP3    H160359   5.063   0.091  16.921  0.4684  0.4696 -0.5603
12956TIP3    H260360   4.921   0.131  16.884 -0.4808 -1.8423  0.3868
12957TIP3   OH260361   2.329   2.022   3.378 -0.0569  0.0939 -0.0206
12957TIP3    H160362   2.360   2.002   3.289  0.1854 -0.6840  0.2260
12957TIP3    H260363   2.323   2.117   3.381  0.2722  0.1443 -0.7640
12958TIP3   OH260364   3.997   2.839   1.587 -0.4364 -0.0255 -0.5405
12958TIP3    H160365   3.966   2.761   1.634  1.0288 -0.2371  0.1224
12958TIP3    H260366   4.000   2.908   1.654  0.4212  0.0086 -0.5994
12959TIP3   OH260367   0.973   0.186  10.800  0.5435  0.6527  0.4363
12959TIP3    H160368   1.013   0.110  10.759 -0.6681 -0.0098  0.4521
12959TIP3    H260369   0.904   0.150  10.856 -0.2949  1.7834  0.1524
12960TIP3   OH260370   6.742   5.913  16.265 -0.7486  0.4926  0.3058
12960TIP3    H160371   6.676   5.879  16.325 -1.9983  0.3657 -1.0837
12960TIP3    H260372   6.781   5.986  16.313 -2.6755  1.2905  0.7801
12961TIP3   OH260373   5.366   6.328   0.382  0.4009  0.0386 -0.8773
12961TIP3    H160374   5.428   6.398   0.406 -0.8784  0.8918  0.1112
12961TIP3    H260375   5.288   6.348   0.433 -0.4664 -1.3864 -1.6028
12962TIP3   OH260376   4.141   2.304  16.549  0.4281 -0.2846  0.2004
12962TIP3    H160377   4.069   2.308  16.486  0.7191 -1.3694 -0.2282
12962TIP3    H260378   4.099   2.291  16.634  0.0707  0.3203  0.1208
12963TIP3   OH260379   0.436   3.507  15.903  0.1243  0.0002  0.2358
12963TIP3    H160380   0.422   3.593  15.941 -0.2774 -0.2971  0.7878
12963TIP3    H260381   0.412   3.446  15.973 -0.3560 -0.5577 -0.3982
12964TIP3   OH260382   6.210   5.545   0.469  0.6703 -0.4386  0.2519
12964TIP3    H160383   6.185   5.629   0.506 -1.4663 -0.8956 -0.0225
12964TIP3    H260384   6.178   5.547   0.379 -1.6093 -2.3825  0.9305
12965TIP3   OH260385   1.086   1.592   0.333 -0.0995 -0.7685 -0.0077
12965TIP3    H160386   1.121   1.617   0.418  0.7815  2.9111 -1.2531
12965TIP3    H260387   1.162   1.590   0.275 -1.0381  0.4346 -1.3677
12966TIP3   OH260388   0.130   6.551   5.175 -0.0029 -0.5379  0.0864
12966TIP3    H160389   0.175   6.635   5.166  1.4249 -0.8702  2.7885
12966TIP3    H260390   0.197   6.492   5.210 -1.0953 -2.7090 -1.2320
12967TIP3   OH260391   3.035   6.495   4.939 -0.4351  0.1788 -0.0743
12967TIP3    H160392   3.083   6.416   4.915 -0.2431  0.3553 -0.2684
12967TIP3    H260393   2.943   6.472   4.927 -0.3849 -0.0430 -0.0425
12968TIP3   OH260394   1.690   4.826   3.869  0.2216 -0.2684 -0.0778
12968TIP3    H160395   1.628   4.892   3.839 -0.8314 -1.3074 -0.2774
12968TIP3    H260396   1.732   4.793   3.790 -0.2372 -0.7626 -0.1265
12969TIP3   OH260397   2.306   0.331  11.735 -0.3760 -0.0033 -0.5641
12969TIP3    H160398   2.262   0.391  11.675 -2.6091 -0.5552  0.4124
12969TIP3    H260399   2.238   0.307  11.799  1.3782 -0.9056  1.0654
12970TIP3   OH260400   2.811   4.373  15.793  0.2258  0.0038 -0.1428
12970TIP3    H160401   2.885   4.427  15.766  0.8092 -0.4002  0.6273
12970TIP3    H260402   2.748   4.435  15.830 -1.4694  0.8891 -4.0182
12971TIP3   OH260403   6.808   6.657   0.040 -0.0173  0.8880 -0.8701
12971TIP3    H160404   6.842   6.602  -0.031 -3.8421 -1.3434 -1.2274
12971TIP3    H260405   6.730   6.698   0.003 -1.8240  0.1065  1.8355
12972TIP3   OH260406   4.697   3.125  13.242  0.3897  0.3929  0.0193
12972TIP3    H160407   4.709   3.090  13.330  1.4629  0.3436 -0.1297
12972TIP3    H260408   4.753   3.203  13.239 -1.1747  1.5604  0.0094
12973TIP3   OH260409   5.162   1.928   1.426 -0.3639  0.4689  0.3589
12973TIP3    H160410   5.254   1.911   1.445 -0.4307  0.4041  0.6189
12973TIP3    H260411   5.131   1.983   1.498 -0.7789 -0.2959  0.7822
12974TIP3   OH260412   2.320   2.088   2.902 -1.0263  0.4583  0.4656
12974TIP3    H160413   2.349   2.041   2.824 -0.8300  1.3287 -0.0013
12974TIP3    H260414   2.314   2.179   2.874  0.2870  0.9920  1.7913
12975TIP3   OH260415   5.821   4.543  15.147 -0.0615  0.3164  0.2322
12975TIP3    H160416   5.731   4.574  15.137  0.2607  1.2931  0.1913
12975TIP3    H260417   5.834   4.536  15.242 -0.6421 -1.2849  0.2085
12976TIP3   OH260418   5.058   0.318   2.183  0.0116 -0.0821  0.1683
12976TIP3    H160419   5.053   0.315   2.088  0.2575 -0.5877  0.1679
12976TIP3    H260420   4.967   0.333   2.212 -0.4117 -1.9625 -0.0817
12977TIP3   OH260421   4.130   1.091  12.428 -0.4957 -0.2919 -0.4653
12977TIP3    H160422   4.148   1.118  12.518 -0.1675 -1.4739 -0.1588
12977TIP3    H260423   4.117   0.996  12.433  0.2835 -0.5075 -1.7650
12978TIP3   OH260424   5.805   0.796  16.903 -0.0526 -0.7801  0.5115
12978TIP3    H160425   5.763   0.719  16.942 -0.7089  0.3968  2.2784
12978TIP3    H260426   5.733   0.842  16.860  0.1604 -0.7083  0.2387
12979TIP3   OH260427   5.327   2.765  12.948  0.2562 -0.1362  0.1281
12979TIP3    H160428   5.309   2.721  13.031  0.7759 -0.3186  0.1478
12979TIP3    H260429   5.422   2.761  12.939  0.2132  0.0093 -0.4088
12980TIP3   OH260430   0.959   6.428   4.677  0.8437  0.3297  0.2657
12980TIP3    H160431   0.999   6.344   4.697 -1.3691 -1.0002 -0.6369
12980TIP3    H260432   0.910   6.451   4.756 -1.6604 -1.1759 -0.7544
12981TIP3   OH260433   5.597   0.408   4.075  0.1298  0.0321  0.6262
12981TIP3    H160434   5.638   0.494   4.090  0.2233 -0.0276  0.7134
12981TIP3    H260435   5.504   0.429   4.064 -0.2977 -0.0571  3.2374
12982TIP3   OH260436   0.685   0.444   5.114 -0.2231  0.0440 -0.4020
12982TIP3    H160437   0.656   0.414   5.200 -0.7695  0.0437 -0.5836
12982TIP3    H260438   0.774   0.475   5.128 -0.1205 -0.4431  0.0580
12983TIP3   OH260439   4.913   1.927   3.843 -0.1341  0.2885  0.9955
12983TIP3    H160440   4.893   1.888   3.758 -0.4731 -1.4222  1.8284
12983TIP3    H260441   5.001   1.895   3.864  0.3629  1.5014  0.8813
12984TIP3   OH260442   3.608   2.616   2.313 -0.0500 -0.5477 -0.1611
12984TIP3    H160443   3.553   2.647   2.241 -1.5203 -1.2397  0.6296
12984TIP3    H260444   3.618   2.693   2.371 -1.2182 -0.7260  0.3014
12985TIP3   OH260445   1.895   4.556   2.663 -0.0175 -0.2278  0.5210
12985TIP3    H160446   1.976   4.583   2.707 -1.5010  1.9667  2.1130
12985TIP3    H260447   1.868   4.633   2.613 -1.6027 -0.5912  0.7787
12986TIP3   OH260448   1.597   6.058   6.119 -0.5036  0.1922  0.1263
12986TIP3    H160449   1.546   6.101   6.049 -1.0612  1.0125  1.0062
12986TIP3    H260450   1.531   6.019   6.176 -0.1065  0.5419  0.8325
12987TIP3   OH260451   3.108   5.955   3.406  0.1495  0.2285  0.6315
12987TIP3    H160452   3.202   5.944   3.396  0.0613  0.2533 -0.4091
12987TIP3    H260453   3.094   6.049   3.399 -0.1855  0.0710 -2.0835
12988TIP3   OH260454   2.990   5.369  12.668 -0.5426 -0.1167  0.3880
12988TIP3    H160455   3.031   5.319  12.597  0.2730  0.0032  0.7526
12988TIP3    H260456   2.904   5.393  12.635  0.8143  2.3692 -1.7292
12989TIP3   OH260457   1.413   0.728   5.529  0.4844 -1.4954 -0.1068
12989TIP3    H160458   1.468   0.772   5.593 -0.9065 -1.5207  1.1606
12989TIP3    H260459   1.363   0.664   5.580  0.8125 -2.9710 -1.5553
12990TIP3   OH260460   2.674   4.691  11.375  0.0282  0.3638 -0.2557
12990TIP3    H160461   2.741   4.657  11.316 -0.2778 -2.6961  1.0094
12990TIP3    H260462   2.591   4.677  11.329 -0.0269  0.3507 -0.1538
12991TIP3   OH260463   1.039   5.568  11.728  0.1989  0.4654 -0.1960
12991TIP3    H160464   0.960   5.555  11.781 -0.0462  0.0926 -0.6543
12991TIP3    H260465   1.093   5.492  11.747 -0.5687 -0.4947 -1.6776
12992TIP3   OH260466   1.025   4.715   4.543  0.5072  0.1412 -0.0113
12992TIP3    H160467   0.972   4.651   4.591  0.7940  0.7762  1.1938
12992TIP3    H260468   1.030   4.790   4.602  1.5191  0.6576 -0.7305
12993TIP3   OH260469   0.670   4.113  10.937 -0.3685  0.4448  0.1417
12993TIP3    H160470   0.604   4.169  10.894 -0.1115 -1.2035 -2.6217
12993TIP3    H260471   0.619   4.058  10.996 -1.2333  0.6184 -0.4173
12994TIP3   OH260472   4.851   3.499   6.178  0.2687  0.4807 -0.1673
12994TIP3    H160473   4.794   3.422   6.182  0.0844  0.5535 -1.2111
12994TIP3    H260474   4.840   3.541   6.264 -0.4808 -0.0515  0.0118
12995TIP3   OH260475   4.066   5.994   2.866 -0.0180 -0.3477 -0.1616
12995TIP3    H160476   4.117   6.065   2.827  0.0782  0.4846  1.4114
12995TIP3    H260477   3.978   6.007   2.832  0.3641 -0.6173 -1.3340
12996TIP3   OH260478   3.132   6.436   2.018  0.0138  0.1325  0.3310
12996TIP3    H160479   3.173   6.381   1.951  0.3307  0.6471  0.0950
12996TIP3    H260480   3.083   6.501   1.968 -0.7715 -0.2291  0.6093
12997TIP3   OH260481   0.737   5.120  16.948  0.4057  0.1366 -0.2639
12997TIP3    H160482   0.763   5.055  17.013 -0.8765 -1.1545 -0.9653
12997TIP3    H260483   0.650   5.148  16.977 -0.0405 -0.2171 -1.2070
12998TIP3   OH260484   5.563   0.171   3.724  0.0638 -1.0117 -0.1649
12998TIP3    H160485   5.502   0.169   3.798  0.1393 -0.0762 -0.0549
12998TIP3    H260486   5.630   0.107   3.747  0.4785 -0.2203  0.9508
12999TIP3   OH260487   0.439   0.894   6.201  0.5593  0.7532 -0.2177
12999TIP3    H160488   0.420   0.802   6.221 -1.1071  1.2422  0.6652
12999TIP3    H260489   0.497   0.891   6.126  0.2600 -1.0255 -0.4206
13000TIP3   OH260490   0.329   5.631  13.439  0.3897  0.1027 -0.4504
13000TIP3    H160491   0.337   5.545  13.399 -0.8936 -0.3701  0.2321
13000TIP3    H260492   0.250   5.624  13.493  0.5339  1.5629 -0.0221
13001TIP3   OH260493   2.316   2.498   0.757 -0.1428  0.4663  0.3765
13001TIP3    H160494   2.280   2.584   0.737  2.6760  1.9212  1.1099
13001TIP3    H260495   2.365   2.473   0.678 -2.7534 -1.6636 -0.7607
13002TIP3   OH260496   2.643   3.556  16.480 -0.1035  0.0361  0.2636
13002TIP3    H160497   2.567   3.500  16.466 -0.3418  0.7308 -1.5175
13002TIP3    H260498   2.615   3.619  16.546 -0.4328 -0.8315  0.9682
13003TIP3   OH260499   3.558   4.056  11.337  0.3201  0.0544  0.1435
13003TIP3    H160500   3.471   4.034  11.304 -0.8557 -0.3379  3.1255
13003TIP3    H260501   3.593   3.972  11.368  1.8829  0.1834 -1.1659
13004TIP3   OH260502   4.704   1.011   0.979 -0.0653  0.0144  0.2118
13004TIP3    H160503   4.645   1.060   1.036  1.6308  1.4505  0.8487
13004TIP3    H260504   4.755   0.955   1.039 -1.3441 -1.9229 -0.4177
13005TIP3   OH260505   5.078   4.738   1.308 -0.0352 -0.1138 -0.5664
13005TIP3    H160506   5.118   4.800   1.369  1.3779 -2.0789  0.5846
13005TIP3    H260507   5.013   4.790   1.261  2.2039  2.6868 -0.8526
13006TIP3   OH260508   1.510   5.322  10.363  0.2682 -0.0079  0.4575
13006TIP3    H160509   1.431   5.269  10.358  0.8914 -0.8331 -1.7769
13006TIP3    H260510   1.478   5.412  10.370 -0.8853 -0.3467 -0.1604
13007TIP3   OH260511   2.003   0.225  12.756  0.3677 -0.1765 -0.4597
13007TIP3    H160512   2.041   0.157  12.701 -0.1222  0.2258 -1.3059
13007TIP3    H260513   2.031   0.307  12.716 -0.4409  0.1218 -0.4322
13008TIP3   OH260514   6.589   1.840   3.701  0.2075  0.2331  0.0631
13008TIP3    H160515   6.682   1.825   3.718  0.7609  0.9841 -2.0197
13008TIP3    H260516   6.563   1.908   3.764  1.4523  1.0903 -0.3164
13009TIP3   OH260517   2.476   3.202   6.530 -0.0184  0.4229 -0.1002
13009TIP3    H160518   2.400   3.144   6.536  1.1239 -1.1130  0.1222
13009TIP3    H260519   2.517   3.179   6.446  1.2437 -0.1468  0.6363
13010TIP3   OH260520   4.285   2.306  13.434  0.4010  0.0081 -0.2989
13010TIP3    H160521   4.271   2.396  13.404  0.8615  0.1060 -0.2248
13010TIP3    H260522   4.249   2.304  13.522 -0.3264 -0.0938 -0.5913
13011TIP3   OH260523   4.517   4.445  13.403 -0.4159 -0.2883  0.5144
13011TIP3    H160524   4.585   4.383  13.428 -0.1509 -0.4221 -0.5211
13011TIP3    H260525   4.562   4.530  13.401 -0.9243  0.1002  2.6070
13012TIP3   OH260526   3.483   4.431  12.576  0.7576 -0.1698  0.9721
13012TIP3    H160527   3.532   4.361  12.534  1.9080  0.7206  0.7732
13012TIP3    H260528   3.413   4.452  12.514  1.2840 -0.1742  0.3662
13013TIP3   OH260529   4.743   0.369   5.507 -0.4576  0.1458 -0.5080
13013TIP3    H160530   4.718   0.458   5.534 -1.0538  0.1179 -0.9362
13013TIP3    H260531   4.674   0.343   5.447 -0.9223 -1.0805  0.5253
13014TIP3   OH260532   5.881   5.195  11.213 -0.4073  0.0472  0.0222
13014TIP3    H160533   5.863   5.286  11.235 -1.5716 -0.0884 -0.2771
13014TIP3    H260534   5.801   5.165  11.168 -0.3038 -1.2963  0.6793
13015TIP3   OH260535   0.624   2.680  14.565  0.7868 -0.3311 -0.4199
13015TIP3    H160536   0.540   2.669  14.521  2.8247 -1.6516 -4.5612
13015TIP3    H260537   0.667   2.751  14.517  1.9075  0.6961  1.9275
13016TIP3   OH260538   1.951   2.110   6.006 -0.0079  0.3606  0.0521
13016TIP3    H160539   1.995   2.176   5.953  0.3757  1.2699  1.4373
13016TIP3    H260540   2.006   2.032   5.997 -0.6333  0.0934 -1.8408
13017TIP3   OH260541   4.307   6.756   4.237  0.2434 -0.2003  0.2304
13017TIP3    H160542   4.394   6.764   4.198  0.4101 -0.4972  0.5450
13017TIP3    H260543   4.248   6.795   4.172  0.7856  1.4769  0.6974
13018TIP3   OH260544   1.879   5.303   2.654 -0.1596  0.0294  0.8204
13018TIP3    H160545   1.793   5.344   2.658  0.5530  1.9391 -1.4662
13018TIP3    H260546   1.937   5.363   2.700  0.5175  0.5612 -0.6681
13019TIP3   OH260547   5.523   3.632  12.330  0.3041 -0.0675 -0.5957
13019TIP3    H160548   5.600   3.576  12.335  1.8297  1.9984 -0.0866
13019TIP3    H260549   5.506   3.659  12.420  0.7665  1.7650 -1.0165
13020TIP3   OH260550   4.876   5.364  14.034 -0.0696 -0.7537  0.4865
13020TIP3    H160551   4.895   5.454  14.005  0.8905 -0.9651  0.4247
13020TIP3    H260552   4.820   5.375  14.110 -2.1445 -0.1616 -1.0145
13021TIP3   OH260553   3.833   2.622   1.121 -0.3672 -0.3096  0.8461
13021TIP3    H160554   3.865   2.652   1.035  0.3768 -0.2344  1.1382
13021TIP3    H260555   3.798   2.534   1.104  0.5896 -0.6640  0.6180
13022TIP3   OH260556   0.421   4.436  15.652  0.6367 -0.2754  0.5320
13022TIP3    H160557   0.434   4.419  15.559 -0.5824  2.6495 -0.2831
13022TIP3    H260558   0.508   4.458  15.685  1.1551 -1.7715  0.2638
13023TIP3   OH260559   1.992   6.320  14.840 -0.4616 -0.4462 -0.2474
13023TIP3    H160560   1.931   6.277  14.780 -0.3949  2.1888 -2.4297
13023TIP3    H260561   1.951   6.404  14.860  1.5433  0.6175 -0.2718
13024TIP3   OH260562   3.494   0.199  16.704  0.6150  0.5152  0.1904
13024TIP3    H160563   3.454   0.281  16.676 -0.7153  0.4328  1.6605
13024TIP3    H260564   3.513   0.152  16.623 -0.8302  1.2628 -0.6243
13025TIP3   OH260565   4.840   2.950   2.062  0.1546  0.1584  0.6409
13025TIP3    H160566   4.909   2.940   1.996 -0.5030  1.6753 -0.3157
13025TIP3    H260567   4.762   2.912   2.022  0.6629 -3.0470  2.3355
13026TIP3   OH260568   1.036   6.553  16.713 -0.3120 -0.0700 -0.4227
13026TIP3    H160569   1.067   6.560  16.803  0.1987  0.1713 -0.6145
13026TIP3    H260570   0.945   6.583  16.716 -0.1115  0.5160 -0.0942
13027TIP3   OH260571   6.379   4.551  13.669  0.0690  0.0886 -0.3050
13027TIP3    H160572   6.334   4.519  13.748  0.4963 -0.7676 -0.4021
13027TIP3    H260573   6.472   4.541  13.689  0.1810  0.0133 -0.8614
13028TIP3   OH260574   2.777   4.813  14.489 -0.2171 -0.1606 -0.0836
13028TIP3    H160575   2.755   4.892  14.537  0.2952 -0.6221  0.9436
13028TIP3    H260576   2.871   4.821  14.471 -0.3124 -0.2018 -0.6062
13029TIP3   OH260577   6.308   0.452  16.998 -0.7599 -0.5266  0.0861
13029TIP3    H160578   6.218   0.455  17.031 -1.0442 -0.4739 -0.6797
13029TIP3    H260579   6.333   0.543  16.986 -0.4523 -0.5250  0.6772
13030TIP3   OH260580   6.725   3.672   1.668 -0.6615 -0.6231 -0.5722
13030TIP3    H160581   6.712   3.759   1.705 -0.5200 -1.1791  0.8640
13030TIP3    H260582   6.649   3.621   1.697 -0.3252 -1.1964 -0.6729
13031TIP3   OH260583   0.799   6.686  16.686  0.1041  0.0685 -0.1969
13031TIP3    H160584   0.732   6.743  16.648  0.0832 -0.6786 -1.3227
13031TIP3    H260585   0.750   6.623  16.738  0.0093  0.1040 -0.2424
13032TIP3   OH260586   0.295   2.867   3.203  0.0147  0.0435 -0.1884
13032TIP3    H160587   0.213   2.841   3.246  1.3714 -1.5582  1.6238
13032TIP3    H260588   0.336   2.784   3.178  0.9547  0.8282 -1.3629
13033TIP3   OH260589   5.243   5.883   3.819 -0.0599  0.3250 -0.1545
13033TIP3    H160590   5.284   5.930   3.892  1.2616  1.3631 -1.5121
13033TIP3    H260591   5.176   5.829   3.861  2.5364 -1.3502  2.2246
13034TIP3   OH260592   3.947   3.239  12.887  0.2303  0.1242 -0.2473
13034TIP3    H160593   4.026   3.261  12.838 -0.4222  1.5087 -0.7179
13034TIP3    H260594   3.929   3.317  12.939 -2.0996  0.7593 -1.8693
13035TIP3   OH260595   4.955   3.635   5.798  0.7630 -0.0412 -0.1464
13035TIP3    H160596   4.973   3.728   5.813  0.2848 -0.3480  3.1807
13035TIP3    H260597   4.865   3.622   5.829  1.1027 -1.7503  0.2350
13036TIP3   OH260598   6.773   0.412   2.850 -0.0523  0.0273 -0.1439
13036TIP3    H160599   6.737   0.420   2.762  1.6733 -0.1558 -0.9131
13036TIP3    H260600   6.700   0.380   2.903 -1.5498  1.5487 -1.1670
13037TIP3   OH260601   3.407   4.081  14.888 -0.7047  0.2262 -0.1077
13037TIP3    H160602   3.385   3.990  14.909  0.8679 -0.0918  0.3514
13037TIP3    H260603   3.455   4.112  14.965 -0.3209  1.1112 -0.6862
13038TIP3   OH260604   2.114   0.757  11.844  0.0059  0.6446 -0.6797
13038TIP3    H160605   2.088   0.724  11.758 -1.6190  2.0558 -0.7825
13038TIP3    H260606   2.062   0.836  11.857 -0.5229 -0.0302  2.0234
13039TIP3   OH260607   4.270   1.680  14.356 -0.2974  0.1978  0.6270
13039TIP3    H160608   4.224   1.611  14.404 -1.4574  0.6742  0.2434
13039TIP3    H260609   4.273   1.754  14.417 -1.3138  0.6311  0.1755
13040TIP3   OH260610   1.502   6.116  11.724 -0.6476 -0.4821 -0.3565
13040TIP3    H160611   1.441   6.150  11.789 -1.2927 -0.1993 -1.0891
13040TIP3    H260612   1.498   6.179  11.652 -0.8323 -1.3891 -1.1589
13041TIP3   OH260613   2.402   0.348   2.356  0.2706 -0.0855  0.0726
13041TIP3    H160614   2.470   0.383   2.414  0.6224 -0.1643 -0.2894
13041TIP3    H260615   2.370   0.425   2.308 -1.1413  0.2666  1.4844
13042TIP3   OH260616   5.176   5.044  14.760  0.1672 -0.5673 -0.1117
13042TIP3    H160617   5.087   5.021  14.734  0.4824 -1.1819 -0.6356
13042TIP3    H260618   5.230   4.969  14.735  0.6991 -0.5861  1.0175
13043TIP3   OH260619   2.004   4.289  14.141  0.2276  0.5086  0.1911
13043TIP3    H160620   1.958   4.215  14.102  0.3667  0.6223 -0.1869
13043TIP3    H260621   1.937   4.356  14.154  0.2642  0.6306 -0.2501
13044TIP3   OH260622   0.298   2.474   5.469 -0.0194  0.2751 -0.2013
13044TIP3    H160623   0.305   2.379   5.468  0.3008  0.2586  1.2956
13044TIP3    H260624   0.281   2.498   5.378 -2.1526 -1.3559 -0.2938
13045TIP3   OH260625   0.620   2.258  16.874 -0.2829  0.0190 -0.1866
13045TIP3    H160626   0.621   2.328  16.939 -0.2671  0.4059 -0.5965
13045TIP3    H260627   0.695   2.203  16.897 -1.6072 -1.1468  1.4965
13046TIP3   OH260628   6.546   1.818  16.676 -0.2960  0.3804 -0.0915
13046TIP3    H160629   6.456   1.784  16.671 -1.0999  1.7348  2.9816
13046TIP3    H260630   6.548   1.868  16.757  2.5389  2.6092 -1.3772
13047TIP3   OH260631   5.194   6.514  13.378  0.4761 -0.2658 -0.4147
13047TIP3    H160632   5.279   6.497  13.337  0.0495  0.2374 -1.5659
13047TIP3    H260633   5.149   6.572  13.316 -1.3608 -1.8606 -0.6549
13048TIP3   OH260634   1.547   2.332   4.022  0.4721 -0.0302  0.0108
13048TIP3    H160635   1.481   2.320   3.954  1.4234  1.4054 -1.2156
13048TIP3    H260636   1.630   2.333   3.974  1.4211 -1.6455  1.4971
13049TIP3   OH260637   1.807   6.501   4.096 -0.2808  0.0556 -0.1560
13049TIP3    H160638   1.718   6.536   4.103  0.4143  1.6426  1.5174
13049TIP3    H260639   1.843   6.542   4.018  0.5546  3.4949  1.8075
13050TIP3   OH260640   3.007   5.674  16.646  0.7303 -0.5618  0.1675
13050TIP3    H160641   3.058   5.649  16.569  0.9697  0.8095 -0.1402
13050TIP3    H260642   3.003   5.769  16.643 -3.0432 -0.5513 -0.6329
13051TIP3   OH260643   0.877   0.394  14.834 -0.0143  0.2128 -0.8237
13051TIP3    H160644   0.788   0.379  14.865  0.4187 -2.2783 -0.5846
13051TIP3    H260645   0.875   0.482  14.798 -2.5739  0.2322 -0.8229
13052TIP3   OH260646   3.215   6.047  12.273  0.2949 -0.5550 -0.1103
13052TIP3    H160647   3.179   6.106  12.207  0.4691 -1.8058 -1.3613
13052TIP3    H260648   3.145   6.039  12.339 -1.0426 -1.4845 -1.5688
13053TIP3   OH260649   1.634   0.920   1.279 -0.0002  0.2341 -0.0332
13053TIP3    H160650   1.697   0.889   1.344 -0.9367  1.6391  1.6187
13053TIP3    H260651   1.640   0.856   1.208  1.8081 -0.7831  0.9544
13054TIP3   OH260652   5.855   4.543  12.968  0.9280 -0.5318  0.3454
13054TIP3    H160653   5.834   4.533  12.875 -2.3352 -0.2288  0.9507
13054TIP3    H260654   5.929   4.604  12.969  0.0669  0.6847 -2.0302
13055TIP3   OH260655   2.829   2.677  13.435  0.0406  0.2965  0.1257
13055TIP3    H160656   2.835   2.768  13.466  1.3526  0.0807  0.5369
13055TIP3    H260657   2.747   2.645  13.472 -0.5659  1.3748 -0.2196
13056TIP3   OH260658   5.122   6.702  13.668  0.4367 -0.0408  0.5666
13056TIP3    H160659   5.027   6.688  13.674  0.4209 -0.2259 -0.0495
13056TIP3    H260660   5.143   6.682  13.577  1.3790 -1.8322  1.1411
13057TIP3   OH260661   3.596   1.109  14.188  0.6921  0.1145 -0.2272
13057TIP3    H160662   3.643   1.193  14.179  0.8566 -0.0338 -0.8294
13057TIP3    H260663   3.641   1.064  14.259  0.8684  0.3702 -0.1741
13058TIP3   OH260664   2.330   4.264   1.140 -0.3747 -0.5649  0.6215
13058TIP3    H160665   2.303   4.324   1.210  1.0066 -0.1869  0.8606
13058TIP3    H260666   2.388   4.202   1.183  1.3043  0.2778 -0.3393
13059TIP3   OH260667   0.741   1.078  12.972 -0.0990 -0.2894 -0.3616
13059TIP3    H160668   0.792   1.038  13.043  1.3353  0.0683 -1.1432
13059TIP3    H260669   0.650   1.069  13.000  0.3954 -0.5056  1.3397
13060TIP3   OH260670   3.478   4.422   5.846 -0.1230  0.0912 -0.5554
13060TIP3    H160671   3.469   4.408   5.940  1.9101  2.6041  0.1369
13060TIP3    H260672   3.394   4.397   5.809 -1.8741  1.4036  2.2600
13061TIP3   OH260673   0.267   5.516  11.869  0.3343 -0.1464  0.1049
13061TIP3    H160674   0.275   5.586  11.934  1.2687  0.1955 -0.3473
13061TIP3    H260675   0.220   5.446  11.913 -2.5472  1.5395 -0.0785
13062TIP3   OH260676   1.894   5.688  14.179 -0.2348 -0.2466  0.0899
13062TIP3    H160677   1.977   5.663  14.219 -0.8456  0.4219  1.8526
13062TIP3    H260678   1.903   5.782  14.163 -0.6068 -0.2047  0.1398
13063TIP3   OH260679   1.821   6.817   1.581  1.0786 -0.4382 -0.1395
13063TIP3    H160680   1.893   6.845   1.525  0.9260 -1.4820 -0.8881
13063TIP3    H260681   1.773   6.898   1.600  2.1278  0.1885 -0.0619
13064TIP3   OH260682   3.696   5.883   0.333 -0.1946 -0.5252 -0.4635
13064TIP3    H160683   3.708   5.860   0.425  0.2877 -0.3965 -0.4906
13064TIP3    H260684   3.612   5.929   0.330  0.3620  0.5557  0.1129
13065TIP3   OH260685   0.279   2.836  11.585  0.0420 -0.1828 -0.3928
13065TIP3    H160686   0.282   2.798  11.497 -0.0619  0.7612 -0.8189
13065TIP3    H260687   0.230   2.917  11.574 -0.7439 -0.4890  0.7200
13066TIP3   OH260688   4.429   6.753  14.195 -0.6438  0.4414  0.9793
13066TIP3    H160689   4.441   6.847  14.177 -0.0697  0.3289  0.7599
13066TIP3    H260690   4.515   6.723  14.223 -0.9041  0.0407  1.3524
13067TIP3   OH260691   0.404   0.853  11.381  0.0515  0.4163 -0.0055
13067TIP3    H160692   0.376   0.771  11.340 -1.1663  0.6796  0.2697
13067TIP3    H260693   0.460   0.894  11.315  0.1932 -0.3588 -0.3779
13068TIP3   OH260694   6.447   6.210   2.679 -0.1021 -0.4479 -0.9164
13068TIP3    H160695   6.395   6.149   2.627  0.6436 -2.0733  0.1425
13068TIP3    H260696   6.535   6.172   2.678  1.3949  2.6323 -3.3610
13069TIP3   OH260697   6.337   4.351   2.463  0.6169 -0.1393 -0.1033
13069TIP3    H160698   6.406   4.324   2.525 -0.2658 -3.4886 -0.4012
13069TIP3    H260699   6.268   4.388   2.519  0.9165 -0.6863  0.6539
13070TIP3   OH260700   6.039   3.134   6.351 -0.1344  0.7029 -0.6755
13070TIP3    H160701   5.961   3.124   6.296 -0.9074  0.6888  0.3862
13070TIP3    H260702   6.004   3.140   6.440  1.0964  0.5856 -0.1741
13071TIP3   OH260703   6.770   5.582  12.500  0.4944 -0.3021 -0.1319
13071TIP3    H160704   6.830   5.604  12.571 -1.4395 -0.6799  1.7379
13071TIP3    H260705   6.824   5.535  12.436  2.5929  1.2298  0.3970
13072TIP3   OH260706   5.442   6.278   1.123  0.6396 -0.1723 -0.2633
13072TIP3    H160707   5.392   6.219   1.066 -0.5294  0.2990  0.2604
13072TIP3    H260708   5.462   6.354   1.068  0.9078 -0.4183 -0.5113
13073TIP3   OH260709   6.732   4.235  14.063  0.0291 -0.1519  0.1616
13073TIP3    H160710   6.775   4.151  14.077 -1.1653 -0.8597 -0.2823
13073TIP3    H260711   6.640   4.219  14.083 -0.5956  0.5054 -1.8886
13074TIP3   OH260712   5.849   0.858   1.114 -0.2582  0.2550 -0.0206
13074TIP3    H160713   5.806   0.845   1.198 -0.5604  1.2429 -0.0079
13074TIP3    H260714   5.896   0.776   1.098 -0.2021  0.0494  1.1055
13075TIP3   OH260715   2.217   4.210  15.750 -0.6994 -0.4034 -0.1411
13075TIP3    H160716   2.305   4.189  15.721 -1.2274 -1.7873 -0.8190
13075TIP3    H260717   2.217   4.190  15.843  0.5343  2.5144  0.6056
13076TIP3   OH260718   6.132   6.629   0.890  0.4612  0.2816 -0.1267
13076TIP3    H160719   6.222   6.660   0.876  0.6400 -0.1155  0.1248
13076TIP3    H260720   6.126   6.617   0.985  0.5135 -0.7964 -0.2494
13077TIP3   OH260721   3.243   0.138   6.419  0.7148 -0.8666 -0.0700
13077TIP3    H160722   3.326   0.144   6.373  1.2123  0.1253  0.9000
13077TIP3    H260723   3.230   0.045   6.433  0.6910 -1.1795 -1.9042
13078TIP3   OH260724   5.169   6.379  15.406  0.1850  0.0417 -0.4937
13078TIP3    H160725   5.133   6.395  15.319 -2.1225  0.7859  0.5145
13078TIP3    H260726   5.214   6.461  15.429 -0.5234  0.4114 -0.4006
13079TIP3   OH260727   2.792   6.434  15.940  0.1353 -0.1723  0.0520
13079TIP3    H160728   2.748   6.356  15.907 -0.5567  1.0498 -2.1680
13079TIP3    H260729   2.732   6.470  16.005 -1.3516  0.4151 -1.5457
13080TIP3   OH260730   3.442   6.740  15.517  0.1766  0.5229 -0.5509
13080TIP3    H160731   3.483   6.721  15.432  0.0663  0.3744 -0.5718
13080TIP3    H260732   3.514   6.737  15.580 -0.1508 -2.7230 -0.1130
13081TIP3   OH260733   5.490   5.068   0.023 -0.1316 -0.3414 -0.3770
13081TIP3    H160734   5.408   5.063   0.073  0.4176 -4.2038  0.4456
13081TIP3    H260735   5.537   5.142   0.061 -2.2493  0.5383  0.6995
13082TIP3   OH260736   1.962   6.113   1.192  0.2686 -0.1289 -0.2088
13082TIP3    H160737   2.042   6.163   1.175 -0.1690  0.4384 -0.6720
13082TIP3    H260738   1.970   6.034   1.139 -0.1714  0.6736 -1.5217
13083TIP3   OH260739   4.553   1.597  12.237 -0.1635 -0.4809  0.3512
13083TIP3    H160740   4.641   1.606  12.272 -0.8883  1.0170  2.0240
13083TIP3    H260741   4.525   1.688  12.220 -2.5794 -0.4678  3.3325
13084TIP3   OH260742   2.216   2.174  12.907  0.1391 -0.3107  0.7803
13084TIP3    H160743   2.220   2.161  12.813  0.1272 -0.4031  0.7925
13084TIP3    H260744   2.307   2.166  12.937  0.4383  1.6411  0.5223
13085TIP3   OH260745   2.750   2.910  12.688 -0.0712 -0.0066 -0.5058
13085TIP3    H160746   2.662   2.882  12.713  0.1055 -0.6614 -0.5882
13085TIP3    H260747   2.808   2.870  12.753  0.0965  1.1974  0.1113
13086TIP3   OH260748   5.607   0.626  10.681 -0.1481 -0.3486 -0.7399
13086TIP3    H160749   5.549   0.698  10.702  0.2429 -0.3060  0.2533
13086TIP3    H260750   5.691   0.651  10.719  0.0377 -1.2429 -0.5378
13087TIP3   OH260751   2.820   5.440  11.931  0.5964 -0.2212  0.0636
13087TIP3    H160752   2.776   5.498  11.869  0.6699  0.5040  0.6695
13087TIP3    H260753   2.862   5.373  11.876  0.4347  0.2458 -0.6454
13088TIP3   OH260754   0.627   3.080  11.866  0.3315 -0.0684  0.4204
13088TIP3    H160755   0.603   3.097  11.957 -1.0496 -0.3778  0.1359
13088TIP3    H260756   0.699   3.017  11.871  1.6214  1.4003  1.3274
13089TIP3   OH260757   1.996   4.077   2.235 -0.1971 -0.1185 -0.2270
13089TIP3    H160758   1.987   4.122   2.318 -2.9762 -0.4767 -0.2310
13089TIP3    H260759   2.051   4.134   2.182  0.3103  0.8846  1.3226
13090TIP3   OH260760   4.804   5.858   4.647 -0.1993 -0.5334 -0.1932
13090TIP3    H160761   4.811   5.793   4.716 -0.4133  0.2189  0.5584
13090TIP3    H260762   4.718   5.842   4.607 -0.9990  0.3373  1.1056
13091TIP3   OH260763   1.803   4.317  12.023 -0.0623  0.0244 -0.4371
13091TIP3    H160764   1.772   4.383  12.085  0.6595  0.0829 -0.1267
13091TIP3    H260765   1.859   4.259  12.075 -0.5229 -0.7143 -0.7517
13092TIP3   OH260766   5.429   0.351  13.503 -0.3213 -0.0344  0.1973
13092TIP3    H160767   5.385   0.436  13.507  2.2841  1.3642  2.4622
13092TIP3    H260768   5.451   0.331  13.594  2.8424 -1.0481 -0.6615
13093TIP3   OH260769   4.405   0.156  12.954 -0.0585  0.3207  0.3344
13093TIP3    H160770   4.344   0.095  12.995 -3.0177  1.9763 -1.2565
13093TIP3    H260771   4.465   0.101  12.904 -0.6530 -1.3594  1.3919
13094TIP3   OH260772   6.038   2.147  16.401  0.6054 -0.0058  0.1534
13094TIP3    H160773   6.108   2.089  16.372  1.1540  0.9786 -0.5014
13094TIP3    H260774   5.968   2.134  16.337  0.7992  0.2030 -0.0980
13095TIP3   OH260775   4.357   3.028  13.771  0.0071  0.1381  0.3265
13095TIP3    H160776   4.370   3.002  13.862  1.6395  2.0323  0.7049
13095TIP3    H260777   4.442   3.062  13.744 -0.7688  0.7045 -1.5485
13096TIP3   OH260778   4.495   2.404  12.431  0.1863 -0.3806  0.2670
13096TIP3    H160779   4.484   2.474  12.367 -0.9612 -0.1688  0.6733
13096TIP3    H260780   4.533   2.331  12.382  0.3227  0.1397 -0.4045
13097TIP3   OH260781   1.717   0.484   4.578  0.7053  0.2381 -0.3249
13097TIP3    H160782   1.695   0.434   4.500  2.8998  0.3083 -1.0560
13097TIP3    H260783   1.696   0.426   4.651 -0.6928 -0.0985 -0.9566
13098TIP3   OH260784   1.449   6.670  12.941 -0.3057 -0.3157 -0.6890
13098TIP3    H160785   1.438   6.752  12.893 -0.7515  0.7763  1.2199
13098TIP3    H260786   1.544   6.662  12.952 -0.2753  0.0205 -0.7092
13099TIP3   OH260787   6.491   1.857  12.748 -0.2343 -0.6938 -0.3202
13099TIP3    H160788   6.480   1.944  12.710 -1.0212 -1.3443 -1.6623
13099TIP3    H260789   6.411   1.810  12.723  1.1376 -2.4940 -1.6145
13100TIP3   OH260790   4.897   5.656   0.501 -0.0729  0.0124  0.0005
13100TIP3    H160791   4.886   5.570   0.542 -0.1821 -0.7853 -1.6305
13100TIP3    H260792   4.811   5.698   0.509  0.3896  0.6617  2.2003
13101TIP3   OH260793   1.729   4.293  10.616  0.0014  0.2097 -0.2474
13101TIP3    H160794   1.672   4.277  10.691 -0.4607 -0.5360 -0.7328
13101TIP3    H260795   1.803   4.341  10.651 -0.5777  0.5561  0.5407
13102TIP3   OH260796   4.709   4.499  12.701 -0.5248 -0.4550 -0.2849
13102TIP3    H160797   4.633   4.551  12.676  0.5229  1.5488  0.5318
13102TIP3    H260798   4.781   4.534  12.649  0.2044 -1.1281  0.2343
13103TIP3   OH260799   1.556   0.227   5.211  0.2029 -0.1550  0.4172
13103TIP3    H160800   1.541   0.320   5.194 -0.1196 -0.5262 -1.5576
13103TIP3    H260801   1.481   0.199   5.263 -0.0569  0.5469  0.4289
13104TIP3   OH260802   6.461   3.395  11.744  0.3109 -0.3464 -0.4664
13104TIP3    H160803   6.548   3.357  11.749  0.8484  0.9577  0.7007
13104TIP3    H260804   6.475   3.489  11.735 -0.9609 -0.1185 -0.3853
13105TIP3   OH260805   2.753   4.144   1.835  0.5836  0.4085 -0.1436
13105TIP3    H160806   2.677   4.199   1.822  0.0652 -0.1252  0.5362
13105TIP3    H260807   2.812   4.196   1.889  0.2703  0.4459  0.1613
13106TIP3   OH260808   6.456   1.107  11.312  0.1014  0.4826 -0.6474
13106TIP3    H160809   6.438   1.114  11.219  0.3244  0.3297 -0.7011
13106TIP3    H260810   6.452   1.013  11.330  0.5670  0.4695 -0.6028
13107TIP3   OH260811   3.008   5.178  11.491 -0.3800 -0.1005 -0.3374
13107TIP3    H160812   3.012   5.085  11.512  1.0751 -0.4026 -1.7820
13107TIP3    H260813   2.946   5.183  11.417  0.4989 -0.1109 -1.0874
13108TIP3   OH260814   5.391   5.464   1.855 -0.0344  0.0573 -0.6837
13108TIP3    H160815   5.472   5.422   1.885 -0.2639  0.8623  1.1897
13108TIP3    H260816   5.417   5.514   1.778  1.0043 -0.6067 -0.7841
13109TIP3   OH260817   4.610   0.966  16.935 -0.3522 -1.7311  0.1973
13109TIP3    H160818   4.624   0.948  17.028 -0.6436  0.7708  0.8138
13109TIP3    H260819   4.698   0.987  16.902 -0.2568 -2.5717 -0.0954
13110TIP3   OH260820   6.517   4.185  13.328 -0.0328  0.5165 -0.0598
13110TIP3    H160821   6.439   4.217  13.283 -0.8942 -0.2381  0.8472
13110TIP3    H260822   6.590   4.217  13.275 -0.9615  0.8878 -1.1620
13111TIP3   OH260823   5.767   1.601   2.371 -0.3107  0.2004 -0.0615
13111TIP3    H160824   5.749   1.508   2.387 -0.5010  0.2963  0.2792
13111TIP3    H260825   5.835   1.600   2.303 -0.9351 -0.1730 -0.6999
13112TIP3   OH260826   4.067   6.640   1.816 -0.0114 -0.1306  0.0701
13112TIP3    H160827   3.995   6.579   1.799  1.3539 -1.8278  0.0872
13112TIP3    H260828   4.104   6.611   1.900  1.6566 -0.3171 -0.6811
13113TIP3   OH260829   4.377   5.113  14.649  0.2082 -0.7208  0.4846
13113TIP3    H160830   4.440   5.154  14.708 -0.7320 -1.1636  1.8693
13113TIP3    H260831   4.391   5.156  14.565  0.8525  0.7393  1.2911
13114TIP3   OH260832   3.681   4.073   2.677  0.0782 -0.1791 -0.1352
13114TIP3    H160833   3.701   4.081   2.583  3.7585 -2.6721  0.2065
13114TIP3    H260834   3.601   4.021   2.681 -1.1939  1.5171 -1.8039
13115TIP3   OH260835   4.280   4.986  11.472  0.0156  0.5258 -0.8544
13115TIP3    H160836   4.375   4.998  11.466 -0.0991  1.4143 -1.1419
13115TIP3    H260837   4.267   4.892  11.469  0.8797  0.4035 -1.0042
13116TIP3   OH260838   0.247   6.557   4.471 -0.4802 -0.0744 -0.2128
13116TIP3    H160839   0.171   6.542   4.416 -0.3556 -2.0422  0.0734
13116TIP3    H260840   0.321   6.555   4.411 -0.6375  3.1575 -0.6992
13117TIP3   OH260841   2.575   4.111   0.672  0.1474 -0.8175  0.2302
13117TIP3    H160842   2.509   4.173   0.705 -1.0838 -1.6473 -0.5946
13117TIP3    H260843   2.555   4.029   0.717  2.3663 -0.4688  2.0521
13118TIP3   OH260844   6.063   1.069   3.686 -0.0408 -0.4052  0.1468
13118TIP3    H160845   6.065   1.001   3.754 -0.4631  1.1329  1.7676
13118TIP3    H260846   6.013   1.030   3.615  0.1855 -1.9832  0.8043
13119TIP3   OH260847   4.517   4.573   5.285 -0.0279  0.3521 -0.5285
13119TIP3    H160848   4.470   4.564   5.202 -0.9043  0.7360 -0.0881
13119TIP3    H260849   4.581   4.643   5.269  0.0055  0.2252 -0.9605
13120TIP3   OH260850   0.543   2.858   1.738  0.9766  0.2229 -0.0409
13120TIP3    H160851   0.587   2.875   1.821  1.3159 -1.7077  0.2332
13120TIP3    H260852   0.472   2.797   1.760  0.8137  0.0099 -1.0898
13121TIP3   OH260853   0.333   5.204  14.198 -0.0419  0.1064  0.1085
13121TIP3    H160854   0.409   5.209  14.256 -1.3533  1.0384  1.8378
13121TIP3    H260855   0.354   5.264  14.126  1.3405 -0.5814 -0.0991
13122TIP3   OH260856   2.298   4.666  16.710  0.4301 -0.1173  0.5755
13122TIP3    H160857   2.291   4.671  16.615 -1.4901  0.3754  0.7030
13122TIP3    H260858   2.359   4.735  16.734  0.1307  0.4343 -0.2357
13123TIP3   OH260859   2.919   4.000   0.781 -0.4392  0.2248 -0.6020
13123TIP3    H160860   2.903   3.939   0.853  1.9637  1.7516  1.3705
13123TIP3    H260861   2.852   4.067   0.791  0.9061  1.3858  1.4750
13124TIP3   OH260862   2.124   2.062  16.568 -0.5629 -0.1187 -0.1682
13124TIP3    H160863   2.152   2.131  16.628  0.7243  0.3105 -1.2101
13124TIP3    H260864   2.196   1.999  16.569 -0.4815 -0.0602 -1.3086
13125TIP3   OH260865   2.307   5.144  15.317  0.1489  0.1779  0.0468
13125TIP3    H160866   2.344   5.233  15.318  1.0798 -0.2007 -0.2247
13125TIP3    H260867   2.218   5.156  15.349  0.6719  1.0266  1.2958
13126TIP3   OH260868   6.795   0.659   5.710 -0.3887 -0.5466 -0.3780
13126TIP3    H160869   6.793   0.568   5.683  3.1124 -0.7624 -0.3016
13126TIP3    H260870   6.747   0.661   5.793 -2.1361 -1.8858 -1.3045
13127TIP3   OH260871   2.402   5.306  14.229  0.4578 -0.0980  0.1559
13127TIP3    H160872   2.495   5.283  14.239 -0.2997 -3.6775  0.2652
13127TIP3    H260873   2.389   5.314  14.135  0.7954 -0.0741  0.1100
13128TIP3   OH260874   6.159   1.070   5.791  0.0891 -0.2672  0.4685
13128TIP3    H160875   6.081   1.116   5.821  0.0845  0.2364 -0.2968
13128TIP3    H260876   6.227   1.138   5.789  0.1084 -0.3044 -0.5638
13129TIP3   OH260877   5.570   1.521   5.972 -0.2369 -0.9444 -0.0784
13129TIP3    H160878   5.589   1.606   6.012 -0.4108 -1.8851  2.1665
13129TIP3    H260879   5.480   1.528   5.942 -0.1646 -0.2490 -0.1448
13130TIP3   OH260880   4.356   0.447  14.658  0.2460 -0.6783  0.1655
13130TIP3    H160881   4.340   0.434  14.751  0.4132 -1.3858  0.1026
13130TIP3    H260882   4.368   0.541  14.648  0.3945 -0.6186  0.8901
13131TIP3   OH260883   0.210   0.391   2.273  0.0877  0.3562 -0.2689
13131TIP3    H160884   0.184   0.470   2.226 -1.9797  0.8094  1.4304
13131TIP3    H260885   0.163   0.397   2.357  2.4031 -1.1109  1.2421
13132TIP3   OH260886   2.676   4.064  14.624  0.3714  0.3721  0.5000
13132TIP3    H160887   2.717   4.064  14.538 -1.7392  0.2432 -0.5766
13132TIP3    H260888   2.693   4.152  14.658  2.9420 -0.2049  0.8949
13133TIP3   OH260889   3.198   4.807   3.683  0.3716  0.1421  0.5745
13133TIP3    H160890   3.114   4.840   3.651  1.1675 -0.3815 -2.3799
13133TIP3    H260891   3.225   4.869   3.750 -1.8155  0.9752  0.7392
13134TIP3   OH260892   0.401   2.488  14.444 -0.5997  0.2978 -0.4294
13134TIP3    H160893   0.344   2.415  14.423 -0.0189 -0.5706  0.9019
13134TIP3    H260894   0.486   2.448  14.461 -1.1106  0.6435  4.3486
13135TIP3   OH260895   4.371   0.528   0.352  0.5305 -0.1778  0.4815
13135TIP3    H160896   4.317   0.479   0.414  1.3354 -0.3722  1.0393
13135TIP3    H260897   4.419   0.590   0.406  2.1231 -1.1309  0.2279
13136TIP3   OH260898   5.891   2.062   2.831 -0.7789 -0.2792 -0.3048
13136TIP3    H160899   5.841   1.983   2.853 -1.0129 -0.4657 -1.4454
13136TIP3    H260900   5.918   2.049   2.741 -0.4778  0.7736 -0.3807
13137TIP3   OH260901   1.540   5.931  10.988  0.2807 -0.0153  0.3596
13137TIP3    H160902   1.616   5.936  10.929  0.8647 -1.3715  0.9679
13137TIP3    H260903   1.471   5.977  10.940  1.3227  0.7922 -0.4471
13138TIP3   OH260904   4.763   4.001  12.732  0.0526  0.0159  0.1642
13138TIP3    H160905   4.699   4.024  12.799 -1.9075  1.3982 -2.0235
13138TIP3    H260906   4.726   3.922  12.690  0.2610  0.2662 -0.4985
13139TIP3   OH260907   5.665   3.989  12.908 -0.1729  0.4206 -0.1547
13139TIP3    H160908   5.672   3.934  12.830  1.0636  0.6064 -0.1950
13139TIP3    H260909   5.737   4.051  12.900  0.0865  0.3310  1.2222
13140TIP3   OH260910   4.930   3.447   1.663  0.0152 -0.2553 -0.2655
13140TIP3    H160911   4.863   3.405   1.716 -1.5087  1.0247 -1.1027
13140TIP3    H260912   4.967   3.376   1.610 -0.0376 -1.1292  0.8501
13141TIP3   OH260913   0.930   5.017  15.283  0.0478  0.6177  0.6339
13141TIP3    H160914   0.984   5.071  15.340  0.8431  0.0595  0.4172
13141TIP3    H260915   0.862   5.077  15.252  0.1671  1.1681  1.3982
13142TIP3   OH260916   3.592   2.638   3.942  0.0097  0.0980 -0.1731
13142TIP3    H160917   3.500   2.628   3.965 -0.0060 -0.4300 -0.4416
13142TIP3    H260918   3.595   2.718   3.889 -0.0736  0.8673  0.9606
13143TIP3   OH260919   0.095   0.472   3.866  0.3357  0.3054 -0.0688
13143TIP3    H160920   0.053   0.438   3.787  1.2087 -0.2124 -0.3285
13143TIP3    H260921   0.188   0.451   3.855  0.5283  0.5532  0.9273
13144TIP3   OH260922   0.676   2.350   2.682 -0.4467 -0.3595  0.0545
13144TIP3    H160923   0.608   2.334   2.748 -0.5260  1.0611  0.3484
13144TIP3    H260924   0.726   2.424   2.717 -0.2333  0.1533 -1.2815
13145TIP3   OH260925   2.840   0.062  14.649 -0.2660  0.8912 -0.4163
13145TIP3    H160926   2.798   0.048  14.734 -0.1396  0.7556 -0.3769
13145TIP3    H260927   2.804  -0.006  14.593  1.0537 -0.2158  0.0235
13146TIP3   OH260928   5.257   2.235   0.944 -0.0628  0.1867 -0.1248
13146TIP3    H160929   5.168   2.213   0.970  0.8341 -1.3966  1.9264
13146TIP3    H260930   5.290   2.289   1.016  1.3852 -1.3127  0.4103
13147TIP3   OH260931   2.493   3.183  11.542 -0.0301 -0.7656 -0.5038
13147TIP3    H160932   2.533   3.261  11.581 -1.2933 -1.0729  1.5821
13147TIP3    H260933   2.453   3.214  11.461 -2.3094  1.3430  1.2467
13148TIP3   OH260934   2.054   3.330   5.389  0.1085  0.4490 -0.2671
13148TIP3    H160935   2.103   3.262   5.436  2.1043  0.8128 -1.7369
13148TIP3    H260936   1.964   3.322   5.423  1.1919 -0.0138  2.7638
13149TIP3   OH260937   3.429   5.223  13.789 -0.1066 -0.0444  0.0197
13149TIP3    H160938   3.401   5.314  13.800 -1.0097 -0.3615  0.4152
13149TIP3    H260939   3.464   5.199  13.875  1.5276  0.3787 -0.4938
13150TIP3   OH260940   4.402   6.549  14.556 -0.6344  0.6623  0.4243
13150TIP3    H160941   4.317   6.593  14.546 -2.0291 -2.2248 -2.0584
13150TIP3    H260942   4.380   6.463  14.592  1.4510  0.3680  1.1090
13151TIP3   OH260943   3.571   1.060   2.201 -0.1549 -0.5549 -0.5534
13151TIP3    H160944   3.481   1.077   2.173  0.0061  1.0726 -0.1974
13151TIP3    H260945   3.625   1.093   2.130  0.1934  1.0763  0.4177
13152TIP3   OH260946   6.065   3.024   3.727  0.3539  0.4925 -0.1265
13152TIP3    H160947   6.024   3.109   3.713  0.3709  0.1761 -2.5578
13152TIP3    H260948   6.008   2.979   3.789 -0.3821  1.7803  0.1523
13153TIP3   OH260949   2.160   2.441  12.134  0.7802 -0.1828 -0.0364
13153TIP3    H160950   2.228   2.478  12.077  0.0883 -0.3320 -0.9864
13153TIP3    H260951   2.209   2.402  12.206  1.9117 -2.1230 -1.7169
13154TIP3   OH260952   4.840   4.227  16.443 -0.3404  0.4808  0.1092
13154TIP3    H160953   4.754   4.221  16.485 -0.0597 -0.1448  0.6221
13154TIP3    H260954   4.855   4.321  16.432 -0.5823  0.6489  1.0845
13155TIP3   OH260955   5.989   0.799  11.540 -0.4831 -0.7435 -0.0594
13155TIP3    H160956   5.923   0.745  11.495 -0.4598 -1.8709  1.1648
13155TIP3    H260957   5.944   0.830  11.619 -0.0108 -0.2660  0.0248
13156TIP3   OH260958   5.797   3.398  14.727 -0.4622 -0.0434 -0.2470
13156TIP3    H160959   5.834   3.443  14.651 -3.7966 -0.9353 -2.5987
13156TIP3    H260960   5.778   3.309  14.696 -2.2271 -0.3460  1.4928
13157TIP3   OH260961   5.697   3.860  13.745  0.0147  0.0332 -0.4520
13157TIP3    H160962   5.667   3.841  13.834  1.2526 -0.7862 -0.1696
13157TIP3    H260963   5.698   3.956  13.739 -0.3648  0.0882  0.3209
13158TIP3   OH260964   4.536   3.866   0.656  0.0481  0.0095  0.1857
13158TIP3    H160965   4.484   3.854   0.577 -0.2980  0.8873  0.2734
13158TIP3    H260966   4.584   3.948   0.642  1.3959 -0.7665  0.1197
13159TIP3   OH260967   3.565   5.261  12.471  0.3873 -0.7860 -0.1821
13159TIP3    H160968   3.659   5.275  12.461  0.3573 -0.9399 -0.6858
13159TIP3    H260969   3.525   5.334  12.423  0.2465 -0.9376 -0.2939
13160TIP3   OH260970   2.024   2.372  17.012  0.1850 -0.1568 -0.0679
13160TIP3    H160971   2.034   2.309  16.940  2.3126  0.8592 -0.7398
13160TIP3    H260972   1.965   2.439  16.977  1.0306  0.2142 -0.8101
13161TIP3   OH260973   1.406   1.203  16.019  0.0597 -0.0547  0.1885
13161TIP3    H160974   1.443   1.291  16.011  0.2634  0.0145  1.5174
13161TIP3    H260975   1.372   1.182  15.932  2.0838  0.4064 -0.7685
13162TIP3   OH260976   0.937   0.150  15.900 -0.1908  0.1377  0.1256
13162TIP3    H160977   0.975   0.133  15.813 -1.7182 -0.9510 -0.3802
13162TIP3    H260978   0.968   0.237  15.923 -0.3206  0.7524 -1.8447
13163TIP3   OH260979   5.471   2.221  17.151  0.0613 -0.6468 -0.6958
13163TIP3    H160980   5.462   2.275  17.073 -2.0467  0.1449  0.0156
13163TIP3    H260981   5.566   2.214  17.164  0.4384  1.0978 -2.0286
13164TIP3   OH260982   1.188   0.385   1.375  0.1926  0.7105  0.0789
13164TIP3    H160983   1.117   0.330   1.343  0.3718  0.6209 -0.1648
13164TIP3    H260984   1.156   0.419   1.459 -0.2192  0.8303 -0.1220
13165TIP3   OH260985   2.414   2.612  12.441  0.2309 -0.4433 -0.2812
13165TIP3    H160986   2.391   2.548  12.508 -1.2556  0.7671  0.4442
13165TIP3    H260987   2.360   2.689  12.462  1.7777  0.9778 -1.2244
13166TIP3   OH260988   2.773   5.662   4.452  0.5589 -0.0314 -0.2723
13166TIP3    H160989   2.826   5.655   4.532 -1.3411 -0.1229  1.0495
13166TIP3    H260990   2.775   5.574   4.415  0.1445 -0.4059  0.5722
13167TIP3   OH260991   2.852   2.317   4.100  0.1205 -0.1039 -0.0836
13167TIP3    H160992   2.820   2.227   4.091 -1.5075  0.6400 -3.6106
13167TIP3    H260993   2.947   2.309   4.086 -0.0358 -1.2817 -0.6855
13168TIP3   OH260994   3.298   3.914  15.315 -0.0774  0.0498 -0.2082
13168TIP3    H160995   3.392   3.901  15.304 -0.2771 -1.3000 -0.5782
13168TIP3    H260996   3.261   3.897  15.229 -0.4915  3.0955 -0.7494
13169TIP3   OH260997   5.794   0.593  14.162 -0.3192 -0.3435 -0.3681
13169TIP3    H160998   5.724   0.612  14.100 -1.4855  1.1293  1.3339
13169TIP3    H260999   5.861   0.660  14.145 -0.6849  0.1242  0.0175
13170TIP3   OH261000   5.107   4.551  11.256 -0.6191  0.0496  0.3272
13170TIP3    H161001   5.038   4.616  11.270 -0.8074  0.0711 -0.6255
13170TIP3    H261002   5.167   4.593  11.195 -0.1804 -0.2784  0.5262
13171TIP3   OH261003   1.302   1.949  13.215  0.5185  0.1600  0.2058
13171TIP3    H161004   1.358   1.903  13.276 -1.3347 -0.1565  1.7482
13171TIP3    H261005   1.267   1.881  13.158 -0.7329 -0.1130  1.2697
13172TIP3   OH261006   6.512   6.005   5.801  0.4104 -0.1107 -0.2166
13172TIP3    H161007   6.550   6.029   5.886 -0.5151 -1.3294  0.5825
13172TIP3    H261008   6.432   6.057   5.796  0.0296 -0.6632  0.0587
13173TIP3   OH261009   5.539   1.309   1.584  0.2528 -0.2816 -0.1649
13173TIP3    H161010   5.560   1.238   1.523  0.1442 -0.8136  0.4164
13173TIP3    H261011   5.541   1.269   1.670  0.1158  0.4081  0.1684
13174TIP3   OH261012   4.452   6.036  13.811  0.4380 -0.3256  0.1969
13174TIP3    H161013   4.474   5.961  13.865  0.2737 -1.3117 -1.0519
13174TIP3    H261014   4.363   6.060  13.838 -0.3511 -1.9396 -0.8180
13175TIP3   OH261015   2.423   3.722   4.803 -0.5312 -0.0091  0.2320
13175TIP3    H161016   2.430   3.638   4.758 -1.1511 -0.7268  1.4279
13175TIP3    H261017   2.346   3.713   4.859 -1.1174  1.6721 -0.2540
13176TIP3   OH261018   6.565   4.942  15.298 -0.2781  0.4156  0.2367
13176TIP3    H161019   6.528   4.908  15.216 -0.3616  0.5918  0.2006
13176TIP3    H261020   6.544   5.035  15.296  0.2343  0.5345  0.1823
13177TIP3   OH261021   1.965   1.013   4.430  0.1023 -0.2311  0.0963
13177TIP3    H161022   1.871   1.003   4.441 -0.0625  0.5153 -0.5944
13177TIP3    H261023   1.984   1.101   4.461  0.3366  0.1705 -1.1486
13178TIP3   OH261024   1.616   6.054   0.285 -0.0172 -0.1237  0.2870
13178TIP3    H161025   1.558   6.081   0.213  0.2762 -1.4561 -0.4904
13178TIP3    H261026   1.618   5.958   0.279 -0.0835 -0.2737  2.1657
13179TIP3   OH261027   1.186   5.425   0.335  0.2129 -0.0178  0.2064
13179TIP3    H161028   1.278   5.444   0.353  0.3819 -0.7234  0.1349
13179TIP3    H261029   1.173   5.335   0.368 -1.3961  1.2980  3.7113
13180TIP3   OH261030   5.431   4.958  13.326  0.1575 -0.1113 -0.0974
13180TIP3    H161031   5.379   4.933  13.403 -2.3884  1.8155 -1.0589
13180TIP3    H261032   5.372   5.011  13.274  3.1013  2.1389 -1.3888
13181TIP3   OH261033   6.667   5.766   2.962 -0.1960 -0.1466 -0.3636
13181TIP3    H161034   6.615   5.686   2.968  1.8488 -1.5977 -0.8973
13181TIP3    H261035   6.703   5.765   2.874  1.0160  0.6107  0.0917
13182TIP3   OH261036   6.221   5.292   5.277 -0.1134  0.5894  0.0911
13182TIP3    H161037   6.187   5.312   5.189 -0.8563  2.3306  0.7226
13182TIP3    H261038   6.292   5.230   5.262 -0.7984  0.1652 -1.6626
13183TIP3   OH261039   5.027   4.310  12.164  0.5775  0.1977 -0.1371
13183TIP3    H161040   4.977   4.356  12.231  0.3945 -1.1888  0.7100
13183TIP3    H261041   5.003   4.353  12.082 -0.6344  0.6958  0.4627
13184TIP3   OH261042   0.989   3.128   1.560  0.6148 -0.0965 -0.2598
13184TIP3    H161043   1.032   3.208   1.590  1.6466 -0.6488 -0.2166
13184TIP3    H261044   0.931   3.103   1.633 -1.3738  1.7461 -1.1184
13185TIP3   OH261045   5.642   2.162  16.877 -0.3405  0.4733 -0.1084
13185TIP3    H161046   5.714   2.127  16.825 -1.6187 -1.7262 -0.5186
13185TIP3    H261047   5.613   2.089  16.931 -1.9246  1.4586  0.4414
13186TIP3   OH261048   5.706   5.330  13.573 -0.7507  0.2968  0.0980
13186TIP3    H161049   5.688   5.313  13.480 -1.6371 -4.3438  0.9097
13186TIP3    H261050   5.802   5.326  13.579 -0.7081  0.1662 -0.5143
13187TIP3   OH261051   0.104   3.611   3.134 -0.4096  0.2580  0.3790
13187TIP3    H161052   0.123   3.545   3.067 -1.1688  0.0728  0.3314
13187TIP3    H261053   0.135   3.572   3.216  0.2845  0.3766  0.1792
13188TIP3   OH261054   4.279   2.246   4.140  0.0663  0.1014  0.1424
13188TIP3    H161055   4.374   2.246   4.157 -0.2198  0.2973  1.8560
13188TIP3    H261056   4.273   2.245   4.044  1.8001  0.5042 -0.0170
13189TIP3   OH261057   3.733   3.920   1.418 -0.5319 -0.1504  0.2945
13189TIP3    H161058   3.762   3.830   1.432  0.0238 -0.1051 -0.4983
13189TIP3    H261059   3.815   3.970   1.408 -0.8574  0.2382 -0.4704
13190TIP3   OH261060   4.804   6.047  13.949 -0.7485 -0.1275  0.3374
13190TIP3    H161061   4.764   6.066  13.864 -0.3071 -0.5238  0.0329
13190TIP3    H261062   4.732   6.055  14.012 -1.2200 -0.4672 -0.1504
13191TIP3   OH261063   3.445   3.600   4.895  0.2219 -0.3913  0.1063
13191TIP3    H161064   3.387   3.551   4.953 -0.6380  0.7468  0.2276
13191TIP3    H261065   3.387   3.642   4.832  0.8164  1.2691  0.5930
13192TIP3   OH261066   1.928   3.093  11.833  0.4480 -0.0678 -0.1698
13192TIP3    H161067   1.895   3.091  11.923  2.1546  0.3364  0.5134
13192TIP3    H261068   1.850   3.102  11.778 -0.4820  4.1203  1.4692
13193TIP3   OH261069   6.804   1.066  10.709 -0.0791 -1.0904 -0.0410
13193TIP3    H161070   6.812   1.056  10.614  1.5688  0.8618 -0.1740
13193TIP3    H261071   6.710   1.067  10.725 -0.3931 -0.7189 -1.7463
13194TIP3   OH261072   4.541   0.253   4.082  0.3230  0.1015  0.3297
13194TIP3    H161073   4.606   0.279   4.147 -0.3201  0.8835  0.6820
13194TIP3    H261074   4.457   0.279   4.121 -0.1356 -0.2218 -0.4310
13195TIP3   OH261075   2.546   0.571  11.765  0.0820 -0.1412  0.1330
13195TIP3    H161076   2.506   0.658  11.774 -0.1237 -0.3970  2.2350
13195TIP3    H261077   2.472   0.510  11.771  0.3586 -0.5019 -0.1038
13196TIP3   OH261078   0.026   5.761   4.293 -0.4557 -0.6221  0.0529
13196TIP3    H161079   0.099   5.778   4.234 -0.4271 -1.1114 -0.0536
13196TIP3    H261080   0.032   5.830   4.359 -1.3532  0.8418 -1.3185
13197TIP3   OH261081   0.105   3.434  16.134  0.1526  0.1398 -0.1270
13197TIP3    H161082   0.072   3.358  16.182 -3.1975  1.3477 -0.2525
13197TIP3    H261083   0.123   3.402  16.046 -1.6911 -0.4524 -0.3171
13198TIP3   OH261084   3.247   4.582  16.483 -0.3443  0.5032  0.0835
13198TIP3    H161085   3.332   4.604  16.520  0.8867 -1.1250 -1.6266
13198TIP3    H261086   3.263   4.572  16.389 -1.9839 -1.6556 -0.0548
13199TIP3   OH261087   3.190   0.375   3.216  0.3689 -0.4407 -0.7549
13199TIP3    H161088   3.118   0.391   3.155 -0.6103  0.2893  0.5455
13199TIP3    H261089   3.224   0.462   3.236 -0.2181 -0.5445  0.7816
13200TIP3   OH261090   5.638   5.959  13.637  0.2156  0.0730  0.0543
13200TIP3    H161091   5.641   5.920  13.725 -2.3637 -0.3557  0.0373
13200TIP3    H261092   5.648   5.885  13.578  0.1505  0.1055  0.0024
13201TIP3   OH261093   3.799   4.648   4.385 -0.1278 -0.1358 -0.2106
13201TIP3    H161094   3.893   4.634   4.394 -0.2524 -0.0635  1.4455
13201TIP3    H261095   3.764   4.562   4.364  0.3031 -0.1656 -0.8276
13202TIP3   OH261096   0.800   3.900  15.010 -0.2420 -0.1696 -0.2626
13202TIP3    H161097   0.796   3.994  15.026  0.6442 -0.2722  0.6992
13202TIP3    H261098   0.851   3.865  15.084  1.3906 -1.1144 -1.7481
13203TIP3   OH261099   0.012   4.418  14.221 -0.2648 -0.0365 -0.2010
13203TIP3    H161100  -0.042   4.383  14.151 -0.3300  1.9910 -1.2273
13203TIP3    H261101   0.051   4.340  14.263  0.1028 -1.3007 -2.7154
13204TIP3   OH261102   6.614   6.248  17.228 -0.4891 -0.5790 -0.3343
13204TIP3    H161103   6.610   6.342  17.245  1.4964 -0.6915  1.2261
13204TIP3    H261104   6.703   6.223  17.253 -0.9196 -2.8582 -0.8294
13205TIP3   OH261105   1.160   4.752   5.981 -0.3355 -0.0141  0.4053
13205TIP3    H161106   1.131   4.843   5.971  0.1057 -0.0002 -1.0147
13205TIP3    H261107   1.248   4.751   5.944  0.1783 -0.7709  1.5691
13206TIP3   OH261108   1.914   2.780   2.201 -0.2408 -0.1345 -0.3319
13206TIP3    H161109   1.895   2.762   2.293  0.2150 -1.7847 -0.5289
13206TIP3    H261110   1.855   2.723   2.152  0.6011 -0.4353 -1.0300
13207TIP3   OH261111   4.489   2.000  15.995  0.3691  0.0134 -0.5410
13207TIP3    H161112   4.507   1.920  16.044 -1.5955 -0.7723 -0.9984
13207TIP3    H261113   4.545   1.993  15.918 -0.4985 -1.5076 -1.1051
13208TIP3   OH261114   5.739   6.545   4.561 -0.0891  0.0482 -0.0006
13208TIP3    H161115   5.714   6.498   4.641 -1.5699 -0.2056 -0.5737
13208TIP3    H261116   5.816   6.498   4.528  0.4481  0.0653  1.1748
13209TIP3   OH261117   4.879   2.806   5.599  0.0886 -0.3562  0.3651
13209TIP3    H161118   4.789   2.773   5.588  0.3139 -0.6781 -0.6372
13209TIP3    H261119   4.933   2.728   5.606  0.4956 -0.2170 -0.8964
13210TIP3   OH261120   1.275   0.814   3.738  0.1303 -0.2640  0.3995
13210TIP3    H161121   1.263   0.744   3.803 -0.1032  0.2876  0.9655
13210TIP3    H261122   1.351   0.863   3.769  1.0267 -0.9502 -0.6355
13211TIP3   OH261123   1.711   6.242   2.248 -0.1942 -0.0473 -0.1599
13211TIP3    H161124   1.707   6.184   2.324 -0.6860 -0.1216 -0.2332
13211TIP3    H261125   1.702   6.184   2.173 -1.2697  0.1673 -0.2136
13212TIP3   OH261126   5.569   6.084  15.666 -0.6761  0.4149  0.1047
13212TIP3    H161127   5.520   6.118  15.741 -0.6807 -0.7292  0.6369
13212TIP3    H261128   5.605   6.001  15.696 -0.5802 -0.0106 -1.1256
13213TIP3   OH261129   5.577   3.596   1.077 -0.2253  0.5705 -0.0253
13213TIP3    H161130   5.612   3.679   1.045 -0.2858  0.6253  0.0519
13213TIP3    H261131   5.642   3.565   1.141  0.6672 -0.2815 -1.2959
13214TIP3   OH261132   6.151   4.349   1.667 -0.3267 -0.1050  0.6346
13214TIP3    H161133   6.056   4.344   1.662 -0.4265 -1.4986  2.6256
13214TIP3    H261134   6.169   4.429   1.716 -0.7252 -1.4596  3.2019
13215TIP3   OH261135   1.449   2.655  13.193  0.2387  0.1504 -0.1453
13215TIP3    H161136   1.514   2.585  13.201  0.8673  0.8443  1.4208
13215TIP3    H261137   1.381   2.619  13.136  0.5641 -1.7154  0.5532
13216TIP3   OH261138   2.243   4.612   0.937 -0.3384  0.5264 -0.7246
13216TIP3    H161139   2.244   4.642   0.847  0.4248 -2.0448 -1.6744
13216TIP3    H261140   2.331   4.579   0.953 -0.7042  0.1365  0.6681
13217TIP3   OH261141   3.204   3.616   3.684 -0.1710 -0.3415 -0.8537
13217TIP3    H161142   3.202   3.689   3.746  0.0076  0.4239 -1.7174
13217TIP3    H261143   3.297   3.602   3.667 -0.1103 -1.9367  0.6075
13218TIP3   OH261144   1.932   4.207  17.015 -0.2603 -0.0605 -0.4100
13218TIP3    H161145   1.867   4.212  17.085  0.1182  2.8689 -0.1176
13218TIP3    H261146   1.949   4.114  17.004 -4.1222 -0.9464 -0.2159
13219TIP3   OH261147   6.115   4.017   1.810 -0.7458 -0.4369  0.2639
13219TIP3    H161148   6.033   3.999   1.856  0.5737 -1.7782  2.2586
13219TIP3    H261149   6.158   3.932   1.802  0.7373  0.3098 -0.1971
13220TIP3   OH261150   3.273   4.254   4.417 -0.4766  0.7488  1.0187
13220TIP3    H161151   3.192   4.204   4.415  0.2000 -0.4443  1.9535
13220TIP3    H261152   3.260   4.324   4.353 -0.7882 -1.6157 -1.7018
13221TIP3   OH261153   2.992   0.160   2.893  0.9651  0.0835 -0.0140
13221TIP3    H161154   2.911   0.168   2.843  0.5387 -0.3321  0.6107
13221TIP3    H261155   3.039   0.089   2.851  1.4700  0.9618 -0.9985
13222TIP3   OH261156   3.362   1.443  13.127 -0.1344  0.1816  0.6044
13222TIP3    H161157   3.309   1.371  13.093 -0.2286 -0.1334  1.3865
13222TIP3    H261158   3.297   1.507  13.157 -0.1062 -0.4189  2.0199
13223TIP3   OH261159   5.243   5.602   6.181 -0.6280 -0.1345  0.6984
13223TIP3    H161160   5.266   5.686   6.222  1.5913  0.2796 -1.1508
13223TIP3    H261161   5.325   5.572   6.141 -1.8081 -2.2830 -0.2802
13224TIP3   OH261162   1.933   0.514   3.925  0.7076 -0.2500  0.1924
13224TIP3    H161163   1.872   0.551   3.989  0.2040  1.5309 -1.2191
13224TIP3    H261164   1.989   0.586   3.900  0.1621 -0.5480 -2.1627
13225TIP3   OH261165   5.783   5.190   0.743  0.4376 -0.2433  0.5456
13225TIP3    H161166   5.856   5.144   0.700  0.4648  1.2121 -1.0919
13225TIP3    H261167   5.821   5.273   0.773 -0.4281  0.3685  0.0142
13226TIP3   OH261168   1.975   5.394  12.037  0.5596 -0.6132 -0.2121
13226TIP3    H161169   2.011   5.365  11.953  0.6320 -0.9856 -0.0530
13226TIP3    H261170   2.038   5.364  12.102 -0.4205 -2.0130  0.1465
13227TIP3   OH261171   2.833   4.214   1.090 -0.6632 -0.5030  0.0199
13227TIP3    H161172   2.836   4.123   1.119  0.3267 -1.3023 -2.3041
13227TIP3    H261173   2.760   4.217   1.027 -0.5933  0.2712 -0.0403
13228TIP3   OH261174   4.859   5.895   2.100 -0.6543 -0.2819 -0.4343
13228TIP3    H161175   4.797   5.967   2.112 -1.0146 -0.3681 -1.6441
13228TIP3    H261176   4.844   5.865   2.010  1.5572  0.0986 -1.0058
13229TIP3   OH261177   0.985   2.021   2.402  0.1742  0.1211 -0.6067
13229TIP3    H161178   1.035   1.968   2.340  0.6220  0.0901 -0.2243
13229TIP3    H261179   0.898   2.026   2.364  0.3248 -0.2705 -1.0163
13230TIP3   OH261180   6.513   5.468   5.169  0.3884  0.2088  0.2588
13230TIP3    H161181   6.537   5.534   5.105 -0.5865 -0.9218 -1.3437
13230TIP3    H261182   6.420   5.451   5.153 -0.2021  0.6164  2.6928
13231TIP3   OH261183   0.571   3.298   3.630 -0.0079 -0.0711  0.0402
13231TIP3    H161184   0.664   3.275   3.635 -0.1216 -0.5937 -0.1600
13231TIP3    H261185   0.562   3.340   3.544  0.3167  1.2937  0.6529
13232TIP3   OH261186   1.442   5.389  15.555 -0.0447 -0.0300  0.0425
13232TIP3    H161187   1.484   5.427  15.478  1.4386 -1.8480 -0.1025
13232TIP3    H261188   1.379   5.456  15.583  0.3276  1.2340 -1.9269
13233TIP3   OH261189   2.666   3.547  12.107  0.0932  0.3410 -0.0481
13233TIP3    H161190   2.708   3.604  12.042  0.8516 -1.1598 -0.9310
13233TIP3    H261191   2.601   3.498  12.057 -0.1484  0.0247  0.5687
13234TIP3   OH261192   1.465   0.769  11.973 -0.6983 -0.1707 -0.6099
13234TIP3    H161193   1.428   0.822  12.044 -0.2752 -0.6475 -0.0239
13234TIP3    H261194   1.389   0.732  11.929 -0.9943  0.8232 -0.9550
13235TIP3   OH261195   3.698   1.571  13.571  0.2980  0.6154  0.7067
13235TIP3    H161196   3.626   1.560  13.508 -0.8889  3.4220  1.4381
13235TIP3    H261197   3.745   1.488  13.568 -1.1177 -0.2048 -2.1149
13236TIP3   OH261198   5.374   3.159   1.605 -0.7218 -0.7340  0.4159
13236TIP3    H161199   5.337   3.086   1.656 -0.4584 -0.9547  0.2939
13236TIP3    H261200   5.299   3.198   1.560 -1.0504 -0.1814  1.4098
13237TIP3   OH261201   2.326   0.927   5.909  0.4199  0.4064 -0.0100
13237TIP3    H161202   2.247   0.901   5.862  0.5944 -0.6835  0.2664
13237TIP3    H261203   2.322   1.023   5.912 -1.2554  0.3515  0.6414
13238TIP3   OH261204   0.272   6.717  15.558  0.0835 -0.1761 -0.4368
13238TIP3    H161205   0.232   6.760  15.483  1.4526 -0.3014 -1.2628
13238TIP3    H261206   0.350   6.674  15.523  0.6135 -0.4522  1.0072
13239TIP3   OH261207   6.488   6.661   1.082  0.5094  0.7875 -0.1309
13239TIP3    H161208   6.560   6.691   1.138 -0.0067 -0.6807  1.3766
13239TIP3    H261209   6.414   6.652   1.141 -0.2042 -0.3110 -1.1570
13240TIP3   OH261210   1.207   5.052   5.115  0.6172  0.7870 -0.0720
13240TIP3    H161211   1.140   5.081   5.178  2.3419  2.1711  1.2349
13240TIP3    H261212   1.212   5.124   5.052 -1.7915 -1.0031 -2.5453
13241TIP3   OH261213   6.070   2.149  13.058 -0.4649  0.3678 -0.0166
13241TIP3    H161214   6.146   2.093  13.068 -1.3388 -1.0558 -0.9303
13241TIP3    H261215   6.098   2.234  13.091  2.3771  0.6351 -2.6231
13242TIP3   OH261216   6.055   4.223  15.162  0.3421  0.1795  0.2151
13242TIP3    H161217   5.967   4.191  15.141  0.4546 -1.2467  1.6945
13242TIP3    H261218   6.044   4.278  15.239  0.6502  0.5967 -0.0371
13243TIP3   OH261219   0.036   4.933  13.345  0.5254  0.0274  0.6506
13243TIP3    H161220  -0.035   4.996  13.354 -0.3072 -0.7465 -0.2081
13243TIP3    H261221   0.021   4.892  13.260  0.2402 -2.2511  1.7085
13244TIP3   OH261222   0.710   0.905   2.448  0.1922  0.0955  0.5992
13244TIP3    H161223   0.784   0.961   2.422 -0.1993  1.1436  1.6624
13244TIP3    H261224   0.711   0.907   2.543 -1.5685  0.6382  0.6356
13245TIP3   OH261225   5.353   3.846  11.602 -0.6019  0.1337 -0.6133
13245TIP3    H161226   5.304   3.804  11.531 -2.9425  1.3246  0.1896
13245TIP3    H261227   5.289   3.856  11.673  0.8545  1.6585  0.5822
13246TIP3   OH261228   1.918   1.863   3.191 -0.1179  0.1176  0.0657
13246TIP3    H161229   1.978   1.867   3.117 -0.8229  0.4132 -0.5064
13246TIP3    H261230   1.842   1.915   3.163 -1.1363 -1.2038  0.3058
13247TIP3   OH261231   2.233   3.590   2.190  0.4619 -0.6998 -0.3914
13247TIP3    H161232   2.230   3.680   2.222  1.6671 -1.1214  1.0411
13247TIP3    H261233   2.213   3.536   2.267 -0.7902 -1.6504 -1.3550
13248TIP3   OH261234   6.400   5.459  11.987 -0.1503  0.0449  0.2812
13248TIP3    H161235   6.391   5.440  12.080  1.3032  2.5466  1.0218
13248TIP3    H261236   6.313   5.441  11.950 -0.6809 -1.2389  2.0305
13249TIP3   OH261237   2.819   0.437   3.360 -0.4572 -0.0757 -0.1913
13249TIP3    H161238   2.816   0.500   3.288 -1.0343 -0.1012 -0.1942
13249TIP3    H261239   2.745   0.378   3.344  0.4273 -1.1325 -0.5281
13250TIP3   OH261240   6.526   4.711   0.024 -0.0025 -0.3351  0.2090
13250TIP3    H161241   6.594   4.775   0.004 -0.5433 -0.0062 -0.6448
13250TIP3    H261242   6.566   4.626   0.005  0.8021 -0.2992  1.5847
13251TIP3   OH261243   6.209   4.001   2.079 -0.8257  0.3406 -0.0773
13251TIP3    H161244   6.302   4.017   2.097 -0.9867  0.9620  0.2346
13251TIP3    H261245   6.197   4.032   1.990 -0.7100  0.1680 -0.1530
13252TIP3   OH261246   0.866   3.729  16.631 -0.5418  0.0456  0.0240
13252TIP3    H161247   0.780   3.753  16.667 -0.0218  1.7073  0.2414
13252TIP3    H261248   0.913   3.812  16.624  1.0370 -0.8236 -0.1584
13253TIP3   OH261249   0.708   5.394   1.548 -0.1808  0.2342 -0.3249
13253TIP3    H161250   0.793   5.438   1.539  0.6673 -1.2787 -0.1203
13253TIP3    H261251   0.727   5.303   1.526 -0.6737 -1.1856  4.1587
13254TIP3   OH261252   3.527   5.298   0.026  0.1455  0.0365  0.2573
13254TIP3    H161253   3.521   5.346   0.108  0.7647  0.2402  0.1855
13254TIP3    H261254   3.488   5.213   0.045  2.2255 -0.7341  1.3868
13255TIP3   OH261255   4.244   0.387  15.911  0.0241  0.3861  0.3750
13255TIP3    H161256   4.244   0.339  15.828  0.7533  0.3496  0.3840
13255TIP3    H261257   4.154   0.416  15.922 -0.0992  0.3305 -0.3965
13256TIP3   OH261258   1.606   6.212  12.270  0.0191  0.0238 -0.2106
13256TIP3    H161259   1.589   6.118  12.271 -0.8860  0.1764  0.6675
13256TIP3    H261260   1.628   6.233  12.361 -1.0840  0.8638 -0.1239
13257TIP3   OH261261   6.239   1.284   3.754  0.3159 -0.5689  0.2329
13257TIP3    H161262   6.228   1.283   3.849  0.2239 -0.0529  0.2291
13257TIP3    H261263   6.192   1.206   3.723 -0.4763 -0.2092  0.5229
13258TIP3   OH261264   6.428   2.389   4.520  0.3092  0.3953  0.7892
13258TIP3    H161265   6.453   2.311   4.569  2.3212  0.6895  0.3338
13258TIP3    H261266   6.456   2.372   4.431  0.6016  1.5513  0.6419
13259TIP3   OH261267   3.895   4.958  12.787 -0.0360  0.4847 -0.6241
13259TIP3    H161268   3.867   4.925  12.701 -0.8922  3.3373 -1.5369
13259TIP3    H261269   3.833   4.919  12.849 -0.1496 -0.6687 -1.4256
13260TIP3   OH261270   2.004   5.384   0.429 -0.5595  0.0179  0.2701
13260TIP3    H161271   2.075   5.381   0.364 -0.6656  1.3784  0.0439
13260TIP3    H261272   1.962   5.469   0.413 -2.9410 -1.1860 -0.3334
13261TIP3   OH261273   0.726   3.167  15.827 -0.2174  0.2384 -0.1917
13261TIP3    H161274   0.645   3.150  15.779 -0.0371 -0.0332 -0.4089
13261TIP3    H261275   0.754   3.254  15.799 -0.2420  0.1804 -0.3984
13262TIP3   OH261276   2.738   6.610  12.491  0.1550  0.0244  0.1301
13262TIP3    H161277   2.664   6.659  12.456 -0.0181 -1.2021 -1.3110
13262TIP3    H261278   2.725   6.520  12.460  2.7098 -0.0625 -0.9371
13263TIP3   OH261279   0.868   1.658  15.816 -0.5104  0.3847 -0.6225
13263TIP3    H161280   0.822   1.667  15.732  0.0280  2.8401 -0.7193
13263TIP3    H261281   0.838   1.733  15.868  0.5517 -0.0802  0.7180
13264TIP3   OH261282   6.179   0.542  15.761  0.0603  0.3172 -0.0266
13264TIP3    H161283   6.260   0.591  15.773  1.1150 -1.1169 -0.9727
13264TIP3    H261284   6.206   0.458  15.724 -1.7528 -0.6827  0.7504
13265TIP3   OH261285   4.638   5.891   3.052  0.2276  0.3480  0.0212
13265TIP3    H161286   4.630   5.919   2.960  0.4792  0.4910  0.0418
13265TIP3    H261287   4.570   5.941   3.098 -0.9645 -0.8779 -0.3319
13266TIP3   OH261288   6.190   0.848  15.280 -0.0250 -0.3214 -0.6226
13266TIP3    H161289   6.247   0.833  15.204  0.8357 -0.1399 -0.0248
13266TIP3    H261290   6.204   0.772  15.336 -1.6347 -1.0992 -1.2052
13267TIP3   OH261291   1.112   6.291   4.035 -0.0946 -0.6076 -0.3544
13267TIP3    H161292   1.194   6.242   4.037 -0.4057 -1.1422 -0.4683
13267TIP3    H261293   1.132   6.374   4.079 -0.0294 -1.5656  1.5089
13268TIP3   OH261294   4.998   1.578  11.065 -0.3367 -0.6047  0.1143
13268TIP3    H161295   4.973   1.620  11.147 -0.9137  0.6165 -0.6522
13268TIP3    H261296   4.933   1.608  11.001  1.4110  0.3462 -1.3181
13269TIP3   OH261297   5.743   5.186  12.319  0.1957 -0.1258  0.4060
13269TIP3    H161298   5.814   5.250  12.326  0.9508 -0.7527 -1.1796
13269TIP3    H261299   5.664   5.239  12.317  0.7032  0.6640  0.7459
13270TIP3   OH261300   6.095   4.384   0.249 -0.0636  0.1406  0.0639
13270TIP3    H161301   6.171   4.380   0.192 -1.6473  0.7038 -2.2429
13270TIP3    H261302   6.096   4.472   0.286  1.0519 -0.2759  1.0897
13271TIP3   OH261303   5.426   2.560   2.202  0.5056  0.0956 -0.2925
13271TIP3    H161304   5.472   2.513   2.132  0.0985 -0.1726 -0.3815
13271TIP3    H261305   5.494   2.577   2.267  0.4649 -1.4657  0.1872
13272TIP3   OH261306   5.503   6.297   0.151 -0.7961 -0.2170 -0.2016
13272TIP3    H161307   5.589   6.254   0.153 -1.6394 -2.0159 -0.5926
13272TIP3    H261308   5.479   6.307   0.243  0.1711  1.0753 -0.0655
13273TIP3   OH261309   3.508   5.575   4.247 -0.1501  0.9349  0.0217
13273TIP3    H161310   3.549   5.648   4.201 -0.9580  2.2275  1.2587
13273TIP3    H261311   3.430   5.555   4.195  1.6647 -1.2354 -2.0868
13274TIP3   OH261312   4.100   1.685  12.203  0.2442  0.4033 -0.1712
13274TIP3    H161313   4.121   1.775  12.229 -2.7205  0.8930  0.9714
13274TIP3    H261314   4.093   1.638  12.286 -1.1335 -0.1268 -0.5680
13275TIP3   OH261315   1.659   3.613  17.162 -0.3017  0.5969  0.1188
13275TIP3    H161316   1.655   3.545  17.095  0.5348 -0.6587  1.3025
13275TIP3    H261317   1.744   3.601  17.204  0.0671  2.6969  0.0581
13276TIP3   OH261318   5.183   3.057   0.084  0.5036 -0.1426  0.1724
13276TIP3    H161319   5.248   3.085   0.149  0.6292  5.4430 -1.8560
13276TIP3    H261320   5.235   3.038   0.005 -0.0516 -0.5883 -0.0953
13277TIP3   OH261321   0.364   6.088   2.897 -0.5593  0.2099  0.3462
13277TIP3    H161322   0.425   6.039   2.952  1.1853  0.0451 -1.5972
13277TIP3    H261323   0.404   6.175   2.888 -0.9135  0.2984 -0.4630
13278TIP3   OH261324   4.198   1.323  12.013  0.0690 -0.2648  0.4114
13278TIP3    H161325   4.193   1.317  12.109 -0.2713 -0.4938  0.3807
13278TIP3    H261326   4.242   1.407  11.997 -0.8552  0.2979  0.7499
13279TIP3   OH261327   0.885   4.949   5.060 -0.2080 -0.0067  0.0469
13279TIP3    H161328   0.802   4.902   5.049 -0.3752  0.0452  1.0104
13279TIP3    H261329   0.893   5.001   4.980 -1.8373  1.0916  0.5292
13280TIP3   OH261330   1.240   3.994  12.330  0.0619  0.5671  0.4778
13280TIP3    H161331   1.237   3.939  12.408 -1.0407  0.4203  0.3470
13280TIP3    H261332   1.152   4.031  12.323  0.6621  2.0347  0.3219
13281TIP3   OH261333   3.951   0.478  10.305 -0.0635  0.1224  0.7351
13281TIP3    H161334   4.046   0.490  10.306  0.2544 -1.9645  1.7659
13281TIP3    H261335   3.918   0.545  10.365  1.0095 -0.5502  2.1371
13282TIP3   OH261336   1.129   4.937  11.229 -0.0309  0.4060 -0.2626
13282TIP3    H161337   1.104   4.893  11.310 -0.2482 -3.5510 -2.2421
13282TIP3    H261338   1.221   4.960  11.243  0.3781 -1.5421  0.6695
13283TIP3   OH261339   2.553   6.205   0.937  0.1648 -0.2006  0.0230
13283TIP3    H161340   2.520   6.118   0.958  0.6959 -0.7295 -1.2937
13283TIP3    H261341   2.615   6.224   1.008 -0.8240 -0.3608  0.9727
13284TIP3   OH261342   0.759   2.627   5.566 -0.1200 -0.2373  0.3020
13284TIP3    H161343   0.844   2.585   5.578  0.5359  1.3031  1.4781
13284TIP3    H261344   0.719   2.626   5.653 -1.3101 -0.9188 -0.2319
13285TIP3   OH261345   4.487   2.028  14.363  0.4351 -0.2508  0.5246
13285TIP3    H161346   4.445   1.968  14.425  0.9750 -0.4470  0.7060
13285TIP3    H261347   4.506   1.974  14.287 -0.5972  0.0831  0.0116
13286TIP3   OH261348   1.737   5.825   6.069  0.3127  0.0408 -0.1680
13286TIP3    H161349   1.766   5.807   6.158  1.4501  1.6948 -0.1399
13286TIP3    H261350   1.665   5.887   6.079  1.6865  1.7773 -0.3598
13287TIP3   OH261351   2.543   2.843  13.480 -0.1571  0.1023  0.2469
13287TIP3    H161352   2.614   2.894  13.520 -0.2119 -0.1229  0.6286
13287TIP3    H261353   2.573   2.828  13.390  0.6506 -0.6822  0.6382
13288TIP3   OH261354   0.091   0.987  14.335  0.0289 -0.5217  0.2616
13288TIP3    H161355   0.045   0.903  14.330  0.9840 -1.0672  0.1880
13288TIP3    H261356   0.163   0.971  14.396  1.7496 -0.5599 -1.6236
13289TIP3   OH261357   0.532   5.464   0.475 -0.5338  0.1429 -0.3880
13289TIP3    H161358   0.598   5.470   0.406  0.2102 -0.1818  0.2795
13289TIP3    H261359   0.500   5.553   0.485 -0.6996  0.1797 -1.2005
13290TIP3   OH261360   3.031   0.302   6.430  0.4739 -0.2796 -0.2579
13290TIP3    H161361   3.109   0.250   6.449  0.8664  0.3788 -0.0234
13290TIP3    H261362   3.030   0.311   6.335  0.5694 -0.4584 -0.2761
13291TIP3   OH261363   1.934   1.779  17.197 -0.2018 -0.5003  0.2651
13291TIP3    H161364   2.013   1.758  17.147 -1.0621 -1.3437 -0.7894
13291TIP3    H261365   1.927   1.874  17.191 -0.0842 -0.5500 -0.9446
13292TIP3   OH261366   2.553   2.964  15.256 -0.0778 -0.0263  0.2083
13292TIP3    H161367   2.615   2.891  15.258 -0.8508 -0.6946  1.4459
13292TIP3    H261368   2.567   3.005  15.171  0.0326 -1.9351 -0.7592
13293TIP3   OH261369   6.669   0.231  13.831 -0.7745  0.0224 -0.1781
13293TIP3    H161370   6.619   0.156  13.800  0.6554 -0.3929 -1.6368
13293TIP3    H261371   6.679   0.217  13.925 -2.0571 -0.6517 -0.1212
13294TIP3   OH261372   4.434   1.312  14.585  0.1359 -0.1623 -0.3353
13294TIP3    H161373   4.424   1.399  14.624 -1.3235 -1.5342  2.6097
13294TIP3    H261374   4.480   1.261  14.650  0.6162 -1.7429 -1.8404
13295TIP3   OH261375   6.618   5.025   5.621  0.2922  0.2379 -0.2652
13295TIP3    H161376   6.561   5.062   5.553 -0.5618  0.9007  0.7769
13295TIP3    H261377   6.672   4.961   5.574 -1.2692 -0.3860 -1.3141
13296TIP3   OH261378   3.893   2.207  12.253 -0.1279  0.3110 -0.3140
13296TIP3    H161379   3.895   2.303  12.258 -0.2957  0.3940 -1.5156
13296TIP3    H261380   3.809   2.187  12.212 -0.4060 -0.4029  0.5676
13297TIP3   OH261381   0.374   2.264   3.708  0.2712  0.0762  0.2600
13297TIP3    H161382   0.469   2.258   3.702  0.3024 -1.4830  1.4660
13297TIP3    H261383   0.357   2.280   3.801 -0.6273  1.7694 -0.1546
13298TIP3   OH261384   3.601   3.516  11.631 -0.4410 -0.3208 -0.1503
13298TIP3    H161385   3.575   3.574  11.559  1.7824 -1.4035 -1.9854
13298TIP3    H261386   3.686   3.550  11.660  0.3039 -1.8515 -0.4169
13299TIP3   OH261387   2.533   2.169   1.484  0.3786  0.1164  0.3007
13299TIP3    H161388   2.449   2.200   1.452 -0.0057  0.4204  1.5478
13299TIP3    H261389   2.525   2.170   1.579  2.3452  1.7711  0.5282
13300TIP3   OH261390   3.282   0.267   2.268  0.5051 -0.3683 -0.3075
13300TIP3    H161391   3.198   0.224   2.285  0.9839 -1.1427  0.1451
13300TIP3    H261392   3.273   0.301   2.179 -0.0779 -0.9622 -0.4906
13301TIP3   OH261393   6.334   6.585  14.458 -0.6363  0.2036  0.3631
13301TIP3    H161394   6.277   6.513  14.484 -1.0714  0.6083  0.5337
13301TIP3    H261395   6.331   6.585  14.363  2.0729 -2.1995  0.1378
13302TIP3   OH261396   0.788   5.154   1.465 -0.0868 -0.0250 -0.5834
13302TIP3    H161397   0.783   5.157   1.369  1.6091  1.3496 -0.6775
13302TIP3    H261398   0.881   5.146   1.483 -0.1507  2.1128  0.9682
13303TIP3   OH261399   3.904   3.138  11.858 -0.1285 -1.1016  0.3860
13303TIP3    H161400   3.892   3.100  11.771  0.8591 -3.7862  1.3345
13303TIP3    H261401   3.906   3.232  11.842 -0.4853 -1.4733 -2.4207
13304TIP3   OH261402   2.591   3.785  15.784 -0.1404  0.9678 -0.5760
13304TIP3    H161403   2.680   3.781  15.818 -0.3050 -1.1500 -0.2639
13304TIP3    H261404   2.589   3.718  15.715 -2.0990 -0.7786  1.0509
13305TIP3   OH261405   6.320   1.226   4.783  0.1725  0.1506  0.3261
13305TIP3    H161406   6.294   1.135   4.766  1.0319 -0.9915  4.1120
13305TIP3    H261407   6.415   1.222   4.791  0.0035  0.4380  4.2084
13306TIP3   OH261408   2.470   4.300   0.176 -0.5009 -0.1785  0.0440
13306TIP3    H161409   2.559   4.334   0.186  0.5788 -2.4231 -1.2214
13306TIP3    H261410   2.445   4.326   0.088 -0.8294 -0.1748  0.1391
13307TIP3   OH261411   5.608   3.271   1.543 -0.3159  0.4471 -0.2573
13307TIP3    H161412   5.526   3.236   1.578  0.0028 -1.7025 -1.4974
13307TIP3    H261413   5.659   3.296   1.620  0.0214 -3.2835  0.8951
13308TIP3   OH261414   0.783   2.677   5.078  0.0328 -0.8491 -0.1995
13308TIP3    H161415   0.803   2.619   5.151 -2.2665 -0.7227  0.6179
13308TIP3    H261416   0.731   2.747   5.116 -0.0949 -0.0543 -1.7407
13309TIP3   OH261417   4.197   0.930  14.740  0.3828 -0.1078  0.4620
13309TIP3    H161418   4.210   1.022  14.763  3.5513 -0.4108  0.3144
13309TIP3    H261419   4.192   0.930  14.644 -2.7711  0.1170  0.5121
13310TIP3   OH261420   3.397   3.970   2.670  0.7450  0.0311  0.0147
13310TIP3    H161421   3.342   4.035   2.714  2.0895  0.1560  1.6326
13310TIP3    H261422   3.373   3.887   2.712  0.1183 -0.3077 -0.9748
13311TIP3   OH261423   5.443   6.065  11.728  0.1419  0.1851 -0.1384
13311TIP3    H161424   5.502   6.092  11.658 -0.0766 -2.9859 -1.7001
13311TIP3    H261425   5.355   6.078  11.693  0.0128 -0.5878 -0.1097
13312TIP3   OH261426   2.173   1.845  14.256 -0.0932  0.1054  0.2220
13312TIP3    H161427   2.123   1.787  14.313 -1.4944  1.1399  0.0889
13312TIP3    H261428   2.139   1.829  14.168 -1.0779  1.6425  0.2769
13313TIP3   OH261429   1.817   2.092   3.801 -0.5325 -0.7800 -0.0781
13313TIP3    H161430   1.832   2.111   3.894 -1.6942 -1.5361  0.2949
13313TIP3    H261431   1.736   2.041   3.801 -1.6530  0.8859 -1.6727
13314TIP3   OH261432   5.538   6.809   5.624 -0.3080 -0.2043  0.0823
13314TIP3    H161433   5.565   6.823   5.715 -0.3323  1.9146 -0.1971
13314TIP3    H261434   5.551   6.893   5.581 -0.1361 -1.2030 -1.9556
13315TIP3   OH261435   3.202   1.477  14.538 -0.0614  0.3625 -0.5279
13315TIP3    H161436   3.277   1.428  14.572 -0.5983  0.1369  0.3508
13315TIP3    H261437   3.192   1.445  14.448  0.6718  0.1392 -0.5395
13316TIP3   OH261438   0.887   0.967  12.016  0.1533 -0.2271  0.6167
13316TIP3    H161439   0.797   0.934  12.015 -0.0237  0.2436 -0.9141
13316TIP3    H261440   0.935   0.903  12.069 -1.2219 -0.0599  2.1522
13317TIP3   OH261441   4.308   3.071  15.368 -0.0617 -0.1863 -0.4047
13317TIP3    H161442   4.234   3.131  15.377  0.1865  0.3022 -1.4889
13317TIP3    H261443   4.384   3.122  15.394  0.4683  0.7889 -3.4679
13318TIP3   OH261444   2.164   4.382  17.037 -0.0160  0.3812 -0.0612
13318TIP3    H161445   2.138   4.463  16.992 -1.7320  0.9558  1.8119
13318TIP3    H261446   2.092   4.322  17.019  0.0236  0.1192  0.6382
13319TIP3   OH261447   5.524   3.701   5.905  0.3137  0.9070  0.2715
13319TIP3    H161448   5.460   3.699   5.833 -0.1089  1.2319  0.6387
13319TIP3    H261449   5.477   3.741   5.978  1.2071  1.9733  0.2846
13320TIP3   OH261450   1.092   3.069  12.260 -0.3676  0.2287 -0.4014
13320TIP3    H161451   1.125   2.980  12.272 -1.9614 -0.3430 -0.0880
13320TIP3    H261452   1.053   3.069  12.173  2.1336  1.4856 -1.6294
13321TIP3   OH261453   6.244   4.203   1.223  0.5584 -0.1070 -0.4318
13321TIP3    H161454   6.253   4.227   1.131  1.0240 -0.0484 -0.3728
13321TIP3    H261455   6.257   4.284   1.271 -1.0100  0.1303 -0.3597
13322TIP3   OH261456   5.503   2.546  14.785  0.0108  0.8200 -0.0323
13322TIP3    H161457   5.455   2.591  14.855  1.3432  1.6771  0.3770
13322TIP3    H261458   5.588   2.525  14.824  0.6056  0.8703 -1.2420
13323TIP3   OH261459   3.232   1.483  16.476 -0.3732  0.1122 -0.5223
13323TIP3    H161460   3.139   1.499  16.496 -0.8493 -1.1565 -1.5518
13323TIP3    H261461   3.230   1.418  16.405  1.3247 -2.6649  1.7341
13324TIP3   OH261462   0.093   4.305  16.034 -0.2099  0.1148 -0.4407
13324TIP3    H161463   0.162   4.276  15.973  0.9844 -0.6299  1.1778
13324TIP3    H261464   0.084   4.399  16.017 -0.9971 -0.2953 -2.7494
13325TIP3   OH261465   2.614   1.550   0.821  0.1865  0.7010 -0.1022
13325TIP3    H161466   2.598   1.567   0.729  0.7318  1.9355  0.0156
13325TIP3    H261467   2.681   1.614   0.847  1.2960 -0.7319  0.7341
13326TIP3   OH261468   0.938   6.281  16.740  0.1733 -0.0983 -0.5296
13326TIP3    H161469   0.950   6.285  16.645 -2.4710  0.1280 -0.9306
13326TIP3    H261470   0.920   6.371  16.765  1.1470 -0.1131  0.2581
13327TIP3   OH261471   6.107   3.376  15.836  0.2948 -0.6807 -0.0510
13327TIP3    H161472   6.116   3.281  15.828 -1.7572 -0.8050 -1.7732
13327TIP3    H261473   6.161   3.411  15.765  1.0494 -0.5408  0.5831
13328TIP3   OH261474   3.564   4.335  13.515 -0.0903  0.5472  0.4273
13328TIP3    H161475   3.514   4.328  13.433 -0.2229 -1.7090  0.6406
13328TIP3    H261476   3.655   4.323  13.489 -0.0536  0.6018  0.5308
13329TIP3   OH261477   4.413   1.839  10.895  0.1733 -0.1677  0.2144
13329TIP3    H161478   4.417   1.890  10.976 -2.4490  1.1760 -0.3855
13329TIP3    H261479   4.487   1.871  10.843  1.4007 -0.4610  1.6916
13330TIP3   OH261480   1.244   5.437  16.131  0.0355  0.2090  0.1000
13330TIP3    H161481   1.159   5.445  16.089  0.5341  1.8369 -0.6666
13330TIP3    H261482   1.295   5.381  16.073  0.5862  2.1043 -1.3435
13331TIP3   OH261483   0.110   2.155   3.744 -0.2126 -0.1025  0.6258
13331TIP3    H161484   0.092   2.161   3.651  0.8581 -0.7289  0.3626
13331TIP3    H261485   0.162   2.232   3.764  0.4153 -0.4902  0.4917
13332TIP3   OH261486   0.151   6.348  12.650  0.8282 -0.0420  0.0065
13332TIP3    H161487   0.162   6.400  12.571 -2.5346 -1.0665 -1.3281
13332TIP3    H261488   0.219   6.281  12.646  0.8914  0.1062 -1.8714
13333TIP3   OH261489   2.579   3.462  16.048 -0.0621 -0.4674 -0.3819
13333TIP3    H161490   2.640   3.413  16.104  0.2665 -1.9227 -1.9245
13333TIP3    H261491   2.516   3.500  16.109  1.4818 -0.2086  1.1335
13334TIP3   OH261492   4.210   6.367  14.719  0.5477  0.0019 -0.8165
13334TIP3    H161493   4.133   6.366  14.775  1.2633 -0.5240  0.1841
13334TIP3    H261494   4.284   6.376  14.779  1.2042  2.2775 -1.8731
13335TIP3   OH261495   6.816   5.111   6.181 -0.1653 -0.3779  0.2961
13335TIP3    H161496   6.802   5.205   6.169 -0.4248 -0.5370 -0.7481
13335TIP3    H261497   6.737   5.081   6.226 -0.9995 -0.4159 -1.1327
13336TIP3   OH261498   2.017   6.454  13.950 -0.2205  0.0894  0.7322
13336TIP3    H161499   1.989   6.544  13.966  1.0230  1.0333 -1.8686
13336TIP3    H261500   1.941   6.401  13.974 -1.1857  1.8279  1.7973
13337TIP3   OH261501   0.440   5.801   3.504  0.1152  0.2214 -0.4951
13337TIP3    H161502   0.349   5.828   3.509  0.1715  1.1813 -3.3258
13337TIP3    H261503   0.487   5.878   3.472  1.6405 -0.7832 -0.8093
13338TIP3   OH261504   0.533   5.701   1.222 -0.0274  0.0013  0.2666
13338TIP3    H161505   0.565   5.744   1.142 -0.1770 -1.5686 -0.6901
13338TIP3    H261506   0.541   5.767   1.290  1.5737  0.9143 -0.7411
13339TIP3   OH261507   3.895   2.599   3.092  0.2632 -0.3210  0.5286
13339TIP3    H161508   3.969   2.573   3.037 -0.2432  1.1572 -0.9297
13339TIP3    H261509   3.832   2.528   3.082  0.6397 -0.6014  0.0797
13340TIP3   OH261510   4.172   6.681  14.509  0.5925  0.4224 -0.2760
13340TIP3    H161511   4.157   6.704  14.417  0.1371  1.0838 -0.0415
13340TIP3    H261512   4.092   6.636  14.536  0.3006  1.1587  0.0916
13341TIP3   OH261513   4.835   3.017  11.790  0.3247 -0.2653 -0.1610
13341TIP3    H161514   4.866   3.087  11.733  0.9287  1.2519  1.9168
13341TIP3    H261515   4.913   2.990  11.839 -0.4878 -0.3372  1.1265
13342TIP3   OH261516   2.026   4.420   1.551 -0.5432 -0.0498 -0.0147
13342TIP3    H161517   1.986   4.490   1.499 -1.3086 -1.4533 -1.3650
13342TIP3    H261518   1.989   4.339   1.517  2.3560 -1.3565 -0.4005
13343TIP3   OH261519   3.725   4.061   0.913 -0.0540 -0.0212 -0.3485
13343TIP3    H161520   3.778   3.989   0.947 -1.8571 -1.2491  0.0115
13343TIP3    H261521   3.736   4.055   0.818 -2.1002 -2.4495 -0.5377
13344TIP3   OH261522   5.222   4.618  13.660 -0.1345 -0.2171  0.6795
13344TIP3    H161523   5.135   4.616  13.618  1.0889  1.5127 -2.3071
13344TIP3    H261524   5.241   4.712  13.669  1.0715 -0.5750  2.1759
13345TIP3   OH261525   3.874   0.078   1.065 -0.4728 -0.5321 -0.5631
13345TIP3    H161526   3.924   0.112   0.991  0.2921 -2.0873 -0.8041
13345TIP3    H261527   3.857  -0.013   1.043  0.0412 -1.1277  1.3085
13346TIP3   OH261528   2.312   4.282   3.398  0.8250 -0.1324  0.1745
13346TIP3    H161529   2.218   4.293   3.384  0.6819 -0.6299  0.6817
13346TIP3    H261530   2.344   4.243   3.317  0.7317  0.7262 -0.2866
13347TIP3   OH261531   1.754   1.558   2.542 -0.5167 -0.1593  0.4762
13347TIP3    H161532   1.689   1.564   2.612 -0.2014  0.9567  0.6996
13347TIP3    H261533   1.830   1.519   2.584 -0.1664  0.9432  0.8971
13348TIP3   OH261534   2.427   5.820   1.360 -0.1675  0.3966 -0.3775
13348TIP3    H161535   2.473   5.896   1.324 -1.9518  1.8753  0.2890
13348TIP3    H261536   2.493   5.751   1.364  2.0310  2.4425  0.7393
13349TIP3   OH261537   5.807   2.825   5.814 -0.2105 -0.5802  0.0189
13349TIP3    H161538   5.852   2.741   5.806  0.5764 -0.1085 -0.6562
13349TIP3    H261539   5.872   2.884   5.851 -1.1406 -0.5495  1.7055
13350TIP3   OH261540   5.370   5.676  17.010 -0.1195 -0.4714 -0.1295
13350TIP3    H161541   5.442   5.664  17.073  1.0875 -0.8018 -1.5036
13350TIP3    H261542   5.414   5.684  16.925 -1.6890  0.0719 -0.9272
13351TIP3   OH261543   1.207   2.213   0.917 -0.1142  1.0248 -0.0658
13351TIP3    H161544   1.200   2.220   0.822  1.5942 -0.7673 -0.3923
13351TIP3    H261545   1.298   2.187   0.932 -1.2122 -2.2599  1.7867
13352TIP3   OH261546   6.354   6.784   3.418  0.4518 -0.7321  0.5942
13352TIP3    H161547   6.438   6.831   3.411 -0.2306  0.4437 -0.1473
13352TIP3    H261548   6.313   6.819   3.497 -0.5440  0.8436 -0.5397
13353TIP3   OH261549   1.373   2.457  16.369  0.2218  0.4082 -0.5440
13353TIP3    H161550   1.317   2.533  16.381  0.8298  0.8578 -0.4721
13353TIP3    H261551   1.350   2.423  16.283  0.5878  1.2272 -0.9768
13354TIP3   OH261552   6.293   1.933   5.500 -0.4737 -0.1221 -0.3517
13354TIP3    H161553   6.295   1.838   5.513  0.5736 -0.0090  0.4606
13354TIP3    H261554   6.277   1.945   5.406 -0.4937 -1.1017 -0.4793
13355TIP3   OH261555   0.569   2.334  12.443 -0.3929  0.5212 -0.3145
13355TIP3    H161556   0.481   2.355  12.412 -0.0184  0.2121 -1.6374
13355TIP3    H261557   0.568   2.239  12.457  0.0193  0.3561 -1.3389
13356TIP3   OH261558   5.105   2.784  15.076 -0.1357  0.2213 -0.2694
13356TIP3    H161559   5.023   2.738  15.093  0.3110 -0.9974 -1.2269
13356TIP3    H261560   5.079   2.872  15.051 -1.1028  0.0512  0.0955
13357TIP3   OH261561   0.877   2.305   0.926 -0.4871  0.3816 -0.1529
13357TIP3    H161562   0.941   2.251   0.973 -1.2315 -0.9048 -0.5790
13357TIP3    H261563   0.928   2.379   0.893  1.2182 -1.4476 -1.9357
13358TIP3   OH261564   4.348   1.267  16.578 -0.1114 -0.1335  1.0289
13358TIP3    H161565   4.425   1.296  16.627 -1.4170 -1.8919  4.4592
13358TIP3    H261566   4.306   1.348  16.550  1.9166  0.8974  0.7664
13359TIP3   OH261567   3.445   4.234  14.571  0.2570 -0.0014  0.3325
13359TIP3    H161568   3.358   4.222  14.533  0.0399 -0.5845  0.9846
13359TIP3    H261569   3.433   4.302  14.637 -0.3003 -1.8164  2.1985
13360TIP3   OH261570   4.302   0.301   2.561  0.4651 -0.7582  0.3426
13360TIP3    H161571   4.271   0.386   2.530  1.3335 -0.8003 -0.6836
13360TIP3    H261572   4.227   0.243   2.549 -0.3306 -0.0371  1.6073
13361TIP3   OH261573   5.617   3.059  15.211  0.1233 -0.1209 -0.1670
13361TIP3    H161574   5.644   3.150  15.197 -1.2703  0.3807  0.2491
13361TIP3    H261575   5.600   3.025  15.123  0.9739 -0.1109 -0.3504
13362TIP3   OH261576   1.016   0.399  11.437 -0.2470 -0.1628 -0.1418
13362TIP3    H161577   1.083   0.341  11.400  1.1344  1.9244 -1.1423
13362TIP3    H261578   0.977   0.349  11.508  3.0053 -1.2034  1.0792
13363TIP3   OH261579   5.446   3.422  14.100  0.0505 -0.3821 -0.3577
13363TIP3    H161580   5.373   3.369  14.131  0.6402 -0.5491  0.8222
13363TIP3    H261581   5.521   3.392  14.152  0.2552  2.1355  0.9741
13364TIP3   OH261582   2.062   0.720   5.993  0.1437  0.0050 -0.3756
13364TIP3    H161583   2.031   0.809   6.012  0.8033  0.4555 -1.3395
13364TIP3    H261584   2.136   0.707   6.052  0.8482  0.5952 -1.0996
13365TIP3   OH261585   0.995   2.158  15.582  0.1201 -0.4486 -0.8585
13365TIP3    H161586   0.907   2.188  15.604 -0.6016 -2.4579 -0.8257
13365TIP3    H261587   1.053   2.216  15.630 -1.2787 -1.0690  1.7351
13366TIP3   OH261588   2.192   5.201   6.370 -0.2833 -0.0348  0.2468
13366TIP3    H161589   2.225   5.119   6.407  0.8805  0.5688  0.6188
13366TIP3    H261590   2.258   5.227   6.305 -2.5468 -1.3583 -2.8170
13367TIP3   OH261591   6.711   0.558  11.780 -0.6132 -0.6350  0.4290
13367TIP3    H161592   6.695   0.464  11.777 -0.4878 -0.6441  0.0205
13367TIP3    H261593   6.807   0.565  11.788 -0.5193 -0.5277 -0.6789
13368TIP3   OH261594   5.795   1.046   0.271 -0.3865  0.3788 -0.3385
13368TIP3    H161595   5.741   0.980   0.315  0.7586 -0.4383 -0.1246
13368TIP3    H261596   5.839   1.091   0.342 -0.1005  0.4355 -0.5517
13369TIP3   OH261597   6.813   3.011  11.061 -0.3146 -0.9769  0.4410
13369TIP3    H161598   6.762   2.937  11.095  0.6628 -2.2434 -0.7573
13369TIP3    H261599   6.889   2.971  11.020 -0.3021  0.6253 -1.2382
13370TIP3   OH261600   3.925   0.600  12.668  0.4065  0.2468 -0.7459
13370TIP3    H161601   3.949   0.572  12.757 -0.8719  1.9308  0.1981
13370TIP3    H261602   3.967   0.537  12.611 -0.4844 -2.2102  1.1314
13371TIP3   OH261603   6.619   2.455  16.294  0.2274  0.3254 -0.4476
13371TIP3    H161604   6.558   2.392  16.332  1.7996 -1.0435 -0.0504
13371TIP3    H261605   6.685   2.468  16.361 -0.2516  2.7820 -0.3702
13372TIP3   OH261606   3.096   1.567   1.518  0.3650  0.3936  0.0514
13372TIP3    H161607   3.024   1.511   1.490 -0.9804  1.5260  1.1310
13372TIP3    H261608   3.173   1.531   1.474 -0.5548 -1.8601  0.1586
13373TIP3   OH261609   4.776   3.529   3.756  0.0643  0.2423 -0.0181
13373TIP3    H161610   4.694   3.480   3.755  0.3789 -0.3133 -1.7480
13373TIP3    H261611   4.842   3.466   3.783  0.4519 -0.3307 -2.1421
13374TIP3   OH261612   2.705   0.430  16.146  0.5213  0.4775 -0.2918
13374TIP3    H161613   2.776   0.482  16.184  0.4757 -0.1973  0.7623
13374TIP3    H261614   2.674   0.482  16.072  0.1423  2.1681  1.0097
13375TIP3   OH261615   4.193   5.643  11.959 -0.3177  0.1296  0.1094
13375TIP3    H161616   4.199   5.710  12.028  0.1167 -0.9852  1.1902
13375TIP3    H261617   4.121   5.587  11.987  0.3171 -0.7404  0.0465
13376TIP3   OH261618   2.258   0.376   1.692  0.6308  0.7065 -0.0157
13376TIP3    H161619   2.254   0.471   1.679 -1.9498  0.7066  0.2461
13376TIP3    H261620   2.171   0.345   1.666  1.4589 -1.6276 -0.2244
13377TIP3   OH261621   3.294   5.775   4.165  0.6408 -0.4699  0.0471
13377TIP3    H161622   3.350   5.719   4.111 -0.4915 -1.6870  0.0886
13377TIP3    H261623   3.219   5.796   4.108  0.7408  0.4809  0.2500
13378TIP3   OH261624   0.411   2.653   5.799 -0.0265  0.2780  0.6115
13378TIP3    H161625   0.408   2.695   5.885 -1.9054  1.5229 -0.0176
13378TIP3    H261626   0.446   2.720   5.740  1.3604 -0.6043  0.3781
13379TIP3   OH261627   4.033   3.107   5.759 -0.2464 -0.4252  0.0171
13379TIP3    H161628   4.036   3.072   5.848 -0.1301 -0.3855  0.0300
13379TIP3    H261629   3.963   3.172   5.761  1.2887  1.3034  0.7251
13380TIP3   OH261630   3.352   5.896   1.537  0.2613  0.7482  0.1494
13380TIP3    H161631   3.288   5.967   1.534  0.8653  1.2957 -2.4380
13380TIP3    H261632   3.400   5.904   1.455  0.0750 -2.9649 -0.4594
13381TIP3   OH261633   5.331   0.214  15.159 -0.7362  0.2190  0.1987
13381TIP3    H161634   5.303   0.134  15.203  0.3019  0.3906  1.2108
13381TIP3    H261635   5.408   0.243  15.208 -0.4185  1.2242 -0.8432
13382TIP3   OH261636   3.755   5.639  13.188 -0.3849  0.2805 -0.0840
13382TIP3    H161637   3.693   5.709  13.166 -2.1215 -0.0599  3.1794
13382TIP3    H261638   3.731   5.566  13.131 -0.1209  1.5171 -1.8470
13383TIP3   OH261639   5.056   3.569   3.472 -0.0970  0.0893 -0.5626
13383TIP3    H161640   5.109   3.649   3.468  1.6989 -1.0426 -0.8580
13383TIP3    H261641   5.090   3.522   3.548  0.4727 -1.4001 -1.6878
13384TIP3   OH261642   4.972   6.770   2.035  0.0547  0.2568  0.2022
13384TIP3    H161643   5.055   6.817   2.042 -0.0316  0.3704  0.5081
13384TIP3    H261644   4.913   6.819   2.092  0.1627 -0.6418  1.1179
13385TIP3   OH261645   6.378   0.673   1.434 -0.4650 -0.0880  0.6441
13385TIP3    H161646   6.366   0.580   1.453 -1.9379  0.2196  1.4019
13385TIP3    H261647   6.457   0.698   1.482  0.3048 -1.0582 -0.0657
13386TIP3   OH261648   5.773   2.940  15.570 -0.5676 -0.6036  0.0468
13386TIP3    H161649   5.693   2.989  15.550 -0.8211 -1.0209  0.0245
13386TIP3    H261650   5.744   2.849  15.578 -0.2218 -0.6550  0.8216
13387TIP3   OH261651   3.961   2.515  12.986  0.8449  0.0705 -0.2499
13387TIP3    H161652   3.939   2.608  12.976  0.3493 -0.1461 -1.3380
13387TIP3    H261653   4.057   2.513  12.983  0.8785  0.5795  0.2069
13388TIP3   OH261654   0.635   2.065  12.148 -0.5309 -0.2091  0.2288
13388TIP3    H161655   0.619   2.156  12.125  0.2633 -0.0796  0.1844
13388TIP3    H261656   0.676   2.027  12.070 -1.5557 -0.8059 -0.0390
13389TIP3   OH261657   6.126   4.685  10.455 -0.5770  0.0158 -0.1242
13389TIP3    H161658   6.067   4.647  10.391  0.8328  0.1825 -1.5803
13389TIP3    H261659   6.196   4.621  10.464  0.4402  1.0291 -0.5592
13390TIP3   OH261660   2.202   2.207   4.496  0.3210 -0.7137 -0.1382
13390TIP3    H161661   2.278   2.165   4.455 -0.6091 -1.3062 -1.2942
13390TIP3    H261662   2.220   2.200   4.590  3.1742  1.8968 -0.3212
13391TIP3   OH261663   2.190   5.613  11.967 -0.0900 -0.4220 -0.2748
13391TIP3    H161664   2.123   5.556  12.005 -0.4056  0.8460  1.1813
13391TIP3    H261665   2.153   5.643  11.885 -2.5526  2.2406  1.5914
13392TIP3   OH261666   2.152   1.530  16.477  0.0840  0.2596 -0.0686
13392TIP3    H161667   2.143   1.553  16.569  1.3419  0.9564 -0.0976
13392TIP3    H261668   2.172   1.436  16.477 -1.5571 -0.1068  0.2561
13393TIP3   OH261669   5.009   4.116   1.072 -0.2554  1.0586 -0.2253
13393TIP3    H161670   5.014   4.174   1.148 -1.7079  1.1012 -0.1317
13393TIP3    H261671   5.057   4.038   1.098  0.8249  1.7973  0.0433
13394TIP3   OH261672   5.458   4.471  15.748 -0.4811 -0.3280 -0.4345
13394TIP3    H161673   5.548   4.445  15.728 -0.0618  1.0141 -0.3585
13394TIP3    H261674   5.405   4.396  15.720  0.6416 -1.1128 -0.5385
13395TIP3   OH261675   5.667   0.535  16.988 -0.3828  0.4894  0.1387
13395TIP3    H161676   5.670   0.581  17.072 -1.1081  0.4849  0.1810
13395TIP3    H261677   5.578   0.498  16.985 -0.7166  1.3329 -1.0694
13396TIP3   OH261678   4.794   2.734   0.718  0.0746  0.4559  0.2710
13396TIP3    H161679   4.883   2.768   0.713 -0.1043  0.9867  0.6049
13396TIP3    H261680   4.738   2.812   0.709 -0.3426  0.2573  1.0457
13397TIP3   OH261681   6.440   4.077  17.159  0.2284 -0.6539  0.5639
13397TIP3    H161682   6.482   4.020  17.224 -1.4751 -1.2149  1.2475
13397TIP3    H261683   6.398   4.017  17.098  1.7712 -0.1215 -1.0884
13398TIP3   OH261684   1.991   1.481  11.580 -0.5652 -0.0792 -0.2327
13398TIP3    H161685   2.050   1.436  11.640 -0.3073 -0.6459 -0.8866
13398TIP3    H261686   2.048   1.539  11.529 -0.6545 -0.2019 -0.4752
13399TIP3   OH261687   0.996   1.517  13.609  0.4628 -0.2142 -0.2390
13399TIP3    H161688   0.999   1.608  13.638  0.2919  0.0985 -1.1702
13399TIP3    H261689   1.087   1.489  13.608  0.8137  0.7848 -2.4523
13400TIP3   OH261690   5.967   3.725  14.263 -0.4573  0.3074  0.1687
13400TIP3    H161691   6.062   3.721  14.251 -0.3779 -1.3981  1.1409
13400TIP3    H261692   5.931   3.682  14.185 -0.4968  1.5319 -0.5223
13401TIP3   OH261693   5.756   3.864  14.392  0.2144  0.8889 -0.2659
13401TIP3    H161694   5.829   3.899  14.442 -0.8835  1.8154  0.7514
13401TIP3    H261695   5.796   3.801  14.331  2.2951  3.6511 -2.0164
13402TIP3   OH261696   5.570   6.202  13.510  0.3965  0.3834  0.3716
13402TIP3    H161697   5.632   6.268  13.542  0.2484 -0.0019  1.5080
13402TIP3    H261698   5.601   6.120  13.549  0.7129 -0.2715 -1.2123
13403TIP3   OH261699   5.558   4.610   3.275 -0.0177 -0.2033  0.0154
13403TIP3    H161700   5.569   4.546   3.204 -0.0919  1.1527 -1.2607
13403TIP3    H261701   5.638   4.602   3.327  0.2027 -0.9620 -0.4169
13404TIP3   OH261702   6.119   3.622   5.767 -0.1645  0.0482  0.2711
13404TIP3    H161703   6.089   3.634   5.857 -0.6856  0.0169  0.1006
13404TIP3    H261704   6.122   3.710   5.731 -0.4669  0.0110  0.1549
13405TIP3   OH261705   0.426   2.052   2.867 -0.3202 -0.1420  0.4050
13405TIP3    H161706   0.353   2.079   2.923 -0.9259 -0.1233 -0.3810
13405TIP3    H261707   0.474   2.133   2.850 -1.0488  0.1270 -0.4004
13406TIP3   OH261708   6.108   5.102   3.772  0.1184 -0.3942 -0.2927
13406TIP3    H161709   6.113   5.027   3.831 -1.0188  0.2346  0.6588
13406TIP3    H261710   6.186   5.096   3.717  0.1739 -2.1116 -0.0588
13407TIP3   OH261711   6.661   0.739   4.578 -0.0933  0.6026  0.8802
13407TIP3    H161712   6.632   0.754   4.668  0.8941  1.0576  1.1356
13407TIP3    H261713   6.733   0.801   4.565  0.0554  0.2504 -0.0871
13408TIP3   OH261714   6.768   1.568   1.394  0.1969 -0.1971 -0.1578
13408TIP3    H161715   6.790   1.515   1.471  0.3603  1.5117  1.0142
13408TIP3    H261716   6.853   1.590   1.355  0.0803 -2.1065 -1.6198
13409TIP3   OH261717   1.101   4.077   3.545 -0.1594 -0.6208  0.3182
13409TIP3    H161718   1.101   4.029   3.627 -0.1712 -0.4568  0.4157
13409TIP3    H261719   1.010   4.075   3.515 -0.1304 -0.7961  0.2397
13410TIP3   OH261720   3.239   1.726   5.865  0.2125 -0.2523  0.1712
13410TIP3    H161721   3.240   1.646   5.916  0.1626 -0.2075  0.2432
13410TIP3    H261722   3.328   1.734   5.831  0.4008  0.0076  0.7084
13411TIP3   OH261723   0.668   6.796  14.085 -0.0289 -0.2119  0.4261
13411TIP3    H161724   0.683   6.785  13.991 -1.2597  0.5690  0.1151
13411TIP3    H261725   0.634   6.886  14.093  1.0835  0.1277  1.7496
13412TIP3   OH261726   6.551   3.694   3.867 -0.1201  0.9406  0.1162
13412TIP3    H161727   6.469   3.734   3.897  0.0522  0.2833  1.5897
13412TIP3    H261728   6.610   3.767   3.854 -1.8795  1.8553 -4.5809
13413TIP3   OH261729   1.023   5.837  12.475  0.3523  0.4408  0.5258
13413TIP3    H161730   0.967   5.760  12.471  1.8586 -0.6446 -1.0517
13413TIP3    H261731   0.965   5.910  12.451  0.0603 -0.9619 -3.8525
13414TIP3   OH261732   4.665   6.616  14.951 -0.5064  0.1980 -0.6185
13414TIP3    H161733   4.711   6.558  14.890  0.4955 -1.3523  1.4637
13414TIP3    H261734   4.643   6.560  15.026  0.6120  2.4656  1.5824
13415TIP3   OH261735   1.153   1.847   3.671 -0.0815  0.1444 -0.0657
13415TIP3    H161736   1.201   1.774   3.710  0.0051  0.5836  0.6821
13415TIP3    H261737   1.160   1.918   3.736  1.0403  1.2972 -1.3881
13416TIP3   OH261738   4.183   5.546   4.609 -0.1458 -0.6458 -0.5366
13416TIP3    H161739   4.171   5.468   4.555 -1.2653 -1.4505  0.7780
13416TIP3    H261740   4.201   5.616   4.547 -1.3608 -1.5136 -1.9493
13417TIP3   OH261741   3.825   2.397   6.270 -0.0707 -0.3311  0.4527
13417TIP3    H161742   3.816   2.486   6.306  0.0385 -0.3627  0.5568
13417TIP3    H261743   3.913   2.370   6.294 -0.4997 -0.9066  1.4111
13418TIP3   OH261744   2.776   4.370  11.785 -0.0781 -0.1598  0.5756
13418TIP3    H161745   2.865   4.387  11.753 -0.9627  1.9277 -0.9499
13418TIP3    H261746   2.724   4.354  11.706 -1.1755 -0.8796  1.4111
13419TIP3   OH261747   1.618   4.070  15.572 -0.0821 -0.5952 -0.1544
13419TIP3    H161748   1.669   4.092  15.651 -0.4515 -0.2789 -0.0012
13419TIP3    H261749   1.683   4.038  15.510  0.8670  2.9899 -1.2177
13420TIP3   OH261750   1.909   3.082  13.956  0.0927  0.0574 -0.3010
13420TIP3    H161751   1.953   3.024  14.017 -0.1372 -0.8604 -0.9959
13420TIP3    H261752   1.898   3.164  14.005 -0.4204 -0.7676  1.0068
13421TIP3   OH261753   2.076   5.734   3.993 -0.1971 -0.0666 -0.5161
13421TIP3    H161754   2.028   5.682   4.056 -0.5191 -1.1071 -1.5889
13421TIP3    H261755   2.041   5.823   4.003  0.3541 -0.0180  1.3202
13422TIP3   OH261756   4.957   5.456  16.294  0.5590  0.0206  0.0315
13422TIP3    H161757   4.865   5.482  16.284 -0.5208 -3.4677 -0.5047
13422TIP3    H261758   4.980   5.483  16.383 -1.0899  0.6975  0.2900
13423TIP3   OH261759   6.365   1.221  16.327 -0.5759  0.4341  0.2378
13423TIP3    H161760   6.367   1.136  16.282  0.8521 -0.1179  1.2571
13423TIP3    H261761   6.456   1.237  16.351 -0.7986  2.3401 -0.0206
13424TIP3   OH261762   4.053   4.694  14.126 -0.3798  0.4012  0.5314
13424TIP3    H161763   3.969   4.740  14.128 -0.3305  0.6262  4.2208
13424TIP3    H261764   4.030   4.602  14.123 -0.5685  0.4475 -1.8979
13425TIP3   OH261765   4.702   4.998   1.534  0.1497  0.1843  0.1409
13425TIP3    H161766   4.767   4.985   1.602 -0.9717 -0.9449  1.0537
13425TIP3    H261767   4.663   5.084   1.553 -0.9258 -0.5929  1.6539
13426TIP3   OH261768   4.553   2.754  12.097  0.3143  0.2962  0.5058
13426TIP3    H161769   4.618   2.802  12.046  2.3450 -1.9729  0.7769
13426TIP3    H261770   4.501   2.822  12.139  1.1885  2.2218 -1.3496
13427TIP3   OH261771   1.375   0.201   1.427  0.0457 -0.3957  0.2383
13427TIP3    H161772   1.333   0.159   1.502 -0.3858 -0.9214 -0.2856
13427TIP3    H261773   1.316   0.274   1.405  0.0512 -0.3827  0.2663
13428TIP3   OH261774   5.170   4.531   3.456  0.4327 -0.4630 -0.0522
13428TIP3    H161775   5.218   4.610   3.430  1.5797 -0.7171  1.2063
13428TIP3    H261776   5.117   4.559   3.531  0.3159 -0.7349 -0.0330
13429TIP3   OH261777   0.061   2.420   1.864 -0.0437  0.1195 -0.8743
13429TIP3    H161778   0.089   2.511   1.878  0.7065 -0.2209 -0.0742
13429TIP3    H261779   0.068   2.380   1.951 -1.0162 -0.5349 -1.0842
13430TIP3   OH261780   2.959   6.237   3.158  0.5054  0.3648 -0.3634
13430TIP3    H161781   2.887   6.175   3.168  1.0763  0.0196  2.3770
13430TIP3    H261782   2.940   6.307   3.221  2.8251 -0.0547  0.9121
13431TIP3   OH261783   0.428   3.071   3.736 -0.0359 -0.2329  0.8792
13431TIP3    H161784   0.430   3.095   3.828 -0.0414  2.3332  0.2791
13431TIP3    H261785   0.472   3.143   3.691 -2.4098 -0.0162 -1.3714
13432TIP3   OH261786   1.519   6.410  13.418  0.1715  0.3960 -0.0746
13432TIP3    H161787   1.591   6.355  13.447 -2.1678 -3.0979 -0.3248
13432TIP3    H261788   1.480   6.363  13.344 -2.6211  1.8540  0.3150
13433TIP3   OH261789   5.496   0.291   3.148  0.7399 -0.0725  0.2973
13433TIP3    H161790   5.506   0.298   3.243  1.6087  2.5522  0.0750
13433TIP3    H261791   5.512   0.198   3.129 -0.3667 -0.8547  2.7730
13434TIP3   OH261792   0.051   5.579  16.163  0.1782  0.1988  0.2731
13434TIP3    H161793  -0.041   5.594  16.187 -0.0565 -0.3026 -0.2709
13434TIP3    H261794   0.056   5.485  16.148  0.5103  0.3718 -0.7795
13435TIP3   OH261795   5.655   6.023   4.888 -0.1476  0.6083  0.3909
13435TIP3    H161796   5.608   6.026   4.805 -0.5703  0.0824  0.6024
13435TIP3    H261797   5.707   5.942   4.882  0.0214  0.7064  0.5324
13436TIP3   OH261798   6.654   3.797   0.577  0.6086 -0.5559 -0.4333
13436TIP3    H161799   6.698   3.880   0.597 -0.6527 -0.2315  1.2747
13436TIP3    H261800   6.625   3.806   0.487 -2.9809  2.6514  0.7813
13437TIP3   OH261801   6.113   3.642   6.025 -0.0361  0.6352  0.3104
13437TIP3    H161802   6.104   3.606   6.113  2.6543  0.3524  0.5725
13437TIP3    H261803   6.179   3.711   6.034  1.1670 -0.1686 -1.6071
13438TIP3   OH261804   0.866   4.416  17.048  0.0398  0.1925 -0.6413
13438TIP3    H161805   0.856   4.511  17.045  2.6539  0.5399 -0.8984
13438TIP3    H261806   0.784   4.382  17.011 -1.0798  2.2984 -0.2460
13439TIP3   OH261807   6.714   4.912   2.529 -0.1247 -0.3405 -0.4545
13439TIP3    H161808   6.771   4.927   2.454 -0.7452 -1.1563 -1.1150
13439TIP3    H261809   6.628   4.942   2.500 -0.4334 -0.9560 -0.2066
13440TIP3   OH261810   3.171   0.629  13.072  0.5861 -0.1260  0.4297
13440TIP3    H161811   3.239   0.677  13.121  0.1218 -0.4105  1.3799
13440TIP3    H261812   3.220   0.580  13.006  1.4402 -1.0904  1.7231
13441TIP3   OH261813   4.682   2.521  14.131 -0.0029  0.5285 -0.2810
13441TIP3    H161814   4.661   2.610  14.159 -1.6798  0.2528 -0.5831
13441TIP3    H261815   4.656   2.466  14.205  1.3019  0.2813  0.0233
13442TIP3   OH261816   1.612   5.635   5.710 -0.2608 -0.1467  0.2920
13442TIP3    H161817   1.593   5.728   5.693  0.8434 -0.0640 -0.5930
13442TIP3    H261818   1.557   5.588   5.647  0.9963  0.0243 -0.9847
13443TIP3   OH261819   2.927   0.674   4.177  0.1895  0.1850  0.1438
13443TIP3    H161820   2.892   0.727   4.106 -1.7302  0.5860  1.3168
13443TIP3    H261821   2.952   0.592   4.135  0.6852  1.0205 -1.2545
13444TIP3   OH261822   6.525   4.417   1.067  0.2105 -0.6774 -0.3567
13444TIP3    H161823   6.499   4.461   0.987  1.3496  0.2210 -0.2704
13444TIP3    H261824   6.566   4.335   1.038  1.5596  0.1163 -0.7999
13445TIP3   OH261825   1.016   4.642   0.762  0.3636  0.1695  0.4850
13445TIP3    H161826   0.993   4.602   0.846  3.3269 -1.0931  0.8181
13445TIP3    H261827   1.080   4.582   0.723  0.4708  1.6501 -1.8354
13446TIP3   OH261828   3.981   5.194   3.916  0.2015 -0.4238  0.3768
13446TIP3    H161829   4.026   5.129   3.970  2.6522  0.5192 -0.3498
13446TIP3    H261830   4.011   5.175   3.827 -1.1291  0.0785 -0.1980
13447TIP3   OH261831   1.212   3.409   3.663  0.3137 -0.1709 -0.0369
13447TIP3    H161832   1.294   3.418   3.711 -0.0040  2.1901  0.1810
13447TIP3    H261833   1.202   3.493   3.618 -0.1064 -1.7426 -3.1383
13448TIP3   OH261834   2.167   0.543   4.480  1.2886  0.2202  0.3835
13448TIP3    H161835   2.213   0.459   4.475  2.8610  1.0198  0.9974
13448TIP3    H261836   2.230   0.607   4.448  0.6257  1.3584  1.2885
13449TIP3   OH261837   3.829   1.918  15.612  0.6152 -0.4813 -0.4733
13449TIP3    H161838   3.921   1.904  15.589  0.7688 -0.7109  0.2677
13449TIP3    H261839   3.789   1.950  15.531  1.4755  0.2114 -0.6376
13450TIP3   OH261840   4.724   0.290   2.779  0.1764 -0.1154 -0.3480
13450TIP3    H161841   4.766   0.347   2.714 -0.9811  1.1135 -0.0812
13450TIP3    H261842   4.642   0.335   2.799  0.3203 -0.6669  1.6658
13451TIP3   OH261843   2.682   1.410  17.236  0.4594 -1.2216 -0.1190
13451TIP3    H161844   2.727   1.327  17.220 -0.4984 -1.5083 -1.4910
13451TIP3    H261845   2.750   1.467  17.272  1.6837 -1.9207 -1.2351
13452TIP3   OH261846   1.961   5.907   1.028  0.2764 -0.4107 -0.0888
13452TIP3    H161847   1.879   5.935   0.988  0.3259  1.0587  0.7235
13452TIP3    H261848   1.938   5.829   1.079 -0.5566 -0.1922 -0.1148
13453TIP3   OH261849   6.134   5.429  15.007  0.4214  0.4415 -0.3482
13453TIP3    H161850   6.044   5.415  14.977 -0.1588 -2.0234  2.1666
13453TIP3    H261851   6.136   5.522  15.033 -1.1250  0.7566 -1.2263
13454TIP3   OH261852   2.444   1.219   4.848 -0.2085  0.1696 -0.3777
13454TIP3    H161853   2.429   1.132   4.886  0.0155  0.1050 -0.4380
13454TIP3    H261854   2.357   1.248   4.820 -0.3014  0.0148 -0.2525
13455TIP3   OH261855   2.615   4.552  14.869 -0.0919 -0.4581 -0.8032
13455TIP3    H161856   2.556   4.586  14.937  0.2923 -0.5337 -0.4280
13455TIP3    H261857   2.700   4.593  14.889  0.1792 -1.0033 -0.8393
13456TIP3   OH261858   5.187   6.653   6.487 -0.9377 -0.5629  0.3182
13456TIP3    H161859   5.126   6.623   6.419 -0.0951 -2.4748  0.3421
13456TIP3    H261860   5.214   6.572   6.531  0.2420  0.4331  1.4697
13457TIP3   OH261861   2.066   0.352  12.998 -0.5659  0.4681  0.2730
13457TIP3    H161862   2.144   0.394  13.032 -1.0761  0.7557  1.1161
13457TIP3    H261863   2.099   0.279  12.944  0.2873 -1.1242  2.7704
13458TIP3   OH261864   2.935   5.495  13.251  0.0545 -0.7099  0.1408
13458TIP3    H161865   2.847   5.461  13.238 -0.3607  0.4204 -0.1546
13458TIP3    H261866   2.940   5.572  13.194  2.3911 -2.5693 -2.4491
13459TIP3   OH261867   0.583   4.393  14.071  0.3919 -0.4515 -0.0396
13459TIP3    H161868   0.678   4.401  14.065  0.7337 -1.0053  2.9240
13459TIP3    H261869   0.563   4.414  14.163 -2.0628 -2.5407  0.0243
13460TIP3   OH261870   5.113   3.344   0.686  0.6059  0.7972  0.1503
13460TIP3    H161871   5.056   3.420   0.698 -0.8145  0.1783 -2.0681
13460TIP3    H261872   5.054   3.269   0.693  1.3280  0.0848 -1.0825
13461TIP3   OH261873   5.194   0.439  15.019 -0.3076 -0.3875 -0.0903
13461TIP3    H161874   5.254   0.472  14.952 -0.2314  2.6143  1.2903
13461TIP3    H261875   5.252   0.396  15.083  0.0567  0.0335 -0.1311
13462TIP3   OH261876   1.365   2.000   0.132  0.5088 -0.0057 -0.6048
13462TIP3    H161877   1.307   1.945   0.079 -0.0624 -0.6667  0.6629
13462TIP3    H261878   1.369   2.083   0.085 -0.9693 -0.1643 -1.0467
13463TIP3   OH261879   1.124   5.484   5.610  0.7325 -0.4601 -0.3166
13463TIP3    H161880   1.132   5.416   5.677  0.0269  0.1105  0.3718
13463TIP3    H261881   1.029   5.496   5.601  0.8464  0.0602 -0.8203
13464TIP3   OH261882   1.002   4.386  12.213 -0.2423 -0.6895 -0.0442
13464TIP3    H161883   0.927   4.415  12.264 -0.9095 -0.8392 -0.9233
13464TIP3    H261884   0.967   4.319  12.154  0.1300  0.6410 -1.8553
13465TIP3   OH261885   6.099   4.580   0.813 -0.1660  0.4319 -0.5568
13465TIP3    H161886   6.066   4.513   0.872 -2.0181  1.0439 -0.8307
13465TIP3    H261887   6.101   4.537   0.727 -0.8147  0.5566 -0.6368
13466TIP3   OH261888   0.167   4.437   1.222 -0.0298  0.1142 -0.1342
13466TIP3    H161889   0.147   4.529   1.242 -2.0791  0.0035 -1.3260
13466TIP3    H261890   0.119   4.388   1.289 -0.2466 -0.1062 -0.4506
13467TIP3   OH261891   3.775   5.703  12.041  0.2106 -0.1550  0.2526
13467TIP3    H161892   3.826   5.755  11.979  0.4650 -0.7878 -0.0654
13467TIP3    H261893   3.684   5.729  12.024  0.2794 -0.3041 -0.3719
13468TIP3   OH261894   1.044   4.323   3.028 -0.0830 -0.6550  0.5064
13468TIP3    H161895   1.091   4.376   3.092 -1.4449  0.7990  0.3465
13468TIP3    H261896   1.108   4.306   2.959  0.5956  0.1193  0.9288
13469TIP3   OH261897   6.555   2.630   6.001 -0.0414 -0.1239 -0.0346
13469TIP3    H161898   6.464   2.618   6.028  0.3154 -0.3888  1.1179
13469TIP3    H261899   6.606   2.612   6.080  0.9247  2.1154 -0.0630
13470TIP3   OH261900   6.241   4.660   2.444  0.0546  0.0193 -0.1013
13470TIP3    H161901   6.289   4.739   2.466  3.8376 -2.1840  0.4455
13470TIP3    H261902   6.229   4.665   2.349  3.5690 -0.2491 -0.6916
13471TIP3   OH261903   0.786   1.241  11.170 -0.1400  0.4995 -0.0603
13471TIP3    H161904   0.839   1.245  11.090 -1.5329 -1.7483 -1.2136
13471TIP3    H261905   0.696   1.257  11.140 -0.8435 -1.5115  0.7930
13472TIP3   OH261906   6.396   4.668   1.484 -0.1070  0.1139  0.1109
13472TIP3    H161907   6.454   4.692   1.411 -0.3954 -1.3266 -0.6396
13472TIP3    H261908   6.311   4.704   1.460 -0.0437  0.2316  0.0619
13473TIP3   OH261909   1.783   3.126  10.398 -0.4777  0.0211 -0.3706
13473TIP3    H161910   1.717   3.194  10.385 -1.1747 -0.8815 -1.7316
13473TIP3    H261911   1.832   3.123  10.316  0.0157 -0.6268 -0.0619
13474TIP3   OH261912   6.760   2.448   0.844 -0.3345 -0.2629 -0.0297
13474TIP3    H161913   6.771   2.428   0.751 -0.1889  1.8108 -0.5159
13474TIP3    H261914   6.829   2.512   0.863 -0.1681 -0.8850  1.5936
13475TIP3   OH261915   6.277   5.543  17.132  0.1825  0.2640 -0.0461
13475TIP3    H161916   6.297   5.560  17.224  0.9862  0.2484 -0.2096
13475TIP3    H261917   6.358   5.563  17.086 -0.2027  0.2303 -0.7495
13476TIP3   OH261918   0.653   3.175   5.876  0.7105  0.3881 -0.1359
13476TIP3    H161919   0.663   3.081   5.892 -0.9796  0.1369 -0.3762
13476TIP3    H261920   0.740   3.205   5.851  1.4954 -0.9111  0.9409
13477TIP3   OH261921   4.563   6.367  13.220  0.2682 -0.1647 -0.5826
13477TIP3    H161922   4.527   6.455  13.231 -1.8560 -0.8001 -1.7608
13477TIP3    H261923   4.524   6.316  13.292 -0.0726 -0.5372 -1.0182
13478TIP3   OH261924   0.656   2.603  14.835 -0.7014 -0.0774  0.0858
13478TIP3    H161925   0.566   2.572  14.822 -0.9013  0.3093  0.5081
13478TIP3    H261926   0.689   2.620  14.747 -1.2306  0.2960 -0.0443
13479TIP3   OH261927   0.577   5.948   4.160  0.0655 -0.4769  0.6172
13479TIP3    H161928   0.513   6.017   4.144 -0.6524 -1.2908 -0.1500
13479TIP3    H261929   0.535   5.890   4.223  0.4679 -0.4765  0.8884
13480TIP3   OH261930   5.946   0.952   3.148 -0.1362  0.3527 -0.1435
13480TIP3    H161931   5.888   0.899   3.093 -0.2609 -0.5194  0.8032
13480TIP3    H261932   6.024   0.965   3.094  0.5363 -2.0998  0.1069
13481TIP3   OH261933   5.742   0.633  13.370  0.4949 -0.0041 -0.1868
13481TIP3    H161934   5.672   0.671  13.424 -1.6363 -2.2590 -1.1341
13481TIP3    H261935   5.809   0.701  13.367 -0.5924  1.4020  2.7349
13482TIP3   OH261936   2.473   5.298  16.441 -0.8730 -0.2561  0.4747
13482TIP3    H161937   2.412   5.271  16.371 -0.2684  2.2635 -1.1799
13482TIP3    H261938   2.416   5.330  16.511 -1.4942 -1.0334  0.3325
13483TIP3   OH261939   6.781   3.124   0.982  0.1923 -0.1301 -0.6970
13483TIP3    H161940   6.869   3.161   0.990  0.3470 -0.5743 -0.2905
13483TIP3    H261941   6.737   3.152   1.063  0.8578 -2.2734  0.4622
13484TIP3   OH261942   4.437   3.907  14.739  0.2260 -0.4211 -0.1992
13484TIP3    H161943   4.525   3.896  14.775  0.9138  1.5081 -1.1553
13484TIP3    H261944   4.378   3.893  14.814  1.3101 -1.7851  0.4411
13485TIP3   OH261945   2.858   0.439   5.328 -0.3625  0.5429 -0.3249
13485TIP3    H161946   2.822   0.484   5.405 -0.0601  0.9913 -0.4427
13485TIP3    H261947   2.884   0.352   5.361 -0.0345  0.8077  0.1322
13486TIP3   OH261948   2.098   6.533  15.108  0.1136  0.2371  0.2646
13486TIP3    H161949   2.194   6.528  15.103  0.0963  0.2125 -0.0763
13486TIP3    H261950   2.076   6.478  15.184  0.4122  0.8053  0.7723
13487TIP3   OH261951   4.438   0.906  13.121 -0.2338  0.4131 -0.0942
13487TIP3    H161952   4.471   0.918  13.032 -1.1108 -0.2276 -0.5177
13487TIP3    H261953   4.379   0.831  13.115 -0.0281  0.1375  1.1062
13488TIP3   OH261954   2.539   4.321  12.029 -0.1996  0.6287 -0.0787
13488TIP3    H161955   2.606   4.323  12.097 -0.5313  1.0569  0.2409
13488TIP3    H261956   2.575   4.264  11.961  0.6428  1.1267 -0.0653
13489TIP3   OH261957   4.340   2.975   3.413  0.7315 -0.8460  0.0110
13489TIP3    H161958   4.356   2.891   3.455  1.0203 -1.5297 -1.3859
13489TIP3    H261959   4.404   3.034   3.452 -1.2314 -0.4828  3.0221
13490TIP3   OH261960   0.899   1.350  16.752  0.4934 -0.1116 -0.3811
13490TIP3    H161961   0.882   1.356  16.846 -0.0241 -0.4392 -0.4507
13490TIP3    H261962   0.956   1.424  16.733 -1.0995  1.2187 -0.1965
13491TIP3   OH261963   0.304   5.241  16.365  0.3388 -0.0770 -0.0040
13491TIP3    H161964   0.313   5.305  16.294  0.0105 -1.6778 -1.5547
13491TIP3    H261965   0.209   5.233  16.379  0.3606 -0.4276 -0.0352
13492TIP3   OH261966   6.426   1.087  13.723  0.6302 -0.1489 -0.2580
13492TIP3    H161967   6.374   1.027  13.670 -1.0346 -0.8006  1.9435
13492TIP3    H261968   6.517   1.060  13.707  0.0878 -1.4266 -1.4361
13493TIP3   OH261969   0.433   2.054  13.349 -0.2745 -0.0635 -0.1607
13493TIP3    H161970   0.396   2.090  13.268 -2.0152 -0.6609  0.3177
13493TIP3    H261971   0.357   2.034  13.403  0.7808 -1.1534  0.9925
13494TIP3   OH261972   2.273   1.519   0.803 -0.4061  0.9979 -0.0408
13494TIP3    H161973   2.272   1.426   0.826 -1.0426  0.9058 -0.4148
13494TIP3    H261974   2.296   1.520   0.710  3.1544  1.4071  0.7000
13495TIP3   OH261975   1.906   0.428  11.473  0.9111  0.3929 -0.4097
13495TIP3    H161976   1.858   0.423  11.390 -0.0978  0.0806  0.1778
13495TIP3    H261977   1.896   0.520  11.500  0.7073  0.3497 -0.3329
13496TIP3   OH261978   1.569   3.835   0.384 -0.4348 -0.2700 -0.6803
13496TIP3    H161979   1.542   3.926   0.371 -1.0504  0.3263  3.3922
13496TIP3    H261980   1.646   3.825   0.328 -0.8873  2.4664 -1.9700
13497TIP3   OH261981   6.079   1.298   4.326 -0.0757 -0.2839 -0.3082
13497TIP3    H161982   6.084   1.203   4.340  0.1761  0.0552  2.3245
13497TIP3    H261983   6.016   1.307   4.255 -1.7349 -2.3837  0.7595
13498TIP3   OH261984   6.006   3.120  14.724 -0.2879 -0.4102  0.3066
13498TIP3    H161985   6.081   3.179  14.733  0.5902 -1.3366 -0.6657
13498TIP3    H261986   5.980   3.127  14.633 -3.0969  1.8235  1.1333
13499TIP3   OH261987   2.845   0.100   0.973  0.4034 -0.1664 -0.2111
13499TIP3    H161988   2.930   0.130   1.006 -0.1945  1.0052  0.3585
13499TIP3    H261989   2.795   0.181   0.960  0.5526 -0.5358 -4.0609
13500TIP3   OH261990   0.162   5.814   5.403 -0.7603  0.6155  0.5717
13500TIP3    H161991   0.126   5.873   5.469  1.5902  1.8428  0.8304
13500TIP3    H261992   0.212   5.870   5.344  1.9021 -1.0818  1.0534
13501TIP3   OH261993   0.562   3.937  11.112 -0.2603 -0.1350  0.3243
13501TIP3    H161994   0.569   3.881  11.189  0.3003  1.0504  1.1727
13501TIP3    H261995   0.508   3.887  11.050 -1.9613 -0.5358  2.0383
13502TIP3   OH261996   4.189   5.452  16.651 -0.3691  0.1523  0.3791
13502TIP3    H161997   4.181   5.388  16.580  2.4944 -0.2508  0.2893
13502TIP3    H261998   4.236   5.406  16.720  0.6962  1.7699  0.7985
13503TIP3   OH261999   0.769   3.182  15.058  0.2226  0.3319 -0.1500
13503TIP3    H162000   0.682   3.217  15.040 -0.2707 -0.5031  0.5071
13503TIP3    H262001   0.776   3.105  15.001  1.1321  1.2139 -1.2847
13504TIP3   OH262002   5.142   5.400  15.299  0.0436 -0.8783 -0.6458
13504TIP3    H162003   5.146   5.310  15.331  0.3992 -0.9095 -0.7761
13504TIP3    H262004   5.098   5.394  15.214 -2.1916 -0.6364  0.4090
13505TIP3   OH262005   1.804   0.298  12.013  0.8702 -0.1707  0.0471
13505TIP3    H162006   1.805   0.379  11.963 -0.0074 -1.4147 -2.1524
13505TIP3    H262007   1.711   0.278  12.024  1.0001  0.4012  2.9009
13506TIP3   OH262008   0.783   5.048  16.224  0.0116 -0.0261 -0.6318
13506TIP3    H162009   0.861   5.103  16.223 -0.7993  1.2084  0.8063
13506TIP3    H262010   0.730   5.083  16.295 -0.6236 -2.5537  0.2483
13507TIP3   OH262011   2.785   5.372  10.972  0.4367  0.0937  0.0685
13507TIP3    H162012   2.713   5.365  10.909 -0.5045  2.4284  0.7852
13507TIP3    H262013   2.755   5.437  11.035  2.8498  0.4979  0.8798
13508TIP3   OH262014   6.069   5.209   5.522 -0.2863 -0.1402  0.2217
13508TIP3    H162015   6.034   5.135   5.472 -0.1265  0.0498 -0.1787
13508TIP3    H262016   6.114   5.262   5.456 -0.5112  0.3792  0.4903
13509TIP3   OH262017   0.273   3.862   4.458 -0.0828 -0.6062  0.1986
13509TIP3    H162018   0.299   3.908   4.538 -0.3545  0.1350 -0.1332
13509TIP3    H262019   0.324   3.903   4.389 -1.0937 -0.0805 -0.2568
13510TIP3   OH262020   0.704   1.902   2.662 -0.4046  0.0993  0.8608
13510TIP3    H162021   0.659   1.863   2.737 -0.0030 -0.5883  0.7581
13510TIP3    H262022   0.638   1.959   2.622 -1.7378 -1.9814 -0.1501
13511TIP3   OH262023   6.010   2.919  12.292 -0.5961  0.9374 -0.3243
13511TIP3    H162024   6.087   2.903  12.238 -0.0680  0.1460  0.6131
13511TIP3    H262025   5.965   2.991  12.249  0.1446  0.7657 -1.4365
13512TIP3   OH262026   3.416   4.314   1.855 -0.5604 -0.1051  0.6784
13512TIP3    H162027   3.454   4.334   1.770  0.4109  0.4214  1.2076
13512TIP3    H262028   3.340   4.371   1.862  0.4152  1.2334  0.8950
13513TIP3   OH262029   6.007   3.222  13.712 -0.0291  0.3031  0.2348
13513TIP3    H162030   5.971   3.135  13.730 -0.4278  0.3294 -0.4054
13513TIP3    H262031   5.931   3.276  13.691  0.0516  1.1902  2.0168
13514TIP3   OH262032   0.970   6.737  14.427  0.4218 -0.2106 -0.3000
13514TIP3    H162033   1.007   6.682  14.358 -0.1468 -1.4802  0.3595
13514TIP3    H262034   0.879   6.708  14.434  0.0813  0.8914  0.0113
13515TIP3   OH262035   5.210   1.365   5.559 -0.0520 -0.3668  0.0184
13515TIP3    H162036   5.274   1.427   5.524 -0.4999  0.7733  1.1380
13515TIP3    H262037   5.138   1.366   5.495 -1.4923  2.7532  1.4747
13516TIP3   OH262038   4.022   3.873  13.858  0.5872  0.0344 -0.3427
13516TIP3    H162039   3.942   3.918  13.881  0.4047 -0.1233 -0.6552
13516TIP3    H262040   4.066   3.932  13.796  0.9505  0.3412  0.2041
13517TIP3   OH262041   5.766   3.435   3.963 -0.0049 -0.6787  0.0405
13517TIP3    H162042   5.694   3.421   3.901 -1.2043  2.9367  0.3921
13517TIP3    H262043   5.733   3.402   4.046 -0.6743 -0.4238 -0.1181
13518TIP3   OH262044   4.614   6.795  13.157 -0.2472 -0.3765 -0.2776
13518TIP3    H162045   4.527   6.820  13.188 -0.2715 -0.1924 -0.4923
13518TIP3    H262046   4.612   6.813  13.063 -0.5749 -2.0610 -0.6251
13519TIP3   OH262047   2.840   6.129   5.258 -0.5265  0.1185 -0.0645
13519TIP3    H162048   2.864   6.144   5.167 -0.4898 -0.7880 -0.2134
13519TIP3    H262049   2.807   6.213   5.289 -1.9411  0.0537 -1.3392
13520TIP3   OH262050   5.378   1.384   0.465 -0.7632  0.3994 -0.3003
13520TIP3    H162051   5.364   1.315   0.399 -0.1839 -1.4545  1.4256
13520TIP3    H262052   5.471   1.378   0.486 -1.2280 -0.1058  1.7738
13521TIP3   OH262053   1.398   6.058   2.141  0.0829  0.2206  0.5086
13521TIP3    H162054   1.490   6.037   2.154  1.0421  1.8734 -2.5085
13521TIP3    H262055   1.363   5.984   2.092  0.2314  0.2654  0.3345
13522TIP3   OH262056   6.700   3.617  10.539  0.1144 -0.1606 -0.4690
13522TIP3    H162057   6.667   3.627  10.628 -1.7968  3.5590 -1.3710
13522TIP3    H262058   6.650   3.545  10.502  1.6582 -2.4522  1.6214
13523TIP3   OH262059   2.102   3.881  12.215  0.4603  0.0339  0.1955
13523TIP3    H162060   2.188   3.840  12.208  0.3606 -0.0965 -0.3940
13523TIP3    H262061   2.091   3.927  12.131  0.4829  1.0972  0.7571
13524TIP3   OH262062   4.246   0.188   2.889  0.1271  0.0678 -0.0081
13524TIP3    H162063   4.324   0.241   2.904 -0.6570  0.9139  1.2750
13524TIP3    H262064   4.178   0.252   2.868 -1.0148 -0.3006  2.2890
13525TIP3   OH262065   3.929   6.692  12.785  0.1747  0.1803 -0.0682
13525TIP3    H162066   3.985   6.755  12.741  1.6586 -0.0764  1.3531
13525TIP3    H262067   3.902   6.736  12.866 -0.4060 -0.2675 -0.0090
13526TIP3   OH262068   0.077   0.618  14.740  0.1313 -0.4251 -0.3558
13526TIP3    H162069   0.128   0.562  14.682 -1.9968 -0.9335 -1.8806
13526TIP3    H262070   0.120   0.704  14.734  2.7691 -1.5179  1.1535
13527TIP3   OH262071   6.590   2.584  11.985  0.4289  0.2232 -0.2236
13527TIP3    H162072   6.529   2.543  11.923  1.9229  0.7158 -2.1435
13527TIP3    H262073   6.589   2.677  11.962 -1.0530  0.9432  2.4246
13528TIP3   OH262074   2.566   4.690   2.976 -0.0091  0.1637  0.5280
13528TIP3    H162075   2.494   4.627   2.983  1.4721 -1.6321  0.2944
13528TIP3    H262076   2.575   4.726   3.064 -1.2892  0.5526  0.5215
13529TIP3   OH262077   1.751   3.012  16.872  0.1471 -0.4455 -0.1544
13529TIP3    H162078   1.773   3.029  16.780  2.6314 -1.7372  0.1133
13529TIP3    H262079   1.804   3.075  16.921 -1.8872  0.8987  0.4538
13530TIP3   OH262080   1.950   1.204   2.171  0.2957 -0.2099  0.3450
13530TIP3    H162081   1.933   1.279   2.227  0.6115  0.4786 -0.4690
13530TIP3    H262082   2.036   1.220   2.134  0.7824 -1.4367  0.8840
13531TIP3   OH262083   4.903   4.138  11.517  0.0113 -0.0773  0.1788
13531TIP3    H162084   4.877   4.122  11.426  0.5834 -0.4200  0.0719
13531TIP3    H262085   4.932   4.229  11.518  1.4617 -0.5013 -0.3430
13532TIP3   OH262086   0.613   3.796  16.764 -1.0399 -0.5890 -0.4967
13532TIP3    H162087   0.572   3.853  16.830  1.5281 -0.1688  0.8799
13532TIP3    H262088   0.583   3.831  16.680 -1.1290  1.5719  0.3673
13533TIP3   OH262089   1.548   3.005  17.057 -0.3424 -0.2933 -0.6182
13533TIP3    H162090   1.615   3.000  16.989  0.4167 -0.9109  0.1589
13533TIP3    H262091   1.500   3.085  17.036 -0.0431 -0.4042 -1.8014
13534TIP3   OH262092   2.254   5.288   1.579  0.8526 -0.3490  0.3567
13534TIP3    H162093   2.321   5.241   1.528  0.0514 -1.6441  0.4487
13534TIP3    H262094   2.188   5.222   1.598 -0.2979  0.8284  0.5721
13535TIP3   OH262095   4.969   1.285   4.505  0.1980 -0.5140  0.0173
13535TIP3    H162096   5.005   1.261   4.590  0.8818  0.6194  0.0714
13535TIP3    H262097   5.037   1.338   4.464 -1.0429  0.9511 -0.2433
13536TIP3   OH262098   2.758   1.690  14.280  0.2285  0.3257  0.0384
13536TIP3    H162099   2.733   1.782  14.271  0.3222  0.1604 -2.4462
13536TIP3    H262100   2.830   1.691  14.343 -0.4754  1.7933  0.8708
13537TIP3   OH262101   1.934   1.211  11.049  0.0291 -0.1429  0.2191
13537TIP3    H162102   1.883   1.148  11.100  0.0733 -2.3527 -2.2101
13537TIP3    H262103   2.021   1.172  11.043  0.2609  0.4719 -0.7456
13538TIP3   OH262104   6.392   0.114  15.137  0.6114 -0.4705  0.0314
13538TIP3    H162105   6.405   0.130  15.231  1.8728 -3.7787  0.5427
13538TIP3    H262106   6.439   0.186  15.094 -0.5016  1.4559  1.8587
13539TIP3   OH262107   6.763   1.699   3.088 -0.0937 -0.4817 -0.1386
13539TIP3    H162108   6.850   1.658   3.083 -0.0313 -0.3403 -0.2117
13539TIP3    H262109   6.723   1.661   3.166  0.3730  0.1173  0.4097
13540TIP3   OH262110   5.622   2.842  11.083 -0.0495  0.0192 -0.0751
13540TIP3    H162111   5.529   2.855  11.063 -0.8127 -0.1902  2.8789
13540TIP3    H262112   5.633   2.747  11.087  0.3642  0.0377 -0.5921
13541TIP3   OH262113   1.305   6.457   4.309 -0.1081 -0.3464 -0.3493
13541TIP3    H162114   1.303   6.468   4.214  0.5320 -1.3554 -0.4974
13541TIP3    H262115   1.374   6.516   4.339 -0.8850  0.6047 -0.4019
13542TIP3   OH262116   6.422   3.028  11.791 -0.8142 -0.1984  0.8325
13542TIP3    H162117   6.346   2.977  11.820 -0.6193 -0.9714  0.0434
13542TIP3    H262118   6.386   3.114  11.769 -1.0823  0.1958  2.6175
13543TIP3   OH262119   6.327   1.328  11.412  0.5005 -0.1103  0.0886
13543TIP3    H162120   6.252   1.320  11.352  0.7463  1.3902 -0.4546
13543TIP3    H262121   6.385   1.256  11.388  0.9680  0.9286 -2.0375
13544TIP3   OH262122   4.154   6.715  14.214  0.4649 -0.1466 -0.0416
13544TIP3    H162123   4.248   6.707  14.200  0.6271  0.1041  0.8651
13544TIP3    H262124   4.117   6.712  14.126  1.4192  1.2570 -0.5209
13545TIP3   OH262125   2.952   4.434   6.046  0.2906 -0.1208  0.0097
13545TIP3    H162126   3.045   4.456   6.055  0.3701  0.4318 -1.8057
13545TIP3    H262127   2.906   4.505   6.090  0.7018  0.0135  0.2300
13546TIP3   OH262128   1.434   5.930  17.038  0.0701  0.7768  0.4344
13546TIP3    H162129   1.340   5.949  17.039 -0.5757 -1.9641  0.2432
13546TIP3    H262130   1.469   5.986  16.969 -1.5234  1.4718  0.1496
13547TIP3   OH262131   1.917   2.547  11.078  0.7459  0.2976 -0.5290
13547TIP3    H162132   1.912   2.610  11.150  0.6076  2.2185 -2.1056
13547TIP3    H262133   1.831   2.554  11.035 -0.3263 -3.0307  0.7711
13548TIP3   OH262134   2.659   4.396   2.927  0.2059  0.7512 -0.2523
13548TIP3    H162135   2.698   4.340   2.994  2.1432 -0.7762 -2.4897
13548TIP3    H262136   2.630   4.474   2.974 -0.5706 -1.1437  2.6580
13549TIP3   OH262137   3.613   5.887   3.575 -0.2298  0.2707  0.1684
13549TIP3    H162138   3.543   5.952   3.571 -1.5876 -1.1932 -0.7630
13549TIP3    H262139   3.691   5.934   3.543 -0.8206  1.8418  0.9601
13550TIP3   OH262140   0.459   0.315   2.205  0.1644  0.1972 -0.7050
13550TIP3    H162141   0.517   0.337   2.278 -0.0006 -0.2530 -0.4390
13550TIP3    H262142   0.371   0.316   2.242  0.0262  0.5793 -1.0408
13551TIP3   OH262143   5.935   4.469   6.376  0.7700 -0.7520 -0.4259
13551TIP3    H162144   5.847   4.498   6.403  1.4936  1.5053 -0.2844
13551TIP3    H262145   5.956   4.397   6.436 -0.4103 -0.3691  0.4964
13552TIP3   OH262146   4.862   4.195  15.297  0.8500 -0.3361  0.3817
13552TIP3    H162147   4.880   4.127  15.232  1.9879  1.4277 -1.2486
13552TIP3    H262148   4.923   4.266  15.275  1.1375  0.4447  3.2581
13553TIP3   OH262149   5.468   1.782  11.488  0.2364  0.3334  0.0744
13553TIP3    H162150   5.471   1.804  11.581  1.9700 -0.0388  0.1521
13553TIP3    H262151   5.541   1.831  11.450  0.2327 -0.3742 -0.8829
13554TIP3   OH262152   0.668   3.837  13.795 -0.2699 -0.2694  0.3764
13554TIP3    H162153   0.639   3.920  13.832  0.0771 -0.3960  0.9420
13554TIP3    H262154   0.589   3.801  13.754 -0.2327  0.7062 -0.5910
13555TIP3   OH262155   3.173   6.084   3.957  0.2179  0.2417 -0.1685
13555TIP3    H162156   3.133   6.001   3.982  0.2381 -0.2749 -1.7316
13555TIP3    H262157   3.229   6.107   4.031 -0.3623 -0.7596  0.5986
13556TIP3   OH262158   4.751   2.088   2.493 -0.0038 -0.3618 -0.4432
13556TIP3    H162159   4.841   2.119   2.480 -0.0734  0.2589  0.4649
13556TIP3    H262160   4.753   2.043   2.577 -1.1195  2.1302  1.0313
13557TIP3   OH262161   2.712   4.946  15.154 -0.4571  0.0217 -0.2875
13557TIP3    H162162   2.703   4.899  15.237  0.8808  1.4031  0.6868
13557TIP3    H262163   2.632   4.924  15.105 -1.1872 -0.9667  1.2729
13558TIP3   OH262164   3.103   5.886  16.942  0.0716 -0.1209 -0.0560
13558TIP3    H162165   3.117   5.901  17.036 -0.3909  0.4488 -0.0754
13558TIP3    H262166   3.160   5.812  16.922  0.0121 -0.3970  0.7222
13559TIP3   OH262167   4.941   4.798   5.991  0.4971 -0.5550 -0.0158
13559TIP3    H162168   4.912   4.841   6.071  0.9078 -0.5950  0.1554
13559TIP3    H262169   4.953   4.870   5.928  0.5603 -0.4843  0.0771
13560TIP3   OH262170   4.988   5.111   0.179  0.1695  0.4777  0.3584
13560TIP3    H162171   4.917   5.056   0.145 -0.0096  0.0524  1.3708
13560TIP3    H262172   4.945   5.166   0.245  0.6916  0.5699  0.6219
13561TIP3   OH262173   4.302   3.356   4.719 -0.0180 -0.3270 -0.4575
13561TIP3    H162174   4.309   3.450   4.707 -0.2189 -0.3624 -0.8679
13561TIP3    H262175   4.209   3.337   4.705  0.3194 -0.8272 -2.2084
13562TIP3   OH262176   4.094   1.232  11.799  0.0264  0.3840  0.5963
13562TIP3    H162177   4.110   1.290  11.873 -0.8228  1.0932  0.2572
13562TIP3    H262178   3.999   1.220  11.798  0.1954 -1.2226  0.7898
13563TIP3   OH262179   4.838   3.537   5.015  0.4839 -0.3741  0.1022
13563TIP3    H162180   4.785   3.532   4.936  0.0075 -2.7813  0.5043
13563TIP3    H262181   4.921   3.574   4.986  0.1119 -0.6459 -1.4102
13564TIP3   OH262182   0.819   3.323   4.965 -0.1765 -0.4496  0.1908
13564TIP3    H162183   0.763   3.324   5.043  1.3474  1.1761  1.3397
13564TIP3    H262184   0.770   3.272   4.901 -1.8898 -1.0780  1.9094
13565TIP3   OH262185   5.033   6.228  14.841 -0.2700  0.6121 -0.0454
13565TIP3    H162186   5.011   6.233  14.748  0.1109  0.9751 -0.1215
13565TIP3    H262187   5.114   6.279  14.849 -1.1979  2.0531  0.7594
13566TIP3   OH262188   4.434   0.884  15.913  0.2892 -0.3336  0.4532
13566TIP3    H162189   4.399   0.934  15.839  1.2730 -0.7217 -0.3025
13566TIP3    H262190   4.492   0.945  15.958 -0.7074  0.0633  1.2324
13567TIP3   OH262191   4.499   0.521  12.032 -0.0080 -0.1613 -0.0001
13567TIP3    H162192   4.468   0.442  12.077  0.1862 -0.4703 -0.4053
13567TIP3    H262193   4.490   0.500  11.939  0.5199  0.1079 -0.1139
13568TIP3   OH262194   1.051   3.753  12.094 -0.0564  0.2864 -0.4512
13568TIP3    H162195   1.007   3.775  12.177 -0.0682  0.8335 -0.5995
13568TIP3    H262196   1.144   3.749  12.116  0.1144  2.0646 -0.7350
13569TIP3   OH262197   2.718   0.323   0.846 -0.1066 -0.0648  0.4222
13569TIP3    H162198   2.654   0.391   0.869 -2.5435 -1.6855 -1.0647
13569TIP3    H262199   2.741   0.342   0.755  0.7041 -0.1402  0.6072
13570TIP3   OH262200   2.126   3.700  15.323  0.3978 -0.1310 -0.2193
13570TIP3    H162201   2.215   3.711  15.356  0.3303  1.1900 -0.4492
13570TIP3    H262202   2.080   3.780  15.349 -0.4379 -0.3349 -1.0085
13571TIP3   OH262203   2.293   5.812  16.449  0.1971 -0.3040 -0.0420
13571TIP3    H162204   2.291   5.722  16.481 -0.1025  0.0176  0.8776
13571TIP3    H262205   2.333   5.862  16.520 -0.3865  0.4146 -0.2047
13572TIP3   OH262206   5.773   6.143   6.249  0.2333 -0.4862  0.1536
13572TIP3    H162207   5.732   6.190   6.321  2.2194 -0.1137  1.0870
13572TIP3    H262208   5.825   6.209   6.203 -1.1036 -0.6790 -1.7539
13573TIP3   OH262209   3.642   4.490   0.204  0.2870 -0.8723  0.8255
13573TIP3    H162210   3.695   4.410   0.203 -1.4733 -2.0961  1.2274
13573TIP3    H262211   3.630   4.512   0.112  2.4095  0.0946  0.7375
13574TIP3   OH262212   0.603   1.995  14.299  0.6296 -0.3530  0.4458
13574TIP3    H162213   0.537   2.030  14.359  0.3237  0.7954 -0.5306
13574TIP3    H262214   0.598   1.900  14.311  0.2985 -0.1722  1.9319
13575TIP3   OH262215   4.186   0.839  11.794 -0.1141 -0.0948  0.2594
13575TIP3    H162216   4.099   0.840  11.834  0.0061  1.1759  0.5273
13575TIP3    H262217   4.232   0.914  11.833 -0.2498  1.7648 -2.7762
13576TIP3   OH262218   2.852   2.294  12.718  0.1890  0.0453  0.2437
13576TIP3    H162219   2.909   2.217  12.714 -0.4821 -0.6318  2.4374
13576TIP3    H262220   2.764   2.259  12.710 -0.0828  0.7042  0.2974
13577TIP3   OH262221   6.318   4.491  16.829 -0.2490 -0.2747  0.3668
13577TIP3    H162222   6.248   4.550  16.859 -1.9235 -1.6125 -0.7181
13577TIP3    H262223   6.301   4.409  16.876 -0.2889 -1.0492 -0.9628
13578TIP3   OH262224   1.530   5.358   3.218  0.5131 -0.3181  0.3839
13578TIP3    H162225   1.595   5.393   3.157 -0.6876 -0.7196 -1.1650
13578TIP3    H262226   1.507   5.433   3.273  0.8341  0.3223 -0.3399
13579TIP3   OH262227   1.536   5.724   4.533 -0.7724 -0.0322  0.4994
13579TIP3    H162228   1.590   5.687   4.604 -3.6713 -1.0221  2.3765
13579TIP3    H262229   1.492   5.648   4.495  0.4523  0.5302 -2.2875
13580TIP3   OH262230   6.618   4.561   1.635 -0.2487 -0.1619  1.2598
13580TIP3    H162231   6.548   4.608   1.591  0.0432 -0.2851  0.6509
13580TIP3    H262232   6.697   4.612   1.617  0.4077 -1.8324 -1.0486
13581TIP3   OH262233   1.929   4.050  10.381 -0.4742 -0.4717  0.0059
13581TIP3    H162234   1.965   4.043  10.292  0.1246 -0.0936  0.2176
13581TIP3    H262235   1.916   4.144  10.394 -0.6632 -0.5354  0.2847
13582TIP3   OH262236   2.924   1.461   2.150  0.3467  0.3876  0.8593
13582TIP3    H162237   2.841   1.414   2.145 -0.8755  2.4866  0.0736
13582TIP3    H262238   2.956   1.463   2.060  0.6112  0.6798  0.9579
13583TIP3   OH262239   2.585   4.649   5.546 -0.8966 -0.0627  0.2844
13583TIP3    H162240   2.664   4.654   5.492 -0.2642 -1.6393  1.0224
13583TIP3    H262241   2.593   4.723   5.606 -0.0371 -0.1285  0.2689
13584TIP3   OH262242   6.148   2.532   3.918 -0.0905 -0.2735  0.2466
13584TIP3    H162243   6.156   2.488   4.002 -1.8093 -0.4462  0.3507
13584TIP3    H262244   6.189   2.618   3.932 -1.1404  0.0441  1.5329
13585TIP3   OH262245   4.152   4.885  15.575  0.2102  0.3412  0.0735
13585TIP3    H162246   4.074   4.830  15.563  0.3709 -0.4130  2.1381
13585TIP3    H262247   4.123   4.973  15.548 -1.3398  0.0602  0.7175
13586TIP3   OH262248   3.982   2.896   2.513 -0.7139  0.2489  0.3566
13586TIP3    H162249   3.950   2.907   2.424  0.4424 -3.6393 -0.7153
13586TIP3    H262250   4.075   2.875   2.503  0.1380  2.2837  2.7712
13587TIP3   OH262251   5.345   2.929   3.341 -0.6470  0.1238 -0.3395
13587TIP3    H162252   5.263   2.976   3.335 -0.4644  0.4353 -0.3912
13587TIP3    H262253   5.382   2.954   3.425 -0.7195 -0.2075 -0.2053
13588TIP3   OH262254   0.473   5.475   2.773  0.6307  0.0723 -0.1558
13588TIP3    H162255   0.402   5.413   2.789 -0.4591  1.3083 -0.0319
13588TIP3    H262256   0.548   5.420   2.749 -0.5034 -1.2414 -0.8394
13589TIP3   OH262257   6.122   6.317   0.211 -0.1869  0.2498 -0.4155
13589TIP3    H162258   6.204   6.363   0.228 -0.1850  0.2650 -0.4642
13589TIP3    H262259   6.073   6.376   0.155 -0.0136  0.0195 -0.8195
13590TIP3   OH262260   0.858   2.819   3.100  0.7600  0.0538  0.1487
13590TIP3    H162261   0.773   2.862   3.107 -0.3351 -1.5871 -1.8775
13590TIP3    H262262   0.863   2.764   3.178 -1.0576 -1.4035 -0.6724
13591TIP3   OH262263   5.769   5.327  15.949  0.0416  0.2866  0.0520
13591TIP3    H162264   5.754   5.344  16.041 -0.7657 -2.6638  0.5857
13591TIP3    H262265   5.698   5.267  15.924  1.9600 -1.4163 -1.6369
13592TIP3   OH262266   5.393   5.046  16.470  0.0015  0.6089  0.1121
13592TIP3    H162267   5.399   5.141  16.457  1.8650  1.1336  3.5296
13592TIP3    H262268   5.481   5.014  16.451 -0.0186 -0.0599  1.0871
13593TIP3   OH262269   4.850   0.997   5.043 -0.2753  0.2444  0.4511
13593TIP3    H162270   4.900   0.921   5.014 -1.5959 -1.6651  2.8067
13593TIP3    H262271   4.767   0.961   5.074 -1.2189  2.7414  1.0553
13594TIP3   OH262272   5.343   1.738  15.555  0.2661  0.7428  0.1306
13594TIP3    H162273   5.278   1.735  15.484  0.7502 -1.8436 -0.2898
13594TIP3    H262274   5.320   1.665  15.612  1.7164  0.9263  1.0020
13595TIP3   OH262275   4.408   2.221  16.431 -0.2329  0.2693 -0.4719
13595TIP3    H162276   4.368   2.250  16.349  2.1586  2.3949 -1.0068
13595TIP3    H262277   4.341   2.235  16.497 -1.7474 -0.2159 -1.8290
13596TIP3   OH262278   3.956   3.443  14.495 -0.1724  0.0610 -0.4204
13596TIP3    H162279   3.883   3.381  14.495 -0.4514  0.3822 -0.5979
13596TIP3    H262280   4.033   3.390  14.477 -0.2758 -0.3841  0.4202
13597TIP3   OH262281   5.851   0.866   1.669  0.8078 -0.0880  0.4567
13597TIP3    H162282   5.828   0.883   1.577 -0.0719 -1.4716  0.3840
13597TIP3    H262283   5.946   0.854   1.668  0.5051 -3.9402 -1.0612
13598TIP3   OH262284   5.861   1.563  15.440  0.3015 -0.4527 -0.2083
13598TIP3    H162285   5.929   1.503  15.408 -0.2872 -0.8468 -0.7512
13598TIP3    H262286   5.863   1.636  15.379 -1.3343 -1.5505 -1.6880
13599TIP3   OH262287   3.102   3.700  14.085 -0.5246  0.2784 -0.1472
13599TIP3    H162288   3.192   3.732  14.096 -0.5005  0.2457 -0.2438
13599TIP3    H262289   3.079   3.724  13.995  0.2523 -1.8206 -0.9770
13600TIP3   OH262290   0.674   3.855  14.422  0.0076  0.3995  0.4326
13600TIP3    H162291   0.676   3.777  14.368 -0.5396  1.0410 -0.5407
13600TIP3    H262292   0.647   3.824  14.509 -0.1106 -0.4935  0.0806
13601TIP3   OH262293   2.958   2.625  14.148 -0.1894  0.1849 -0.6315
13601TIP3    H162294   3.024   2.659  14.087  0.8207  1.1070  0.9252
13601TIP3    H262295   2.880   2.678  14.132 -0.1391  0.0173 -1.5094
13602TIP3   OH262296   4.619   6.766   1.647 -0.3920  0.3372  0.8465
13602TIP3    H162297   4.646   6.726   1.564  0.1452  1.2107  0.5825
13602TIP3    H262298   4.701   6.772   1.697 -0.4295  1.2186  0.8186
13603TIP3   OH262299   2.205   1.746  15.593  0.0623 -0.0105  0.2431
13603TIP3    H162300   2.128   1.697  15.619  0.0833  0.3502  1.0148
13603TIP3    H262301   2.172   1.817  15.538 -0.1471  0.0628  0.4624
13604TIP3   OH262302   0.549   2.586  16.223  0.4170 -0.5061  0.0894
13604TIP3    H162303   0.507   2.571  16.139  0.3447 -0.4220  0.1105
13604TIP3    H262304   0.517   2.671  16.251 -0.4722 -1.0327  0.7456
13605TIP3   OH262305   2.502   2.470   0.558  0.1131 -0.0486 -0.4972
13605TIP3    H162306   2.505   2.421   0.476 -1.1952  0.2265 -0.7384
13605TIP3    H262307   2.517   2.561   0.533  1.7912 -0.1936 -0.1436
13606TIP3   OH262308   1.822   6.243   3.581  0.2402  0.0952 -0.4254
13606TIP3    H162309   1.816   6.161   3.631  0.4758  0.4439  0.1850
13606TIP3    H262310   1.906   6.237   3.536 -0.7851 -1.0624 -2.3205
13607TIP3   OH262311   5.054   5.678   4.684 -0.3609  1.0943  0.6416
13607TIP3    H162312   5.055   5.772   4.698 -1.6553  0.9942  1.5008
13607TIP3    H262313   5.136   5.660   4.636  1.0170  2.3393  2.4089
13608TIP3   OH262314   1.114   6.097   3.220  0.0896 -0.6528 -0.4923
13608TIP3    H162315   1.080   6.153   3.289  1.1842  0.0645 -0.5147
13608TIP3    H262316   1.128   6.156   3.145  2.3237 -0.6887 -0.1543
13609TIP3   OH262317   1.702   3.165  15.993  0.1993 -0.1166 -0.3942
13609TIP3    H162318   1.737   3.078  15.973 -1.4741 -1.2504  1.1803
13609TIP3    H262319   1.765   3.204  16.053  0.7886 -0.3931 -0.8284
13610TIP3   OH262320   1.655   3.052   3.515 -0.6926 -0.7852 -0.6572
13610TIP3    H162321   1.596   3.055   3.440 -1.3564  0.8609 -0.1180
13610TIP3    H262322   1.597   3.042   3.591 -0.1219 -1.1170 -0.2549
13611TIP3   OH262323   2.057   5.798  13.928 -0.2954 -0.4603  0.0847
13611TIP3    H162324   2.138   5.818  13.973  0.2583  1.2219 -1.5290
13611TIP3    H262325   2.065   5.706  13.903  1.1790 -0.2898 -0.1460
13612TIP3   OH262326   5.217   6.358  15.750 -0.6752 -0.5349  0.6703
13612TIP3    H162327   5.255   6.362  15.838  0.4173 -0.2356  0.2003
13612TIP3    H262328   5.292   6.346  15.692 -1.2541  0.3839 -0.3171
13613TIP3   OH262329   0.605   3.403   4.536 -0.1576  0.1475 -0.1817
13613TIP3    H162330   0.528   3.405   4.480 -0.9554 -0.6911  0.8354
13613TIP3    H262331   0.651   3.485   4.518 -1.8273  1.1446 -0.0675
13614TIP3   OH262332   4.580   0.708  14.790  0.0827  0.5615 -0.0430
13614TIP3    H162333   4.596   0.790  14.836 -1.5206  0.5580  0.5975
13614TIP3    H262334   4.602   0.726  14.699 -2.4427  2.4898 -0.3891
13615TIP3   OH262335   3.827   6.625   0.764  0.3284  0.1912  0.1398
13615TIP3    H162336   3.865   6.636   0.851  0.2718 -0.3731  0.2364
13615TIP3    H262337   3.847   6.535   0.740 -0.3195  0.1122 -0.1112
13616TIP3   OH262338   3.690   5.803  15.158 -0.2010 -0.2132 -0.2859
13616TIP3    H162339   3.724   5.808  15.247  2.4444 -0.8818 -1.1771
13616TIP3    H262340   3.596   5.788  15.169 -0.1934  1.1554  2.3500
13617TIP3   OH262341   3.965   2.084   1.781  0.4583 -0.1372 -0.2266
13617TIP3    H162342   3.971   1.989   1.768  1.2298 -0.1677  0.3299
13617TIP3    H262343   3.933   2.094   1.870  1.1860  0.1288  0.0113
13618TIP3   OH262344   1.055   6.680   0.008  0.2458 -0.1281 -0.5249
13618TIP3    H162345   1.141   6.721   0.022  1.0443 -2.2769  1.6148
13618TIP3    H262346   1.007   6.696   0.089 -0.5513 -0.8247 -0.8430
13619TIP3   OH262347   4.097   0.208  10.998  0.0737 -0.6320 -0.2155
13619TIP3    H162348   4.106   0.254  10.915  0.5116 -0.9620 -0.3565
13619TIP3    H262349   4.178   0.227  11.045  0.5464 -1.7817 -0.5415
13620TIP3   OH262350   5.131   5.007   3.452  0.0527 -0.3479  0.1851
13620TIP3    H162351   5.183   4.944   3.503 -0.2974 -0.5506  0.2921
13620TIP3    H262352   5.044   4.968   3.447 -0.7030  0.9907  1.8677
13621TIP3   OH262353   1.750   2.493  13.526 -0.1178 -0.2731  0.0090
13621TIP3    H162354   1.814   2.433  13.488 -1.2258 -1.3922 -0.1431
13621TIP3    H262355   1.741   2.466  13.617  1.9462  1.9156  0.9932
13622TIP3   OH262356   5.564   3.047   3.750 -0.1514 -0.1573  0.1141
13622TIP3    H162357   5.597   2.989   3.818 -2.0487 -1.6062 -0.1286
13622TIP3    H262358   5.533   3.124   3.798  1.1191  0.0926  0.5734
13623TIP3   OH262359   1.371   4.310  11.129 -0.3485  0.3309  0.3845
13623TIP3    H162360   1.315   4.336  11.056 -0.6204 -1.1623  0.0166
13623TIP3    H262361   1.424   4.237  11.094  1.1176  1.0374  1.0235
13624TIP3   OH262362   4.386   4.515   3.534  0.1065  0.0124 -0.2343
13624TIP3    H162363   4.380   4.608   3.513  0.4486  0.0061 -0.3716
13624TIP3    H262364   4.446   4.480   3.468  1.2227 -0.0001  0.7430
13625TIP3   OH262365   6.206   3.967  12.571 -0.1456  0.0128 -0.5046
13625TIP3    H162366   6.284   3.912  12.575  0.6078  1.1050  0.2392
13625TIP3    H262367   6.218   4.020  12.492  0.5967  1.2093  0.3828
13626TIP3   OH262368   0.517   3.548   5.972 -0.4732  0.2978  0.8593
13626TIP3    H162369   0.536   3.611   5.902 -0.6345  0.3423  0.8559
13626TIP3    H262370   0.603   3.512   5.995 -0.6318 -1.2448 -0.7774
13627TIP3   OH262371   1.509   2.853   2.960  0.2158  0.4884  0.5593
13627TIP3    H162372   1.532   2.942   2.932 -1.6542  0.3507 -1.6047
13627TIP3    H262373   1.424   2.863   3.003 -0.6961 -0.4049 -0.9708
13628TIP3   OH262374   3.202   3.927   5.166  0.2804 -0.4849 -0.4573
13628TIP3    H162375   3.265   3.968   5.224 -0.6649  1.6280 -0.8290
13628TIP3    H262376   3.182   3.843   5.207  1.0258  0.1456  1.2700
13629TIP3   OH262377   6.156   4.820   5.876  0.2815 -0.2674 -0.0292
13629TIP3    H162378   6.169   4.763   5.952  0.2689  0.8481  0.8339
13629TIP3    H262379   6.239   4.867   5.866 -0.5190  1.4391  0.8909
13630TIP3   OH262380   1.711   1.429  14.016  0.0028 -0.1061 -0.0823
13630TIP3    H162381   1.652   1.392  14.082  0.0836 -1.9515 -0.9980
13630TIP3    H262382   1.795   1.386  14.031  0.2910  0.2002 -0.7664
13631TIP3   OH262383   4.987   6.484  15.704 -0.3192 -0.1058 -0.2784
13631TIP3    H162384   4.968   6.525  15.789  0.8398  1.3203 -0.6693
13631TIP3    H262385   5.067   6.434  15.720 -1.8995 -2.6312  0.2841
13632TIP3   OH262386   0.131   5.140   0.999 -0.6190  0.3284 -0.1919
13632TIP3    H162387   0.113   5.090   1.079 -2.0681 -0.4902 -0.9966
13632TIP3    H262388   0.164   5.224   1.030  0.0883 -0.4364  1.2346
13633TIP3   OH262389   3.007   0.459  16.194  0.3086 -0.2785 -0.2180
13633TIP3    H162390   3.098   0.431  16.198  0.9347  1.4721 -1.2265
13633TIP3    H262391   2.960   0.384  16.156  1.5143 -0.7785 -0.7646
13634TIP3   OH262392   4.610   4.776  11.752  0.2260  0.1461 -0.0182
13634TIP3    H162393   4.554   4.854  11.752 -0.2879 -0.2187  0.0702
13634TIP3    H262394   4.550   4.704  11.731  0.4581 -0.3921  1.1046
13635TIP3   OH262395   2.116   6.149  13.414 -1.1582 -0.4937  0.2780
13635TIP3    H162396   2.120   6.078  13.349 -2.9456 -0.6458  0.2958
13635TIP3    H262397   2.130   6.229  13.363  0.9284 -0.8116  0.2646
13636TIP3   OH262398   5.821   1.281   4.036  0.1195 -0.2300 -0.2809
13636TIP3    H162399   5.755   1.252   3.973 -0.9975  0.8094  0.3740
13636TIP3    H262400   5.801   1.374   4.050  0.7505 -0.2845  1.1098
13637TIP3   OH262401   5.900   6.024  16.697 -0.3710 -0.5306 -0.1423
13637TIP3    H162402   5.945   6.045  16.615 -0.5752 -0.8449 -0.3377
13637TIP3    H262403   5.809   6.048  16.680 -0.2515  0.2940  0.3192
13638TIP3   OH262404   0.605   0.395  13.361 -0.1881  0.2175  0.9932
13638TIP3    H162405   0.579   0.323  13.419 -0.4833 -0.3341  0.1986
13638TIP3    H262406   0.523   0.438  13.338 -0.0801  0.3909  0.9302
13639TIP3   OH262407   5.587   2.561   4.814 -0.9837  0.2107  0.1075
13639TIP3    H162408   5.572   2.550   4.908  2.5663 -0.7218  0.7193
13639TIP3    H262409   5.538   2.488   4.774 -0.5099 -0.9394  1.5169
13640TIP3   OH262410   1.095   6.312   5.345  0.0808  0.1155  0.3178
13640TIP3    H162411   1.106   6.221   5.318 -1.9830 -0.3120  0.8106
13640TIP3    H262412   1.153   6.321   5.421  0.1055 -0.8501  0.4281
13641TIP3   OH262413   2.965   6.112   0.945  0.1965 -0.3835  0.2361
13641TIP3    H162414   2.954   6.201   0.911 -0.4258 -0.5923 -0.1352
13641TIP3    H262415   3.057   6.108   0.973  0.2287  0.3733  0.2652
13642TIP3   OH262416   3.834   4.171  17.107  1.5428  0.0403  0.2228
13642TIP3    H162417   3.740   4.176  17.090  1.6545  1.8571 -0.0171
13642TIP3    H262418   3.860   4.088  17.067 -0.2931 -1.6276  2.2091
13643TIP3   OH262419   3.444   4.982   0.025 -0.0141 -0.0823 -0.2012
13643TIP3    H162420   3.405   4.986  -0.062 -0.0046 -0.9663 -0.2547
13643TIP3    H262421   3.459   4.889   0.040  0.4417  0.1051  0.5446
13644TIP3   OH262422   1.926   0.655   4.563  0.4386 -0.1524 -0.0415
13644TIP3    H162423   1.996   0.619   4.508  0.6342 -0.9978  0.7393
13644TIP3    H262424   1.857   0.589   4.560  0.8576 -0.7243  1.5184
13645TIP3   OH262425   6.257   2.210  14.945 -0.3976 -0.6176 -0.5530
13645TIP3    H162426   6.319   2.258  14.889  0.5533 -0.2218  0.7948
13645TIP3    H262427   6.311   2.141  14.985 -0.6723  0.1052  1.1149
13646TIP3   OH262428   1.026   3.160  12.488  0.1909 -0.2334  0.4662
13646TIP3    H162429   1.096   3.214  12.527 -0.6003  0.6721  0.6842
13646TIP3    H262430   1.048   3.157  12.395 -1.1799  2.8824 -0.1014
13647TIP3   OH262431   4.506   3.582   5.628  0.7386 -0.1540 -0.5779
13647TIP3    H162432   4.525   3.492   5.604  0.0347 -0.6228  0.5272
13647TIP3    H262433   4.576   3.606   5.689 -0.7966 -1.1181  1.7194
13648TIP3   OH262434   0.038   0.740   5.365  0.1135  0.1118  0.4500
13648TIP3    H162435   0.086   0.701   5.292 -0.0867  0.4431  0.1320
13648TIP3    H262436   0.049   0.680   5.438 -1.8254 -1.5887 -0.5467
13649TIP3   OH262437   0.957   6.274   6.385 -0.0397  0.7217 -0.4896
13649TIP3    H162438   1.038   6.225   6.391 -1.7812 -2.3355  0.4283
13649TIP3    H262439   0.905   6.228   6.319 -1.1704  2.4315 -0.8795
13650TIP3   OH262440   0.434   6.420   4.129 -0.6613 -0.5036 -0.3863
13650TIP3    H162441   0.436   6.332   4.167  1.6079 -0.1034  0.5952
13650TIP3    H262442   0.341   6.439   4.116 -1.4212 -1.6817  2.5914
13651TIP3   OH262443   1.077   4.969  13.691 -0.1664 -0.0577  0.4147
13651TIP3    H162444   1.107   4.928  13.772 -2.7267  1.1524  2.1073
13651TIP3    H262445   1.103   5.061  13.700 -1.4063  0.3113  0.4268
13652TIP3   OH262446   3.271   5.016  16.349 -0.1153  0.6181 -0.7255
13652TIP3    H162447   3.357   5.058  16.357 -0.0515  0.8496 -2.2114
13652TIP3    H262448   3.244   5.035  16.259 -1.5778  0.2555 -0.3891
13653TIP3   OH262449   3.488   6.272  16.469  0.3209 -0.0113 -0.4262
13653TIP3    H162450   3.459   6.308  16.553  0.8007  2.6733 -1.3123
13653TIP3    H262451   3.564   6.219  16.492 -1.4391 -2.0337  1.1551
13654TIP3   OH262452   2.966   1.981  12.149 -0.2693 -0.5213  0.5316
13654TIP3    H162453   2.877   1.947  12.140 -0.0576 -0.9604  0.0809
13654TIP3    H262454   2.996   1.995  12.059 -0.2772  0.6816  0.6940
13655TIP3   OH262455   6.632   4.667   1.124 -0.5310  0.5105  0.3840
13655TIP3    H162456   6.547   4.706   1.146 -1.3158 -1.1140  0.3165
13655TIP3    H262457   6.613   4.575   1.106  0.7822  0.6979 -2.5348
13656TIP3   OH262458   5.593   6.000  11.101 -0.1341  0.0500  0.2310
13656TIP3    H162459   5.608   6.087  11.064  0.0946 -0.0744  0.0243
13656TIP3    H262460   5.571   5.946  11.025  0.7332 -0.2951  0.2166
13657TIP3   OH262461   2.670   6.535   0.441 -0.0828  0.0246 -0.1117
13657TIP3    H162462   2.646   6.448   0.472  2.6797 -0.4476  0.9461
13657TIP3    H262463   2.614   6.595   0.491 -0.0478 -1.0323  1.2519
13658TIP3   OH262464   3.634   1.561   3.730 -0.2060 -0.7237  0.1596
13658TIP3    H162465   3.728   1.542   3.722 -0.4447 -2.1110  0.3491
13658TIP3    H262466   3.613   1.615   3.655  1.3390  2.1792  1.6556
13659TIP3   OH262467   5.744   1.057   5.756  0.2098 -0.1361 -0.3061
13659TIP3    H162468   5.689   1.089   5.827  0.5087 -0.5531  0.1258
13659TIP3    H262469   5.812   1.124   5.746 -0.7561  0.7191 -1.3140
13660TIP3   OH262470   4.450   3.603   3.139 -0.0743  0.0304 -0.5412
13660TIP3    H162471   4.477   3.567   3.055  2.5658  0.1769  0.1668
13660TIP3    H262472   4.495   3.549   3.204  0.2551  1.6878  0.6727
13661TIP3   OH262473   6.550   5.201  16.323  0.1138  0.1995 -0.4220
13661TIP3    H162474   6.562   5.108  16.303  1.1076 -0.1614  1.6636
13661TIP3    H262475   6.569   5.245  16.240  0.9636 -1.3577 -1.1075
13662TIP3   OH262476   5.542   1.601   3.329 -0.2317 -0.1496  0.3195
13662TIP3    H162477   5.511   1.680   3.284  0.9722  0.5480  0.6716
13662TIP3    H262478   5.596   1.634   3.401  0.9978 -1.2976 -0.0425
13663TIP3   OH262479   4.375   5.928   5.768 -0.3661  0.2304 -0.1190
13663TIP3    H162480   4.466   5.907   5.747  0.0974  0.7384  1.2328
13663TIP3    H262481   4.345   5.855   5.821 -0.1432  0.8846  0.9452
13664TIP3   OH262482   4.775   6.676   3.205  0.3458 -0.3294 -0.0248
13664TIP3    H162483   4.726   6.640   3.131  1.2608 -1.6593 -0.0363
13664TIP3    H262484   4.709   6.691   3.273 -0.2743 -0.7506 -0.5221
13665TIP3   OH262485   2.703   1.665  11.637  0.2631  0.8391  0.5123
13665TIP3    H162486   2.624   1.700  11.597 -2.1155 -0.9945  3.1323
13665TIP3    H262487   2.726   1.589  11.583 -1.5219 -0.2515  1.1766
13666TIP3   OH262488   3.216   5.570  13.293  0.3159 -0.6621 -0.2795
13666TIP3    H162489   3.264   5.490  13.310  2.0174  0.0959 -1.2420
13666TIP3    H262490   3.219   5.580  13.198  1.2855  1.1822 -0.1022
13667TIP3   OH262491   4.864   1.130  12.704  0.7053 -0.1258  0.2114
13667TIP3    H162492   4.805   1.194  12.744  1.4070 -0.0795  1.2150
13667TIP3    H262493   4.833   1.122  12.614 -2.7004 -2.2340  1.3744
13668TIP3   OH262494   4.262   0.057   0.164  0.3214 -0.2884  0.2247
13668TIP3    H162495   4.331   0.018   0.218  1.3914 -0.4151 -1.1726
13668TIP3    H262496   4.209  -0.017   0.135  1.0626 -0.4832 -0.6669
13669TIP3   OH262497   6.357   3.407  13.570  0.7632  0.2246  0.0038
13669TIP3    H162498   6.399   3.436  13.651  0.4746 -1.0035  0.6205
13669TIP3    H262499   6.418   3.344  13.532 -0.4500 -1.5537  0.8921
13670TIP3   OH262500   1.733   3.054   4.453 -0.0393 -0.2438  0.2346
13670TIP3    H162501   1.772   3.136   4.424  0.5478 -0.6419 -0.1017
13670TIP3    H262502   1.779   3.033   4.534 -2.4746  1.4903  2.2511
13671TIP3   OH262503   3.917   0.464  14.155 -0.4832  0.3191  0.0323
13671TIP3    H162504   3.996   0.423  14.190 -0.3536  1.8446  1.6797
13671TIP3    H262505   3.926   0.456  14.060  1.0578 -0.5899  0.2186
13672TIP3   OH262506   6.235   5.374  12.888 -1.1876  0.5290 -0.5785
13672TIP3    H162507   6.149   5.412  12.869 -1.0894  1.4224  0.6451
13672TIP3    H262508   6.298   5.437  12.853 -1.0038  2.1913  2.4266
13673TIP3   OH262509   5.888   4.199   0.519 -0.1433 -0.2195  0.0250
13673TIP3    H162510   5.829   4.133   0.555 -0.4018 -1.8533 -3.0882
13673TIP3    H262511   5.830   4.260   0.473  0.3354  0.4136  0.2459
13674TIP3   OH262512   3.394   0.153  16.212  0.0181  0.4083  0.0174
13674TIP3    H162513   3.378   0.089  16.143  1.1340 -0.6425  0.6757
13674TIP3    H262514   3.384   0.103  16.293  0.9015  1.0608  0.5496
13675TIP3   OH262515   0.806   5.114   1.135 -0.7056  0.3396 -0.1234
13675TIP3    H162516   0.895   5.136   1.161  0.2516 -1.6264 -1.5249
13675TIP3    H262517   0.795   5.154   1.049 -1.0564  0.2647 -0.1179
13676TIP3   OH262518   5.212   1.729   1.743 -0.3566  0.2027 -0.2646
13676TIP3    H162519   5.249   1.641   1.737  2.5096  1.1048  1.9838
13676TIP3    H262520   5.139   1.720   1.804  0.6925 -0.4449  0.9381
13677TIP3   OH262521   5.383   2.243   0.711 -0.2948  0.1415  0.1215
13677TIP3    H162522   5.406   2.155   0.742 -2.4278 -0.6401 -0.3684
13677TIP3    H262523   5.354   2.289   0.789  1.9419  0.8569  0.5928
13678TIP3   OH262524   2.656   5.554  11.391  0.0650  0.0944  0.4199
13678TIP3    H162525   2.693   5.575  11.477  1.6447  0.4430 -0.3309
13678TIP3    H262526   2.726   5.571  11.329 -0.8233 -0.8540 -0.8927
13679TIP3   OH262527   3.746   3.538   2.734 -0.0431 -0.1699 -0.5148
13679TIP3    H162528   3.660   3.531   2.691  0.2548 -1.7185 -0.9173
13679TIP3    H262529   3.806   3.495   2.674  0.9090  0.2821  0.0953
13680TIP3   OH262530   1.792   0.580  15.930  0.4027  0.2266 -0.4637
13680TIP3    H162531   1.708   0.621  15.949  0.5930  0.9451 -1.1040
13680TIP3    H262532   1.771   0.490  15.905 -0.0550  0.0112  0.6308
13681TIP3   OH262533   3.211   5.319   5.151  0.1139  0.0218  0.2074
13681TIP3    H162534   3.306   5.332   5.145  0.2899 -1.3594 -0.1228
13681TIP3    H262535   3.196   5.292   5.241  0.4962 -3.1175 -0.5819
13682TIP3   OH262536   6.725   3.741  10.272 -0.3105 -0.4933 -0.2824
13682TIP3    H162537   6.731   3.710  10.362 -0.0419  1.2226  0.3430
13682TIP3    H262538   6.805   3.712  10.231  1.1596  1.4397  1.0133
13683TIP3   OH262539   6.081   1.173  13.643  0.0828 -0.3116 -0.3327
13683TIP3    H162540   6.073   1.174  13.548 -1.0992  0.7367 -0.2517
13683TIP3    H262541   6.147   1.239  13.663 -0.6411  0.4587 -0.3898
13684TIP3   OH262542   5.961   0.412  15.872 -0.2731  0.3018  0.0908
13684TIP3    H162543   6.010   0.335  15.846  1.2445  1.1814  0.2393
13684TIP3    H262544   6.003   0.484  15.825 -0.5187  1.2660  1.3018
13685TIP3   OH262545   6.365   1.103  14.517  0.5229  0.1014  0.0202
13685TIP3    H162546   6.349   1.196  14.536  0.6346  0.7970 -2.7768
13685TIP3    H262547   6.306   1.056  14.576 -0.5907  2.0080  0.5286
13686TIP3   OH262548   1.258   1.571  13.607  0.3839  0.5439  0.4806
13686TIP3    H162549   1.349   1.544  13.595  0.3733 -2.0652  4.3447
13686TIP3    H262550   1.263   1.655  13.652  0.6976  1.5820 -1.3717
13687TIP3   OH262551   0.036   2.988   5.017 -0.4997 -0.2708  0.0284
13687TIP3    H162552  -0.042   3.034   4.986 -0.6536  0.1519  1.0372
13687TIP3    H262553   0.071   3.042   5.087 -0.2830 -1.3223  0.7637
13688TIP3   OH262554   3.366   4.382  12.836 -0.6557 -0.2814  0.2389
13688TIP3    H162555   3.327   4.327  12.769  0.8475  0.3367 -1.2000
13688TIP3    H262556   3.301   4.451  12.851 -2.4402 -2.1771  1.8717
13689TIP3   OH262557   3.099   0.001  13.509  0.3823  0.5146 -0.1262
13689TIP3    H162558   3.036   0.068  13.481 -0.5816 -0.2650  0.1348
13689TIP3    H262559   3.076  -0.017  13.600  1.0342  0.2663 -0.0041
13690TIP3   OH262560   5.668   5.568   1.074  0.5054 -0.0254 -0.2900
13690TIP3    H162561   5.739   5.627   1.047  0.4637  0.6455  1.0129
13690TIP3    H262562   5.636   5.531   0.992  1.1570  1.0600 -1.0635
13691TIP3   OH262563   6.154   4.682   0.384 -0.1046  0.2363  0.3946
13691TIP3    H162564   6.242   4.690   0.348  0.0105 -0.9235  0.3739
13691TIP3    H262565   6.115   4.768   0.371  0.8440  0.6125 -0.0696
13692TIP3   OH262566   6.146   1.933   1.874  0.2460 -0.3789  0.2285
13692TIP3    H162567   6.206   1.948   1.802 -1.0984  0.3556 -0.7787
13692TIP3    H262568   6.127   1.839   1.870  1.1290 -0.5732  0.4194
13693TIP3   OH262569   2.679   2.975   3.480  0.5883 -0.1299 -0.1719
13693TIP3    H162570   2.586   2.952   3.482  0.5605 -0.2152 -1.6549
13693TIP3    H262571   2.725   2.895   3.506  0.2208  0.3613  2.1834
13694TIP3   OH262572   1.691   5.572  10.975 -0.0481  0.2918 -0.3323
13694TIP3    H162573   1.747   5.495  10.966  0.2244  0.6955 -2.7255
13694TIP3    H262574   1.736   5.640  10.925 -2.2974  0.8096 -1.8043
13695TIP3   OH262575   6.410   0.310   3.450  0.1498  0.2207  0.0053
13695TIP3    H162576   6.376   0.280   3.365  0.8223 -1.6981  0.3704
13695TIP3    H262577   6.352   0.383   3.474 -0.8887 -0.0683 -1.4661
13696TIP3   OH262578   2.542   4.299   1.802  0.0636 -0.4554  0.4861
13696TIP3    H162579   2.489   4.364   1.848  1.0461  1.0961 -0.4415
13696TIP3    H262580   2.495   4.283   1.720  0.5007  0.1652  0.1038
13697TIP3   OH262581   1.230   6.371   0.284  0.6655  0.0049 -0.3911
13697TIP3    H162582   1.266   6.377   0.195  0.5904  0.0562 -0.4182
13697TIP3    H262583   1.292   6.315   0.331  1.0164  0.4472 -0.3157
13698TIP3   OH262584   6.738   1.798  13.834  0.0719 -0.6518  0.0298
13698TIP3    H162585   6.751   1.867  13.768 -0.7713  1.9001  2.3595
13698TIP3    H262586   6.651   1.764  13.815  0.9910 -2.1413 -1.9401
13699TIP3   OH262587   5.336   2.038  11.126  0.1880 -0.7061 -0.3125
13699TIP3    H162588   5.378   1.952  11.124 -1.8809 -1.7798 -0.5789
13699TIP3    H262589   5.336   2.063  11.218  4.6445  1.1449 -0.5591
13700TIP3   OH262590   6.508   5.845  12.459 -0.2035  0.1388 -0.4582
13700TIP3    H162591   6.507   5.931  12.418 -1.5025 -0.3177 -1.4525
13700TIP3    H262592   6.512   5.783  12.385 -0.6635 -0.6689  0.1740
13701TIP3   OH262593   2.515   3.540   4.328 -0.4113  0.5780  0.7557
13701TIP3    H162594   2.420   3.532   4.323 -0.3416  0.4758 -1.1890
13701TIP3    H262595   2.548   3.467   4.276  0.7351  0.7413  1.2235
13702TIP3   OH262596   2.366   4.985   0.927 -0.4807  0.2773 -0.2116
13702TIP3    H162597   2.420   4.911   0.954 -1.0957  0.2470  0.9907
13702TIP3    H262598   2.417   5.062   0.950  0.8939  0.3191 -2.9258
13703TIP3   OH262599   3.329   5.239   6.695 -0.4717 -0.3481 -0.3500
13703TIP3    H162600   3.240   5.267   6.716 -0.1155  0.4501  0.1984
13703TIP3    H262601   3.385   5.298   6.747  0.3737 -0.7376 -0.7942
13704TIP3   OH262602   2.418   2.070   0.235  0.0844 -0.3988 -0.7048
13704TIP3    H162603   2.488   2.060   0.300  0.5572 -1.9412 -1.3992
13704TIP3    H262604   2.341   2.093   0.287  0.3613 -1.9882  0.4968
13705TIP3   OH262605   3.440   1.871   6.209 -0.2580  0.1993 -0.1497
13705TIP3    H162606   3.433   1.795   6.267 -0.0959 -1.3085 -1.9999
13705TIP3    H262607   3.352   1.882   6.173  0.1426 -0.3405 -1.3300
13706TIP3   OH262608   2.038   0.311   2.773  0.3420 -0.1109 -0.0433
13706TIP3    H162609   1.987   0.247   2.823  1.8651 -1.7000 -0.4199
13706TIP3    H262610   2.127   0.275   2.770  0.9256  1.2739 -1.5847
13707TIP3   OH262611   2.573   6.040   4.349 -0.1134 -0.1461  0.2456
13707TIP3    H162612   2.593   6.030   4.256  0.9992  0.1727  0.4272
13707TIP3    H262613   2.655   6.072   4.387 -1.0444  1.4615  1.0327
13708TIP3   OH262614   6.759   2.534   0.325  0.2402  0.3842 -0.0006
13708TIP3    H162615   6.666   2.512   0.337  0.6317 -1.4420 -0.1496
13708TIP3    H262616   6.758   2.601   0.257 -1.0251  1.1243  0.6922
13709TIP3   OH262617   4.747   2.258  11.558  0.2680 -0.6105 -0.0872
13709TIP3    H162618   4.706   2.171  11.562 -0.4644 -0.2358  0.8912
13709TIP3    H262619   4.731   2.296  11.645  1.4705  0.1088 -0.1614
13710TIP3   OH262620   2.725   5.756  13.998 -0.3330  0.1003  0.6976
13710TIP3    H162621   2.741   5.850  13.997  0.5569 -0.0410  0.1039
13710TIP3    H262622   2.806   5.719  14.035 -0.7007 -0.4220  0.9899
13711TIP3   OH262623   4.629   1.833  17.027  0.7465  0.0201  0.2429
13711TIP3    H162624   4.656   1.840  17.119  0.8592  0.1244  0.2009
13711TIP3    H262625   4.549   1.781  17.030  0.1324  0.9583  0.5094
13712TIP3   OH262626   0.703   1.073  15.007 -0.6868  0.1065  0.3912
13712TIP3    H162627   0.633   1.087  14.943 -0.9712  0.6565  0.8168
13712TIP3    H262628   0.664   1.018  15.075  0.1593 -2.1211 -0.8161
13713TIP3   OH262629   5.907   3.884  16.261  0.4959 -0.0864  0.2207
13713TIP3    H162630   5.836   3.941  16.232 -1.3889 -1.7075  1.3626
13713TIP3    H262631   5.926   3.828  16.186 -0.3302 -0.4680  0.2913
13714TIP3   OH262632   2.190   0.470  12.577 -0.4061 -0.4980  0.0062
13714TIP3    H162633   2.269   0.466  12.523 -0.1142  0.2399  0.3596
13714TIP3    H262634   2.129   0.408  12.536  0.0224 -0.3947 -0.8087
13715TIP3   OH262635   0.658   1.601  14.831 -0.4454 -0.1475  0.1108
13715TIP3    H162636   0.704   1.532  14.784  0.7386  1.3211 -1.0063
13715TIP3    H262637   0.698   1.601  14.918 -1.2967 -1.6115  0.5364
13716TIP3   OH262638   0.300   2.091  12.639  0.4092 -0.9039 -0.1334
13716TIP3    H162639   0.368   2.095  12.706 -0.3229  1.3826  0.5920
13716TIP3    H262640   0.270   2.182  12.631 -0.2865 -1.3000 -2.7923
13717TIP3   OH262641   6.697   3.928  12.428 -0.7108 -0.4024 -0.6804
13717TIP3    H162642   6.790   3.914  12.410 -0.9306 -1.0851 -1.3047
13717TIP3    H262643   6.692   4.018  12.461  0.6047 -1.3458  2.4777
13718TIP3   OH262644   1.513   5.509  15.318 -0.4639  0.0086  0.7799
13718TIP3    H162645   1.545   5.599  15.306 -3.2999  1.0699  0.4708
13718TIP3    H262646   1.580   5.454  15.278  0.4446  2.1154 -0.7641
13719TIP3   OH262647   1.707   5.149   0.011 -0.2677 -0.1082  0.2596
13719TIP3    H162648   1.657   5.085   0.062  1.0758 -0.2632  1.4607
13719TIP3    H262649   1.793   5.152   0.054  1.2370 -0.7787 -2.4427
13720TIP3   OH262650   5.641   6.421   0.386  0.0405 -0.0141  0.2058
13720TIP3    H162651   5.639   6.374   0.469 -0.7908 -1.4731 -0.5830
13720TIP3    H262652   5.646   6.513   0.410  0.9038 -0.4475  1.8451
13721TIP3   OH262653   5.401   3.539  15.033  0.3714  0.0266 -0.5754
13721TIP3    H162654   5.418   3.549  14.940  1.2759 -0.6302 -0.4984
13721TIP3    H262655   5.485   3.556  15.075  0.6725 -2.2640 -0.0871
13722TIP3   OH262656   2.040   5.946   4.394 -0.5192  0.0473  0.3342
13722TIP3    H162657   2.124   5.902   4.379 -0.5068  0.1299  0.1587
13722TIP3    H262658   2.018   5.925   4.485  0.5911  1.5059  0.9875
13723TIP3   OH262659   3.427   5.659   3.275 -0.5843 -0.1279 -0.0553
13723TIP3    H162660   3.393   5.747   3.292 -0.0649  0.2919 -1.0754
13723TIP3    H262661   3.514   5.659   3.314 -0.0472  0.2889 -1.1834
13724TIP3   OH262662   2.407   6.449  13.863  0.4251  0.5763  0.2854
13724TIP3    H162663   2.350   6.397  13.920  0.4344  1.3393  0.9898
13724TIP3    H262664   2.353   6.466  13.786 -0.4039  1.5009  1.0501
13725TIP3   OH262665   3.879   1.092   1.677 -0.3316 -1.1152 -0.4286
13725TIP3    H162666   3.904   1.147   1.751 -0.2444 -0.8025 -0.6848
13725TIP3    H262667   3.846   1.154   1.612 -3.1641 -1.6263  0.4255
13726TIP3   OH262668   2.751   0.616   3.181 -0.2920 -0.4100 -0.0940
13726TIP3    H162669   2.698   0.608   3.102  0.1718 -0.2413 -0.4267
13726TIP3    H262670   2.694   0.657   3.245 -0.7138 -0.6698 -0.3016
13727TIP3   OH262671   0.324   4.518  13.203 -0.0588  0.0685 -0.3882
13727TIP3    H162672   0.307   4.545  13.113  0.8601 -0.5399 -0.7668
13727TIP3    H262673   0.345   4.425  13.196  0.6013  0.1463  0.3733
13728TIP3   OH262674   4.530   5.999  17.111 -0.0313  0.0098  0.1124
13728TIP3    H162675   4.550   6.082  17.154  1.1979  0.4725 -1.2977
13728TIP3    H262676   4.595   5.992  17.041  0.5342 -2.6101  0.7969
13729TIP3   OH262677   3.058   4.793   0.461  0.4202 -0.1193  0.8972
13729TIP3    H162678   3.020   4.766   0.378  1.2641  3.0937 -0.7172
13729TIP3    H262679   3.135   4.737   0.472 -0.7924 -1.9015  0.5835
13730TIP3   OH262680   5.495   0.655   3.137  0.1641 -0.6415  0.2788
13730TIP3    H162681   5.487   0.730   3.196 -0.7972 -0.1124 -0.4911
13730TIP3    H262682   5.517   0.693   3.052 -1.0403 -1.1501 -0.2797
13731TIP3   OH262683   2.402   3.101  14.579  0.6678 -0.7928 -0.6609
13731TIP3    H162684   2.436   3.014  14.557  1.8701 -0.6439  0.4845
13731TIP3    H262685   2.409   3.151  14.497  0.2830 -1.6688 -1.2397
13732TIP3   OH262686   2.969   5.421   5.558  0.4327  0.4471 -0.5567
13732TIP3    H162687   3.037   5.368   5.517 -1.5210 -1.6394 -1.3134
13732TIP3    H262688   2.978   5.401   5.652 -0.3117 -1.3722 -0.8315
13733TIP3   OH262689   0.502   5.865   4.822  0.2825  0.5567  0.1557
13733TIP3    H162690   0.515   5.916   4.742  0.8595  1.0511  0.5539
13733TIP3    H262691   0.565   5.793   4.814  0.6759  0.8681  0.3672
13734TIP3   OH262692   5.209   3.938  14.062  0.1689 -0.4504  0.1629
13734TIP3    H162693   5.161   3.953  13.981 -1.3644  0.8781  1.2647
13734TIP3    H262694   5.191   4.015  14.116  2.2084 -0.6815  1.2883
13735TIP3   OH262695   0.175   3.441  15.863 -0.4472 -0.2769 -0.0090
13735TIP3    H162696   0.241   3.500  15.826 -0.7172  0.9715  1.3696
13735TIP3    H262697   0.102   3.445  15.801 -0.0507  0.0068 -0.4687
13736TIP3   OH262698   4.310   3.369  15.225 -0.5418 -0.0242  0.2875
13736TIP3    H162699   4.294   3.462  15.213  0.5391  0.0608 -0.6958
13736TIP3    H262700   4.256   3.344  15.300 -2.4063  0.9614 -0.6535
13737TIP3   OH262701   6.097   1.675   1.825 -0.6039  0.2005 -0.1041
13737TIP3    H162702   6.157   1.611   1.864 -1.1001  0.1453  0.5951
13737TIP3    H262703   6.013   1.658   1.868 -0.7395  1.3290  0.1120
13738TIP3   OH262704   3.746   5.169  15.889 -0.0223 -0.0631 -0.1878
13738TIP3    H162705   3.831   5.135  15.860 -0.2292  1.0984 -2.3610
13738TIP3    H262706   3.764   5.259  15.915 -0.4693 -0.0389  0.0352
13739TIP3   OH262707   0.801   0.953  15.371 -0.0676  0.0701  0.2616
13739TIP3    H162708   0.779   0.930  15.281 -1.2146  0.8017  0.3334
13739TIP3    H262709   0.741   0.900  15.424  1.5920 -1.5057  0.7104
13740TIP3   OH262710   5.066   6.330  12.440 -0.6035 -0.3645 -0.5363
13740TIP3    H162711   5.029   6.265  12.381 -0.1451 -1.7441  0.6514
13740TIP3    H262712   5.050   6.295  12.528  1.0514  0.3531  0.0891
13741TIP3   OH262713   4.776   3.907  13.824 -0.1855 -0.4747  0.3788
13741TIP3    H162714   4.765   3.973  13.892 -0.0295 -0.4978  0.4267
13741TIP3    H262715   4.850   3.938  13.772 -2.3332  1.3540 -1.8595
13742TIP3   OH262716   1.206   2.431  12.356  0.0460 -0.7921 -0.6864
13742TIP3    H162717   1.300   2.418  12.372  0.7365  1.4573 -2.3602
13742TIP3    H262718   1.202   2.463  12.266 -2.1391  0.8856 -0.0666
13743TIP3   OH262719   1.743   1.459   5.790 -0.5394  0.0232 -0.4604
13743TIP3    H162720   1.806   1.501   5.847  2.1230 -3.4187 -0.5254
13743TIP3    H262721   1.680   1.418   5.849  0.3480 -0.8490 -0.0969
13744TIP3   OH262722   1.854   3.922  16.822  0.4660 -0.3225  0.3092
13744TIP3    H162723   1.803   4.002  16.807 -1.6090 -1.6900 -0.3442
13744TIP3    H262724   1.916   3.945  16.892  0.8832  2.2193 -0.7888
13745TIP3   OH262725   3.684   0.874   5.193  0.2105 -0.8315 -0.2810
13745TIP3    H162726   3.756   0.918   5.236 -0.2691  0.5896 -0.8829
13745TIP3    H262727   3.613   0.875   5.258 -0.5141  1.3136 -1.0116
13746TIP3   OH262728   3.996   2.295  11.409 -0.8434  0.1276 -0.3471
13746TIP3    H162729   4.016   2.263  11.321  0.5169 -0.4353  0.1423
13746TIP3    H262730   4.073   2.272  11.461 -0.3278  3.0712  0.3321
13747TIP3   OH262731   2.758   6.468  11.313  0.3382 -0.3632 -0.0760
13747TIP3    H162732   2.743   6.548  11.262 -1.1258 -0.6199 -0.0969
13747TIP3    H262733   2.852   6.469  11.332  0.4417  1.0931 -0.5112
13748TIP3   OH262734   1.702   5.508   4.646 -0.2379 -0.0021  0.1964
13748TIP3    H162735   1.740   5.464   4.722 -0.8243 -0.6436  0.1294
13748TIP3    H262736   1.742   5.463   4.571 -1.0173 -0.6047  0.1265
13749TIP3   OH262737   2.094   4.044   0.925 -0.3252 -0.3387 -0.2750
13749TIP3    H162738   2.051   3.959   0.930  0.5637 -0.7419  2.5591
13749TIP3    H262739   2.163   4.032   0.859  0.7858 -2.3799  1.1383
13750TIP3   OH262740   4.227   0.841  12.845 -0.1552 -0.1513  0.1550
13750TIP3    H162741   4.280   0.774  12.802 -0.9097  0.0579 -1.1908
13750TIP3    H262742   4.278   0.921  12.837  0.7878 -0.5414  1.8434
13751TIP3   OH262743   1.393   6.199   5.713 -0.6088  0.6166  0.5907
13751TIP3    H162744   1.421   6.151   5.791  0.6826  1.5481  0.7248
13751TIP3    H262745   1.460   6.180   5.647 -1.9088 -0.5155 -0.4740
13752TIP3   OH262746   4.060   6.640  11.315 -0.0014 -0.6433 -0.0584
13752TIP3    H162747   4.045   6.696  11.391  0.2757 -2.8974  1.7859
13752TIP3    H262748   4.153   6.650  11.296  0.7564 -2.5259  2.1399
13753TIP3   OH262749   0.808   1.060  13.271  0.3672 -0.7779  0.2165
13753TIP3    H162750   0.726   1.029  13.308  0.8352  1.4169  3.4447
13753TIP3    H262751   0.874   1.000  13.306  0.6653  0.5712  2.1018
13754TIP3   OH262752   2.321   4.490   1.995  0.0565  0.2857 -0.3655
13754TIP3    H162753   2.301   4.447   1.911  0.5025  1.1693 -0.9469
13754TIP3    H262754   2.394   4.548   1.974  0.6432 -0.0160  0.8200
13755TIP3   OH262755   1.235   2.280   6.059 -0.2789 -0.3659  0.3441
13755TIP3    H162756   1.301   2.225   6.100 -0.5585 -0.8900  0.1069
13755TIP3    H262757   1.269   2.299   5.971 -0.0187  0.1443  0.5497
13756TIP3   OH262758   4.346   2.828  14.405  0.4029 -0.2226  0.1997
13756TIP3    H162759   4.398   2.804  14.482  0.2345 -0.5384  0.2190
13756TIP3    H262760   4.281   2.758  14.398  0.2023 -0.0144 -0.0304
13757TIP3   OH262761   3.631   0.645   6.789  0.4702  0.3517 -0.9376
13757TIP3    H162762   3.647   0.553   6.769  2.0389  0.4910 -0.4083
13757TIP3    H262763   3.702   0.692   6.746 -0.0103  1.2697 -0.7431
13758TIP3   OH262764   0.398   6.374  14.262 -0.4821 -0.3516  0.6109
13758TIP3    H162765   0.449   6.445  14.222 -1.0337 -1.3085 -2.0032
13758TIP3    H262766   0.461   6.302  14.270 -0.4029 -0.1982  1.4237
13759TIP3   OH262767   1.269   2.685   5.156  0.0456 -0.5239 -0.3128
13759TIP3    H162768   1.197   2.650   5.209 -0.2623  0.2254 -0.2196
13759TIP3    H262769   1.305   2.757   5.209  0.6817 -0.7051 -0.4851
13760TIP3   OH262770   2.154   2.009  11.261 -0.9234  0.1694  0.0226
13760TIP3    H162771   2.077   2.018  11.316  0.6857  1.8555  2.1676
13760TIP3    H262772   2.133   2.058  11.181 -2.3087 -0.0161  0.2549
13761TIP3   OH262773   1.085   0.813   3.171  0.1040 -0.7332 -0.3877
13761TIP3    H162774   1.118   0.857   3.093  0.2613  1.2469  0.7442
13761TIP3    H262775   1.159   0.759   3.201  0.1933 -1.1420 -1.3133
13762TIP3   OH262776   2.675   3.288  15.483  0.1579  0.0821  0.0003
13762TIP3    H162777   2.599   3.341  15.461  0.0374 -1.3219 -3.6584
13762TIP3    H262778   2.742   3.352  15.507 -1.3821  1.4956  0.7781
13763TIP3   OH262779   4.319   3.079  14.301 -0.0854 -0.1995 -0.6003
13763TIP3    H162780   4.328   3.087  14.206 -0.9241 -0.7160 -0.7292
13763TIP3    H262781   4.345   2.989  14.320 -2.3445 -0.9316 -0.6759
13764TIP3   OH262782   3.283   5.986   4.827 -0.2290 -0.0870 -0.6947
13764TIP3    H162783   3.245   6.051   4.769 -1.3154  1.0232  1.1538
13764TIP3    H262784   3.227   5.909   4.817  0.0585 -0.1865 -1.6475
13765TIP3   OH262785   3.842   6.245   0.491 -0.0733 -0.3543  0.2921
13765TIP3    H162786   3.896   6.166   0.491 -0.1542 -0.4237 -0.4899
13765TIP3    H262787   3.892   6.309   0.441 -1.4490 -0.9863 -2.0517
13766TIP3   OH262788   0.692   3.755   6.230  0.0430  0.0152 -0.1745
13766TIP3    H162789   0.620   3.758   6.293 -0.5698 -0.0094 -0.8518
13766TIP3    H262790   0.771   3.757   6.283 -0.4481  1.2074  0.5462
13767TIP3   OH262791   4.187   3.497  15.638  0.3499 -0.7437 -0.2949
13767TIP3    H162792   4.281   3.515  15.637  0.4183 -0.8281  1.2884
13767TIP3    H262793   4.179   3.403  15.625  0.4768 -0.7048 -0.6379
13768TIP3   OH262794   0.900   5.894  15.606  0.1049  0.2589 -0.0458
13768TIP3    H162795   0.861   5.871  15.690  0.9497  2.2695  0.9589
13768TIP3    H262796   0.944   5.977  15.622  1.5619 -0.0481 -2.1113
13769TIP3   OH262797   5.582   0.974  12.013 -0.4218 -0.3910  0.0697
13769TIP3    H162798   5.535   1.053  11.985 -1.2605 -1.6407 -2.4496
13769TIP3    H262799   5.522   0.902  11.990  0.4845 -1.7988  1.8818
13770TIP3   OH262800   3.968   4.736   1.938 -0.1265  0.2101  0.0569
13770TIP3    H162801   3.995   4.644   1.945 -0.3426  0.1912  0.7486
13770TIP3    H262802   3.936   4.745   1.849  1.2259 -0.0224 -0.4764
13771TIP3   OH262803   6.471   1.407   4.018  0.2252  0.1711 -0.0909
13771TIP3    H162804   6.512   1.428   3.934 -0.4125 -0.3288 -0.5285
13771TIP3    H262805   6.545   1.394   4.077  0.7956 -2.1929 -1.2063
13772TIP3   OH262806   6.738   5.785  16.037  0.1782  0.1126 -0.1086
13772TIP3    H162807   6.742   5.826  16.123 -0.9448 -2.3398  1.2060
13772TIP3    H262808   6.829   5.779  16.009  0.4567  2.2990  0.1608
13773TIP3   OH262809   0.618   6.733   6.063 -0.4122  0.5528 -0.3792
13773TIP3    H162810   0.592   6.687   6.142 -2.0658  1.0686 -0.5861
13773TIP3    H262811   0.674   6.804   6.094 -0.4060  0.2783  0.2423
13774TIP3   OH262812   0.570   4.951  13.604  0.4993  0.3660 -0.2206
13774TIP3    H162813   0.658   4.973  13.634  1.0298 -0.8725 -0.7737
13774TIP3    H262814   0.564   4.857  13.617 -0.0315  0.1253 -1.9261
13775TIP3   OH262815   0.343   1.855  16.834 -0.4413  0.2791 -0.1511
13775TIP3    H162816   0.397   1.815  16.767 -2.0296 -0.1557 -1.2400
13775TIP3    H262817   0.299   1.780  16.876 -2.7408  0.7045 -1.5871
13776TIP3   OH262818   1.670   0.154  10.915 -0.1399  0.0882 -0.5682
13776TIP3    H162819   1.598   0.154  10.978 -0.6379 -1.5591 -1.0742
13776TIP3    H262820   1.744   0.116  10.964 -0.5668 -1.3271 -0.9799
13777TIP3   OH262821   1.591   5.218  14.575 -0.2021 -0.4194 -0.3325
13777TIP3    H162822   1.636   5.144  14.614  1.2650  1.1313  1.0830
13777TIP3    H262823   1.505   5.219  14.617 -0.5405 -1.7370 -0.9534
13778TIP3   OH262824   4.089   5.882  13.828 -1.0033 -0.4840 -0.1106
13778TIP3    H162825   4.044   5.842  13.753  0.7108  0.4183 -1.6915
13778TIP3    H262826   4.100   5.974  13.804 -0.1575 -0.2367  1.1228
13779TIP3   OH262827   4.059   6.095  11.196  0.0554 -0.3915  0.2975
13779TIP3    H162828   3.980   6.140  11.228  1.4612  2.0213  0.6620
13779TIP3    H262829   4.068   6.124  11.105 -0.0970 -1.6139 -0.1234
13780TIP3   OH262830   4.353   2.648  17.232  0.0070  0.0090 -0.5274
13780TIP3    H162831   4.387   2.599  17.157  1.3806  1.5410 -0.9531
13780TIP3    H262832   4.430   2.687  17.272 -0.6591 -0.9278  1.8608
13781TIP3   OH262833   1.717   6.809   5.642 -0.6225 -0.2040 -0.9856
13781TIP3    H162834   1.659   6.880   5.669 -0.3448 -0.2903 -0.1128
13781TIP3    H262835   1.775   6.849   5.577 -0.1510  0.5230 -0.1457
13782TIP3   OH262836   1.265   3.262  12.610 -0.2451 -0.2092  0.0403
13782TIP3    H162837   1.291   3.179  12.649 -1.5616 -0.2766  0.8287
13782TIP3    H262838   1.299   3.258  12.520 -1.0530 -2.0027 -0.2303
13783TIP3   OH262839   0.137   3.551  10.284 -0.2391  0.2300  0.0631
13783TIP3    H162840   0.162   3.573  10.374  1.1698  0.5951 -0.3861
13783TIP3    H262841   0.148   3.456  10.279  1.2012  0.3703 -0.1130
13784TIP3   OH262842   2.701   4.296   1.347 -0.4633  0.6575 -0.6155
13784TIP3    H162843   2.695   4.388   1.373  0.3183  0.1233  1.6271
13784TIP3    H262844   2.793   4.284   1.323 -0.8162  0.7154 -2.1005
13785TIP3   OH262845   1.694   0.618   6.189  0.3583 -0.4571 -0.2256
13785TIP3    H162846   1.735   0.550   6.134  0.6229  0.2795 -0.9615
13785TIP3    H262847   1.750   0.695   6.177  0.9412 -0.5096  1.7902
13786TIP3   OH262848   1.885   3.084  15.588  0.8268 -0.3095 -0.5242
13786TIP3    H162849   1.792   3.081  15.563  0.4603 -1.6510  0.8346
13786TIP3    H262850   1.885   3.129  15.673  1.4438 -0.1345 -0.6172
13787TIP3   OH262851   6.192   5.391  13.771 -0.2168  0.3027  0.4920
13787TIP3    H162852   6.173   5.422  13.860 -2.7901 -0.8675  0.4601
13787TIP3    H262853   6.123   5.326  13.754  0.4041  0.2578 -2.2546
13788TIP3   OH262854   0.284   0.838  12.082  0.0178 -0.3558 -0.1257
13788TIP3    H162855   0.379   0.838  12.086  0.0238 -0.9807 -0.2018
13788TIP3    H262856   0.256   0.827  12.173  0.0036  0.4233 -0.0238
13789TIP3   OH262857   2.808   0.085   2.079  0.2772 -0.4200 -0.2104
13789TIP3    H162858   2.717   0.070   2.104  0.6078 -1.1069  0.6249
13789TIP3    H262859   2.858   0.068   2.159  1.1029  0.3958 -0.5329
13790TIP3   OH262860   5.264   2.353   2.580  0.2942  0.1685 -0.1149
13790TIP3    H162861   5.354   2.383   2.569 -0.4682  1.9280 -2.2454
13790TIP3    H262862   5.211   2.432   2.576 -1.3655 -0.7690  1.6444
13791TIP3   OH262863   5.415   4.244  13.605 -0.1677  0.0553 -0.4000
13791TIP3    H162864   5.334   4.282  13.572  0.2789 -1.1870 -3.2250
13791TIP3    H262865   5.476   4.249  13.531  1.8892 -0.3496  1.1808
13792TIP3   OH262866   5.473   1.123   5.854  0.0219 -0.2844 -0.1472
13792TIP3    H162867   5.396   1.122   5.912 -0.9854 -0.5349 -1.4307
13792TIP3    H262868   5.436   1.132   5.767  1.4126 -1.4301 -0.8863
13793TIP3   OH262869   3.450   4.995   3.118 -0.4263 -0.5421 -0.5052
13793TIP3    H162870   3.408   5.082   3.116 -0.9886 -0.8010 -0.2665
13793TIP3    H262871   3.381   4.937   3.150 -0.4430 -1.2884 -1.8376
13794TIP3   OH262872   4.862   3.016   0.444  0.3790  0.0313 -0.1921
13794TIP3    H162873   4.784   2.977   0.406  0.2775  0.2134 -0.1706
13794TIP3    H262874   4.889   3.083   0.382  0.5998 -0.1259 -0.2681
13795TIP3   OH262875   6.013   3.109  16.733  0.2047 -0.3272 -0.1730
13795TIP3    H162876   6.107   3.119  16.721  0.8423 -4.9508 -0.7595
13795TIP3    H262877   5.978   3.110  16.643 -0.3540  1.1545  0.0314
13796TIP3   OH262878   0.036   0.426   6.022 -0.2851  0.3302 -0.1666
13796TIP3    H162879   0.082   0.392   5.945 -1.8676 -1.3851 -0.4439
13796TIP3    H262880   0.097   0.487   6.062  1.3515 -0.2255 -1.6957
13797TIP3   OH262881   2.695   3.905   3.146 -0.7762  0.3749  0.0481
13797TIP3    H162882   2.680   3.915   3.240 -0.0392 -1.3940  0.4050
13797TIP3    H262883   2.780   3.861   3.140 -0.3637  1.2909 -1.4944
13798TIP3   OH262884   6.308   1.710  16.130 -0.4553  0.0727  0.0702
13798TIP3    H162885   6.395   1.745  16.146 -0.1278 -0.6844  0.0005
13798TIP3    H262886   6.319   1.615  16.137 -0.9698 -0.1165 -1.4395
13799TIP3   OH262887   3.860   3.304  14.206  0.3362 -0.9089  0.5007
13799TIP3    H162888   3.943   3.276  14.244 -0.3301 -2.8405  0.6684
13799TIP3    H262889   3.793   3.256  14.256 -0.9005  0.5526  0.3427
13800TIP3   OH262890   0.708   6.127  16.859 -0.0431 -0.0512 -0.4299
13800TIP3    H162891   0.681   6.198  16.917  0.1653  0.6156 -1.1266
13800TIP3    H262892   0.627   6.090  16.826 -0.1564  1.2831 -1.7350
13801TIP3   OH262893   1.217   2.549  12.089 -0.1428 -0.8241  0.5273
13801TIP3    H162894   1.132   2.505  12.087 -0.7186  0.2413  0.4113
13801TIP3    H262895   1.236   2.568  11.997 -0.2591 -0.1845  0.6321
13802TIP3   OH262896   5.326   1.889  12.194  0.3680 -0.8459  0.0278
13802TIP3    H162897   5.392   1.842  12.246  0.4086 -3.8489 -2.4535
13802TIP3    H262898   5.375   1.961  12.154  0.8468  0.1265  2.1966
13803TIP3   OH262899   5.122   6.359  11.068 -0.5102  0.0439  0.1921
13803TIP3    H162900   5.161   6.272  11.078  0.1504  0.4721  1.5602
13803TIP3    H262901   5.044   6.356  11.122 -1.4677 -0.2276 -1.1378
13804TIP3   OH262902   1.320   2.239   1.236 -0.0833 -0.5536  0.1335
13804TIP3    H162903   1.369   2.162   1.207  0.4700 -0.3474  0.5016
13804TIP3    H262904   1.304   2.288   1.156 -0.2256 -0.9274 -0.0723
13805TIP3   OH262905   5.785   4.059  12.377  0.3860  0.2331  0.3415
13805TIP3    H162906   5.850   4.112  12.330  1.9911 -1.7724  0.1620
13805TIP3    H262907   5.836   3.990  12.420 -1.6030 -1.2502  0.4805
13806TIP3   OH262908   4.681   1.842  13.212  0.4846  0.1468  0.1269
13806TIP3    H162909   4.697   1.914  13.272 -0.0659 -0.6530  1.2550
13806TIP3    H262910   4.763   1.832  13.163  0.3856  1.8957 -0.4765
13807TIP3   OH262911   0.902   5.100   4.824 -0.1231 -0.2661  0.5247
13807TIP3    H162912   0.872   5.190   4.836  1.4376  0.3160  0.2848
13807TIP3    H262913   0.877   5.078   4.734  0.9351  0.5411  0.0094
13808TIP3   OH262914   5.741   1.621  11.589  0.5218 -0.0453  0.1973
13808TIP3    H162915   5.747   1.717  11.597  1.4112 -0.0939  0.1520
13808TIP3    H262916   5.661   1.599  11.638  0.8558  0.6215  1.0736
13809TIP3   OH262917   6.546   2.125  10.808 -0.5685 -0.8117 -0.3239
13809TIP3    H162918   6.539   2.159  10.719 -3.4141 -0.3400 -0.0282
13809TIP3    H262919   6.518   2.033  10.800  0.2587 -1.0921 -0.0645
13810TIP3   OH262920   1.561   6.759  13.525  0.0334  0.0427 -0.5073
13810TIP3    H162921   1.503   6.734  13.454 -0.5847 -3.5410  1.0718
13810TIP3    H262922   1.648   6.765  13.484 -0.8358  2.1955 -2.2375
13811TIP3   OH262923   0.037   5.451   4.195 -0.5575  0.5078  0.2590
13811TIP3    H162924   0.013   5.361   4.172 -1.6557 -0.0758  3.2222
13811TIP3    H262925   0.132   5.453   4.187 -0.5108 -0.9366  0.1071
13812TIP3   OH262926   1.372   1.229   1.585 -0.5867  0.3358 -0.2975
13812TIP3    H162927   1.340   1.309   1.543 -1.6299  0.2907  0.3621
13812TIP3    H262928   1.293   1.186   1.617  0.1501  0.5871  2.0700
13813TIP3   OH262929   3.783   4.106  15.464 -0.3957 -0.4464  0.2780
13813TIP3    H162930   3.751   4.159  15.391  0.4130 -1.5691 -0.9431
13813TIP3    H262931   3.767   4.159  15.542 -2.4640  0.2608 -0.5616
13814TIP3   OH262932   2.751   6.664   5.007 -0.5843 -0.4592  0.4809
13814TIP3    H162933   2.799   6.737   5.046 -1.2742 -0.2758  1.0037
13814TIP3    H262934   2.802   6.640   4.929  2.3121 -2.5218  2.7815
13815TIP3   OH262935   2.089   2.233   3.684  0.1621  0.1081 -0.2341
13815TIP3    H162936   2.053   2.276   3.762  0.2076 -0.2392 -0.0177
13815TIP3    H262937   2.164   2.287   3.660  0.2916  0.0859  0.1067
13816TIP3   OH262938   5.170   5.114  10.851 -0.7222  0.4762 -0.1022
13816TIP3    H162939   5.239   5.059  10.889 -1.9533 -0.9562  0.1239
13816TIP3    H262940   5.135   5.062  10.778 -2.0017  0.8942  0.1911
13817TIP3   OH262941   0.420   4.517  12.133 -0.3889 -0.0960 -0.6074
13817TIP3    H162942   0.432   4.612  12.132 -0.8169  0.0651  2.1280
13817TIP3    H262943   0.345   4.503  12.190 -0.0655 -2.1020 -0.6111
13818TIP3   OH262944   0.503   1.021  12.503 -0.0517 -0.5984  0.5146
13818TIP3    H162945   0.449   0.971  12.442  0.7545 -0.1579 -0.5760
13818TIP3    H262946   0.589   0.979  12.500  0.9469  1.3945 -1.1965
13819TIP3   OH262947   1.069   3.547   4.171  0.2336 -0.6796 -0.3947
13819TIP3    H162948   1.122   3.480   4.213 -0.6568 -2.0444 -1.3476
13819TIP3    H262949   0.980   3.530   4.202  0.3116  1.8637  1.5643
13820TIP3   OH262950   6.422   0.967   1.416 -0.4867  0.0194  0.1812
13820TIP3    H162951   6.449   0.959   1.325 -0.7860  0.1708  0.0773
13820TIP3    H262952   6.389   0.879   1.438 -0.0921 -0.1134  0.2525
13821TIP3   OH262953   0.572   6.241   4.761  0.4226  0.3000 -0.3842
13821TIP3    H162954   0.657   6.234   4.805  0.5239 -3.4887 -0.8151
13821TIP3    H262955   0.572   6.329   4.723  2.1954  2.1292  3.2815
13822TIP3   OH262956   6.576   3.830  16.735  0.0740  0.1158 -0.6317
13822TIP3    H162957   6.599   3.737  16.736  1.0913  0.3500 -1.0719
13822TIP3    H262958   6.549   3.847  16.645  1.0572  0.4963 -0.8758
13823TIP3   OH262959   6.593   5.689   6.326 -0.4926  0.1874 -0.1619
13823TIP3    H162960   6.568   5.781   6.322 -2.2514 -0.2919 -1.4136
13823TIP3    H262961   6.544   5.653   6.400 -0.8407 -0.0161 -0.4873
13824TIP3   OH262962   1.793   0.871  11.525  0.0345  0.3169  0.4220
13824TIP3    H162963   1.740   0.842  11.450 -0.2681 -0.6371  0.9828
13824TIP3    H262964   1.730   0.878  11.597  0.0112  2.8346  0.2478
13825TIP3   OH262965   2.491   5.202   1.439  0.5674  0.6513  0.1216
13825TIP3    H162966   2.498   5.158   1.354  0.4361 -1.6888  1.2273
13825TIP3    H262967   2.572   5.178   1.485 -0.1589  0.3454  1.2875
13826TIP3   OH262968   5.656   1.806  12.577 -0.4496 -0.2481 -0.0545
13826TIP3    H162969   5.586   1.766  12.627 -0.0245 -1.1967 -0.1882
13826TIP3    H262970   5.658   1.756  12.495  1.0237 -0.9155  0.3560
13827TIP3   OH262971   5.271   1.804   5.335 -0.1902  0.3831  0.5104
13827TIP3    H162972   5.266   1.802   5.430 -0.8039 -0.6634  0.4744
13827TIP3    H262973   5.358   1.769   5.315 -0.7404 -1.1654  0.6678
13828TIP3   OH262974   4.873   4.950   1.256  0.3522  0.1233 -0.5669
13828TIP3    H162975   4.854   4.980   1.166  0.5910 -2.2602 -1.4889
13828TIP3    H262976   4.795   4.900   1.280  0.8672 -0.4052  0.0081
13829TIP3   OH262977   3.142   0.495   0.412  0.0136  0.4093 -0.0342
13829TIP3    H162978   3.078   0.457   0.473  0.3498  1.5001  1.0457
13829TIP3    H262979   3.133   0.589   0.423  1.4594  0.5955 -0.2196
13830TIP3   OH262980   4.571   6.727  10.922  0.2095 -0.2398 -0.0598
13830TIP3    H162981   4.551   6.801  10.979  1.0379 -0.0955  0.0576
13830TIP3    H262982   4.644   6.682  10.964  0.1956 -0.7010 -0.5064
13831TIP3   OH262983   4.227   0.393   3.375 -0.1632  0.1122 -0.4058
13831TIP3    H162984   4.291   0.359   3.437  0.0563 -1.0933 -1.2742
13831TIP3    H262985   4.214   0.323   3.312 -0.0111  1.4644 -2.0269
13832TIP3   OH262986   5.042   5.797   1.819 -0.3939  0.2988 -0.3339
13832TIP3    H162987   5.052   5.888   1.790 -1.6277  0.5829  0.0852
13832TIP3    H262988   5.102   5.748   1.764  0.3264  1.3725 -0.5375
13833TIP3   OH262989   2.996   1.643   6.148 -0.7874 -0.1349  0.1997
13833TIP3    H162990   3.085   1.630   6.115  0.5585 -1.2023  3.7544
13833TIP3    H262991   2.944   1.577   6.102  0.4694 -0.2343 -1.1648
13834TIP3   OH262992   4.217   4.362  15.529 -0.0028  0.3257  0.0487
13834TIP3    H162993   4.239   4.419  15.603  1.7409  1.7938 -1.4893
13834TIP3    H262994   4.302   4.331  15.496 -0.6791  0.2209 -1.7027
13835TIP3   OH262995   1.755   3.353   4.688 -0.5236 -0.2984 -0.6342
13835TIP3    H162996   1.739   3.274   4.740  0.9838 -0.0266  0.3149
13835TIP3    H262997   1.747   3.324   4.597  2.0257 -2.1060 -0.3850
13836TIP3   OH262998   5.113   5.391   1.896  0.1184 -0.3317 -0.3234
13836TIP3    H162999   5.203   5.423   1.889  0.3198 -1.0115 -0.9887
13836TIP3    H263000   5.065   5.464   1.935  0.7123  0.4956 -1.0927
13837TIP3   OH263001   6.356   1.986  15.346  0.1720  0.3887 -0.1238
13837TIP3    H163002   6.385   2.029  15.266 -0.8691 -0.6414 -1.1020
13837TIP3    H263003   6.352   2.056  15.411  1.8237  1.1037 -0.7291
13838TIP3   OH263004   2.558   6.307  15.934  0.3528 -0.1749  0.1013
13838TIP3    H163005   2.496   6.258  15.988 -0.7678 -1.6362 -2.3483
13838TIP3    H263006   2.535   6.399  15.950 -1.3997 -0.6276  0.4558
13839TIP3   OH263007   6.329   6.778   6.171  0.4252  0.3102  0.4580
13839TIP3    H163008   6.316   6.868   6.201  0.3499  0.1319  0.9802
13839TIP3    H263009   6.422   6.760   6.188  0.0006 -0.3876  2.3145
13840TIP3   OH263010   3.636   2.987   6.146  0.3131 -0.5133  0.2980
13840TIP3    H163011   3.546   2.976   6.177  0.7956  1.5877  2.7902
13840TIP3    H263012   3.689   2.943   6.212  1.2132  0.7904  0.4763
13841TIP3   OH263013   3.420   0.551  15.006  0.2709 -0.2229 -0.3741
13841TIP3    H163014   3.455   0.478  14.954 -0.2460 -0.9607  0.2800
13841TIP3    H263015   3.350   0.588  14.951 -0.2961 -1.0161 -0.2001
13842TIP3   OH263016   2.507   2.247  12.339  0.0770  0.3845 -0.1142
13842TIP3    H163017   2.528   2.184  12.271  0.3824 -2.0168  2.0710
13842TIP3    H263018   2.411   2.255  12.336  0.1934  1.6473 -1.8618
13843TIP3   OH263019   2.048   0.140   0.145  0.6528 -0.1783 -0.4056
13843TIP3    H163020   2.068   0.229   0.115  1.4323 -0.1069  0.2919
13843TIP3    H263021   1.995   0.103   0.074  0.8148  0.6369 -0.9764
13844TIP3   OH263022   5.710   5.682  13.636  0.3168 -0.7778 -0.1425
13844TIP3    H163023   5.730   5.678  13.729 -2.3258 -1.0278  0.4699
13844TIP3    H263024   5.642   5.617  13.622  1.4595 -1.5932 -2.5208
13845TIP3   OH263025   3.303   6.683   3.125  0.3136 -0.0443 -0.1331
13845TIP3    H163026   3.297   6.748   3.194 -0.2423 -2.3051  2.0928
13845TIP3    H263027   3.255   6.720   3.051  0.1021  2.0452  1.0012
13846TIP3   OH263028   4.386   3.797  11.211  0.1363 -0.0458  0.0013
13846TIP3    H163029   4.400   3.857  11.138  0.2818  1.0900  0.9277
13846TIP3    H263030   4.291   3.798  11.225  0.0585 -0.6255 -0.4592
13847TIP3   OH263031   1.200   0.569   3.370  0.1051 -0.0072 -0.8437
13847TIP3    H163032   1.226   0.490   3.323 -0.2195 -1.8537  1.8714
13847TIP3    H263033   1.107   0.580   3.349 -0.5383 -1.9274  0.7434
13848TIP3   OH263034   1.464   2.178   0.902 -0.2421 -0.2560 -0.6539
13848TIP3    H163035   1.533   2.171   0.967 -1.0908  2.7510  0.7479
13848TIP3    H263036   1.508   2.215   0.825  0.1417 -0.6226 -0.6138
13849TIP3   OH263037   3.111   1.465   0.763  0.2065  0.1049 -0.3757
13849TIP3    H163038   3.064   1.382   0.756 -0.1283  0.2106  0.4589
13849TIP3    H263039   3.189   1.453   0.710  1.7111 -1.8547  2.0843
13850TIP3   OH263040   5.714   5.736   5.241  0.0539 -0.4362  0.3062
13850TIP3    H163041   5.676   5.703   5.322 -0.9596 -0.5871 -0.2195
13850TIP3    H263042   5.808   5.726   5.253  0.0886  1.5103  2.3377
13851TIP3   OH263043   4.267   0.088  16.754  0.3149  0.2576 -0.0076
13851TIP3    H163044   4.295   0.049  16.671  0.9889  0.8915 -0.0962
13851TIP3    H263045   4.268   0.015  16.816 -1.9670 -0.6166 -0.9190
13852TIP3   OH263046   2.776   4.636   3.681 -0.3974 -0.4490  0.3439
13852TIP3    H163047   2.850   4.626   3.621  0.2147  2.2908  0.5249
13852TIP3    H263048   2.789   4.567   3.746  2.4838  0.3895  0.8119
13853TIP3   OH263049   5.007   5.419   1.634 -0.4136 -0.6201  0.2743
13853TIP3    H163050   4.931   5.361   1.638  1.6365 -3.5534  0.1122
13853TIP3    H263051   5.042   5.418   1.723 -0.2209  0.2394  0.2171
13854TIP3   OH263052   2.320   3.246   1.659  0.1035  0.6073  0.2676
13854TIP3    H163053   2.248   3.189   1.632  0.4264 -1.1526  2.7367
13854TIP3    H263054   2.289   3.334   1.640 -2.1701 -0.1718  0.0435
13855TIP3   OH263055   1.436   4.059   4.802 -0.0838 -0.5019 -0.0454
13855TIP3    H163056   1.475   3.997   4.741 -0.1140  0.6234 -1.2731
13855TIP3    H263057   1.361   4.096   4.754 -0.3961  0.0638  0.8560
13856TIP3   OH263058   4.935   0.755  13.434 -0.1778 -0.0196 -0.3712
13856TIP3    H163059   4.959   0.748  13.527  0.7367  1.2305 -0.4915
13856TIP3    H263060   4.840   0.744  13.433  0.0732 -3.4479  0.3095
13857TIP3   OH263061   1.642   5.213   0.694  0.1176  0.2186 -0.1098
13857TIP3    H163062   1.628   5.237   0.785  1.5381  0.6506  0.0209
13857TIP3    H263063   1.663   5.120   0.696 -1.2418 -0.1090 -0.1673
13858TIP3   OH263064   5.994   2.154  12.778 -1.0909 -0.8871 -0.3445
13858TIP3    H163065   5.899   2.157  12.792 -0.8925 -0.8846  1.1450
13858TIP3    H263066   6.030   2.131  12.863  0.2756 -0.5278 -0.8023
13859TIP3   OH263067   0.972   4.795  11.424  0.1218 -0.3962 -0.2973
13859TIP3    H163068   1.047   4.735  11.425 -0.2375 -0.8761 -1.2073
13859TIP3    H263069   0.899   4.742  11.392 -0.2182  0.5038 -1.0536
13860TIP3   OH263070   1.863   2.414   3.211  0.5128 -0.1639  0.5736
13860TIP3    H163071   1.948   2.370   3.199  0.0491 -0.5036 -2.3212
13860TIP3    H263072   1.801   2.358   3.164 -0.8914  1.2676  0.6519
13861TIP3   OH263073   0.606   1.587   5.455 -0.0145  0.2065  0.1117
13861TIP3    H163074   0.619   1.623   5.542  0.0995  1.0757 -0.2527
13861TIP3    H263075   0.617   1.492   5.466  0.0497  0.3113  1.0223
13862TIP3   OH263076   6.357   6.507   4.250  0.0177 -0.1516  0.0726
13862TIP3    H163077   6.324   6.419   4.268 -0.9920  0.5895  2.2333
13862TIP3    H263078   6.450   6.503   4.270  0.1600 -0.9267 -0.6985
13863TIP3   OH263079   1.855   0.300  10.497 -0.2561 -0.3628 -0.1818
13863TIP3    H163080   1.851   0.260  10.410  0.6598 -2.6454  0.7594
13863TIP3    H263081   1.805   0.241  10.553  1.9897 -0.7976  1.4744
13864TIP3   OH263082   3.625   3.248   5.055  0.5064 -0.1104 -0.0199
13864TIP3    H163083   3.681   3.249   4.977  0.3902 -1.4758 -0.1460
13864TIP3    H263084   3.666   3.311   5.115  2.3814 -1.3148  0.0260
13865TIP3   OH263085   4.062   0.626  11.280  0.7550  0.8808 -0.2069
13865TIP3    H163086   4.005   0.640  11.356  1.3541 -2.6647  1.0634
13865TIP3    H263087   4.150   0.645  11.312  0.8147  1.4996 -0.7124
13866TIP3   OH263088   1.137   5.645   4.290  0.2588  0.0101  0.3789
13866TIP3    H163089   1.171   5.662   4.202 -0.6914  1.9746  0.3485
13866TIP3    H263090   1.063   5.586   4.276  0.2696  0.1067 -0.1173
13867TIP3   OH263091   1.045   6.730  12.276  0.1275  0.5351  0.1098
13867TIP3    H163092   1.002   6.709  12.359  0.7033  0.6584  0.4474
13867TIP3    H263093   1.094   6.651  12.254  0.8828  0.8886  0.4775
13868TIP3   OH263094   2.095   2.756  13.117  0.1162 -0.3107  0.2170
13868TIP3    H163095   2.137   2.835  13.151  1.0274 -1.1702  1.1651
13868TIP3    H263096   2.067   2.780  13.028  1.6587  0.6208 -0.0541
13869TIP3   OH263097   3.318   4.398  15.020  0.0887 -0.0965  0.4736
13869TIP3    H163098   3.277   4.312  15.035  0.3908 -0.2380  0.4962
13869TIP3    H263099   3.258   4.460  15.060 -1.1898 -0.1021 -1.2987
13870TIP3   OH263100   2.757   3.773  12.988 -0.2695 -0.3280  0.3765
13870TIP3    H163101   2.835   3.721  12.969  1.1801  1.3252  1.5009
13870TIP3    H263102   2.743   3.764  13.082 -0.0639  1.1600  0.5766
13871TIP3   OH263103   3.407   6.798  17.198 -0.3162 -0.2956  0.6048
13871TIP3    H163104   3.368   6.885  17.206 -0.9195 -0.3792 -0.9962
13871TIP3    H263105   3.332   6.738  17.204 -0.5214 -0.4732 -2.2718
13872TIP3   OH263106   2.489   6.586  15.850  0.5250  0.0814 -0.7978
13872TIP3    H163107   2.558   6.646  15.879  0.1740 -0.8154  2.2634
13872TIP3    H263108   2.527   6.541  15.775  1.2596  3.1575 -2.4849
13873TIP3   OH263109   1.292   2.819  12.226 -0.3994 -0.3028  0.6812
13873TIP3    H163110   1.289   2.816  12.322 -1.3423 -0.7075  0.6592
13873TIP3    H263111   1.253   2.735  12.199 -1.6023  0.4542 -0.0454
13874TIP3   OH263112   2.556   5.264   4.943  0.3001  0.0505  0.6658
13874TIP3    H163113   2.519   5.336   4.892 -1.9706 -0.2479  1.7952
13874TIP3    H263114   2.596   5.306   5.019  0.3522  0.2206  0.5440
13875TIP3   OH263115   5.853   2.623   2.953  0.1657  0.1723 -0.0781
13875TIP3    H163116   5.890   2.554   2.898 -4.0520 -1.3850 -1.3335
13875TIP3    H263117   5.832   2.580   3.036  3.5291  1.7678  1.8358
13876TIP3   OH263118   2.980   3.773   0.138 -0.1207  0.1659 -0.8463
13876TIP3    H163119   3.056   3.780   0.196 -1.1826  1.8273  0.4509
13876TIP3    H263120   2.929   3.852   0.157 -2.6934 -1.3928 -0.8848
13877TIP3   OH263121   3.099   3.207   4.392  0.2114  0.2831 -0.2673
13877TIP3    H163122   3.020   3.216   4.339 -1.6010 -1.9387  1.8144
13877TIP3    H263123   3.151   3.141   4.347 -1.0065 -1.0973  0.2339
13878TIP3   OH263124   3.207   0.613   4.519 -0.9095  0.2371 -0.1278
13878TIP3    H163125   3.150   0.690   4.519 -0.7958  0.3632  1.5995
13878TIP3    H263126   3.295   0.648   4.501 -1.1189  0.2544 -1.1651
13879TIP3   OH263127   6.451   0.109  15.688 -0.0199  0.2027 -0.0473
13879TIP3    H163128   6.513   0.050  15.731 -0.1149  0.7063  0.8133
13879TIP3    H263129   6.498   0.192  15.680 -0.1715  0.2470 -0.4846
13880TIP3   OH263130   6.229   1.861   1.539 -0.4627 -0.1244 -0.1820
13880TIP3    H163131   6.278   1.926   1.590  0.1369 -1.6127  1.2504
13880TIP3    H263132   6.294   1.822   1.481  0.0020 -1.6988  1.3120
13881TIP3   OH263133   0.396   0.172   4.272 -0.1862 -0.5071 -0.0879
13881TIP3    H163134   0.331   0.238   4.295 -0.1774 -1.0046  1.5091
13881TIP3    H263135   0.412   0.125   4.354 -0.4510 -2.7305 -1.2463
13882TIP3   OH263136   4.142   0.038  12.713 -0.3072 -0.2660  0.2639
13882TIP3    H163137   4.152   0.034  12.618 -1.6916  0.5941  0.0494
13882TIP3    H263138   4.156   0.130  12.734  0.2802 -0.5074  0.9341
13883TIP3   OH263139   3.680   3.084  12.832  0.1910  0.6076  0.3618
13883TIP3    H163140   3.665   3.002  12.785  0.2111  0.6638  0.2579
13883TIP3    H263141   3.766   3.114  12.802  0.3518  0.4732  0.6811
13884TIP3   OH263142   2.145   2.346   2.245  0.2419  0.3232 -0.7599
13884TIP3    H163143   2.136   2.376   2.154 -1.4942  0.7811 -0.4901
13884TIP3    H263144   2.055   2.325   2.272  0.3699  2.2154  1.5051
13885TIP3   OH263145   5.742   1.792   5.588 -0.1909 -0.0181  0.1884
13885TIP3    H163146   5.809   1.812   5.654  0.5775 -0.4782 -0.4377
13885TIP3    H263147   5.685   1.868   5.589  1.1619  1.0492 -0.2688
13886TIP3   OH263148   0.013   3.201  16.448 -0.4075 -0.1923 -0.0772
13886TIP3    H163149  -0.070   3.211  16.402 -0.6956 -0.2614  0.4250
13886TIP3    H263150   0.046   3.290  16.459 -0.4562 -0.1595 -0.1977
13887TIP3   OH263151   5.979   1.879   0.511  0.0075  0.1794  0.0368
13887TIP3    H163152   6.058   1.876   0.456  1.2532 -0.5134  1.7964
13887TIP3    H263153   5.991   1.957   0.566  0.0505 -0.5861  1.1296
13888TIP3   OH263154   3.096   4.163  11.045 -0.5403  0.2005 -0.0465
13888TIP3    H163155   3.066   4.085  10.998 -2.6955  1.4292 -0.8670
13888TIP3    H263156   3.082   4.141  11.137  1.6924 -1.4270 -0.0180
13889TIP3   OH263157   4.909   6.313   1.850  0.1399  0.7400  0.1207
13889TIP3    H163158   4.926   6.366   1.928  0.2380  1.3425 -0.3000
13889TIP3    H263159   4.839   6.360   1.805  0.9176  1.0618 -0.7713
13890TIP3   OH263160   5.721   3.891   1.523  0.2095  0.3691 -0.1023
13890TIP3    H163161   5.648   3.875   1.463 -1.0787  2.5738  0.7552
13890TIP3    H263162   5.793   3.920   1.467  0.3027 -1.2839 -0.8996
13891TIP3   OH263163   3.022   4.455  12.710  0.0410 -0.0518  0.1888
13891TIP3    H163164   2.929   4.442  12.694 -0.2526  0.9731  0.9480
13891TIP3    H263165   3.038   4.410  12.793 -0.3852  1.9335  1.4174
13892TIP3   OH263166   1.093   3.739   5.210  0.2086 -0.5205  0.3323
13892TIP3    H163167   1.080   3.708   5.120 -2.8869 -0.1732  0.5449
13892TIP3    H263168   1.044   3.678   5.264  0.3717  0.4059  1.5666
13893TIP3   OH263169   1.177   3.268   2.809  0.1219 -0.0641 -0.4799
13893TIP3    H163170   1.142   3.238   2.892  0.4971 -1.7595 -0.8976
13893TIP3    H263171   1.243   3.333   2.833 -0.1556 -0.1355  0.5184
13894TIP3   OH263172   6.594   2.726  16.245  0.0117 -0.9556  0.1830
13894TIP3    H163173   6.649   2.754  16.171  0.4187  0.6069  1.0185
13894TIP3    H263174   6.597   2.631  16.243  1.8225 -0.9233 -0.4955
13895TIP3   OH263175   4.333   6.058   0.763 -0.0692  0.3048  0.1472
13895TIP3    H163176   4.265   6.116   0.728 -0.3010 -0.7824 -1.3051
13895TIP3    H263177   4.301   5.969   0.742  1.6275 -0.2372 -0.2575
13896TIP3   OH263178   4.230   0.653   4.716 -0.2917 -0.2589  0.1815
13896TIP3    H163179   4.136   0.670   4.710 -0.1881  0.6793  1.0255
13896TIP3    H263180   4.238   0.586   4.784 -0.1904  1.6652  2.1926
13897TIP3   OH263181   4.887   5.974   4.083 -0.0646  0.5573  0.2493
13897TIP3    H163182   4.818   6.035   4.057 -1.6146 -1.2377 -0.0251
13897TIP3    H263183   4.865   5.948   4.172  0.6032  0.4232  0.3855
13898TIP3   OH263184   0.586   5.483  15.571  0.0638  0.8850 -0.5510
13898TIP3    H163185   0.651   5.480  15.501  1.2940 -1.4150  0.5756
13898TIP3    H263186   0.508   5.443  15.533  1.0127 -1.2163 -0.4094
13899TIP3   OH263187   2.276   0.364  16.199 -0.0253  0.3442 -0.0920
13899TIP3    H163188   2.366   0.344  16.228  0.4177  0.5963 -1.2469
13899TIP3    H263189   2.267   0.316  16.116  0.0815  2.6133 -1.4903
13900TIP3   OH263190   3.024   4.884   3.115  0.6402  0.1254 -0.6371
13900TIP3    H163191   3.068   4.960   3.154  1.0016 -0.7462  0.7481
13900TIP3    H263192   3.094   4.820   3.102 -0.0568 -1.0213  0.9305
13901TIP3   OH263193   6.699   1.064  13.698 -0.4568  0.2786 -0.4687
13901TIP3    H163194   6.713   1.032  13.788 -0.3839  3.1660  0.6355
13901TIP3    H263195   6.777   1.115  13.678 -0.4111 -0.4406 -2.2796
13902TIP3   OH263196   3.997   5.308  12.779 -0.3507  0.1296 -0.6716
13902TIP3    H163197   3.951   5.282  12.859  1.3386  0.4863  0.4744
13902TIP3    H263198   4.002   5.403  12.784  2.3044  0.0328  0.3760
13903TIP3   OH263199   0.114   1.286   3.751 -0.4462  0.4714 -0.2486
13903TIP3    H163200   0.067   1.203   3.743 -0.9071  0.8434 -1.5509
13903TIP3    H263201   0.112   1.305   3.845  3.7382 -3.3105  0.9441
13904TIP3   OH263202   0.559   1.777  15.349  0.9107 -0.1889  0.3515
13904TIP3    H163203   0.613   1.747  15.277  1.2336  2.7400 -0.7857
13904TIP3    H263204   0.601   1.743  15.427  2.0217 -1.3523 -0.7116
13905TIP3   OH263205   2.838   3.205   4.546 -0.2514 -0.3701 -0.2537
13905TIP3    H163206   2.816   3.150   4.472 -0.6796 -0.4220 -0.0907
13905TIP3    H263207   2.908   3.262   4.514  0.5827 -1.3688 -0.2673
13906TIP3   OH263208   1.580   3.839   4.919 -0.2606 -0.2437 -0.7357
13906TIP3    H163209   1.509   3.818   4.980  0.5616 -0.3461  0.2145
13906TIP3    H263210   1.544   3.907   4.863 -1.1800 -0.4420 -0.4074
13907TIP3   OH263211   1.896   3.099   3.957  0.1217  0.6025  0.2659
13907TIP3    H163212   1.869   3.038   3.888  1.1398  0.9627 -0.4919
13907TIP3    H263213   1.927   3.176   3.909 -0.2183  1.3181  1.1815
13908TIP3   OH263214   5.137   0.720  14.706 -0.3199  0.6475 -0.1471
13908TIP3    H163215   5.200   0.791  14.717 -0.5472  0.9148 -0.5388
13908TIP3    H263216   5.051   0.764  14.709 -0.5356  0.1961  1.1708
13909TIP3   OH263217   0.100   4.405   6.076  0.1233 -0.2032 -0.4943
13909TIP3    H163218   0.086   4.493   6.041 -3.0345 -0.5545 -0.4231
13909TIP3    H263219   0.019   4.384   6.121  1.7488 -2.2048  1.7648
13910TIP3   OH263220   4.053   6.244   1.706 -0.3610  0.2328  0.0962
13910TIP3    H163221   3.965   6.234   1.741 -0.1208  0.7886  0.9054
13910TIP3    H263222   4.110   6.238   1.783  0.3779 -0.9078 -0.4999
13911TIP3   OH263223   3.797   6.530  15.043 -0.0921  0.2762 -0.0336
13911TIP3    H163224   3.755   6.464  14.989 -2.0073 -0.0259  1.7116
13911TIP3    H263225   3.740   6.607  15.035  2.0096  1.7559 -1.9077
13912TIP3   OH263226   4.191   3.861   1.121  0.4573 -0.0698 -0.0368
13912TIP3    H163227   4.236   3.908   1.191  0.1778  0.7147 -0.3755
13912TIP3    H263228   4.261   3.826   1.066  0.6670 -0.1352  0.2727
13913TIP3   OH263229   4.758   5.426   0.191 -0.0923  0.4786  0.0283
13913TIP3    H163230   4.761   5.374   0.272  3.8482  0.9031  0.3312
13913TIP3    H263231   4.696   5.497   0.210 -1.8874 -1.3249  1.3345
13914TIP3   OH263232   3.906   4.402  11.860 -0.3144 -0.2891  0.2620
13914TIP3    H163233   3.882   4.381  11.770  0.6199  0.1059 -0.0921
13914TIP3    H263234   3.927   4.496  11.858 -3.0345  0.4391  1.5070
13915TIP3   OH263235   2.858   4.294  13.149 -0.0825  0.3498  0.2314
13915TIP3    H163236   2.768   4.270  13.128  0.4729 -1.4570 -0.2879
13915TIP3    H263237   2.878   4.246  13.229 -0.0760  2.0434  1.2875
13916TIP3   OH263238   5.591   0.637  13.962 -0.2443 -0.8393 -0.2195
13916TIP3    H163239   5.558   0.570  13.902 -2.2223 -0.2482  0.1119
13916TIP3    H263240   5.520   0.649  14.026 -1.5539  3.7601 -2.0606
13917TIP3   OH263241   1.935   3.369   3.845  0.3890 -0.2091  0.2795
13917TIP3    H163242   1.994   3.441   3.823  0.0441 -0.2512 -0.8299
13917TIP3    H263243   1.897   3.342   3.761 -1.0968 -0.2770  0.9369
13918TIP3   OH263244   4.372   6.015  14.224  0.3609  0.2148  0.4484
13918TIP3    H163245   4.292   6.031  14.174 -1.1619 -0.1077  2.6175
13918TIP3    H263246   4.380   5.919  14.227  1.7384  0.2433 -1.0247
13919TIP3   OH263247   1.946   1.702  15.009  0.5618  0.4080  0.1953
13919TIP3    H163248   1.932   1.787  15.052  1.9235 -0.8236  3.3542
13919TIP3    H263249   1.858   1.672  14.986  0.0292  2.5077 -0.8510
13920TIP3   OH263250   1.284   0.765  16.617  0.0318  0.4089  0.3569
13920TIP3    H163251   1.193   0.794  16.617 -0.0966  0.0096  0.3953
13920TIP3    H263252   1.299   0.732  16.705  0.4962  1.3268  0.6421
13921TIP3   OH263253   5.387   0.784   2.432  0.3235  0.0405  0.1375
13921TIP3    H163254   5.295   0.807   2.442  0.6286  2.5602 -1.9655
13921TIP3    H263255   5.429   0.821   2.510  0.0857  2.7878 -0.9294
13922TIP3   OH263256   5.445   4.403  10.849 -0.1570  0.6717 -0.3682
13922TIP3    H163257   5.505   4.329  10.848  0.0967  0.8748 -0.4037
13922TIP3    H263258   5.495   4.474  10.890 -0.7572  0.5250  0.6537
13923TIP3   OH263259   4.813   3.060   1.272  0.2325 -0.3447 -0.3049
13923TIP3    H163260   4.763   3.064   1.353  0.5799 -0.5142 -0.0799
13923TIP3    H263261   4.765   2.999   1.216  0.5581 -1.0444  0.1705
13924TIP3   OH263262   0.425   0.188  13.403 -0.2306 -0.3331 -0.4334
13924TIP3    H163263   0.444   0.094  13.412  0.1850 -0.3665 -1.5272
13924TIP3    H263264   0.354   0.203  13.465 -0.3655 -1.3875 -0.3011
13925TIP3   OH263265   2.071   1.596  15.261  0.7411  0.6069  0.4789
13925TIP3    H163266   2.044   1.630  15.176  1.1469 -1.2239 -0.4156
13925TIP3    H263267   2.030   1.510  15.267  1.4683  0.3184  1.7444
13926TIP3   OH263268   2.735   3.036   1.377 -0.3934 -0.3101  0.4879
13926TIP3    H163269   2.793   3.108   1.351 -0.1721 -0.7185 -0.1730
13926TIP3    H263270   2.725   3.046   1.471 -0.4607  0.6651  0.3906
13927TIP3   OH263271   0.487   2.306  16.047  0.4995 -0.4729  0.0096
13927TIP3    H163272   0.393   2.291  16.036  0.7836 -1.5395 -1.3188
13927TIP3    H263273   0.495   2.401  16.056 -0.6397 -0.2815 -0.7380
13928TIP3   OH263274   2.572   5.925   0.567 -0.3819  0.3563 -0.0174
13928TIP3    H163275   2.650   5.881   0.601  0.5047  1.7426 -0.1893
13928TIP3    H263276   2.522   5.951   0.644  1.8342  3.8937  0.4551
13929TIP3   OH263277   0.887   4.211  12.677 -0.2581  0.1879 -0.4911
13929TIP3    H163278   0.892   4.200  12.772 -1.0944  0.7963 -0.3668
13929TIP3    H263279   0.798   4.243  12.661 -0.5401 -1.0418 -1.6016
13930TIP3   OH263280   3.075   3.567  14.733 -0.2680 -0.1589  0.3003
13930TIP3    H163281   3.156   3.619  14.730  0.4598 -1.2987 -0.8336
13930TIP3    H263282   3.057   3.545  14.642 -0.6208 -1.7721  0.7214
13931TIP3   OH263283   3.202   5.388   4.500  0.2286 -0.5090 -0.3366
13931TIP3    H163284   3.122   5.367   4.547 -0.5552  1.6929 -0.5877
13931TIP3    H263285   3.271   5.386   4.567 -0.6740  1.3763  0.7384
13932TIP3   OH263286   0.057   1.439   1.630 -0.2967 -0.0181 -0.0650
13932TIP3    H163287   0.113   1.370   1.665  0.0288  0.5467  0.5520
13932TIP3    H263288   0.119   1.503   1.593 -0.5339  0.5381  0.4878
13933TIP3   OH263289   2.940   1.577   4.495  0.3506 -0.2393 -0.2850
13933TIP3    H163290   2.852   1.614   4.500 -0.3638 -1.9557  0.6884
13933TIP3    H263291   2.942   1.511   4.564  3.2528  1.4081  1.4118
13934TIP3   OH263292   4.062   3.591  10.774 -0.4590  0.0678 -0.2878
13934TIP3    H163293   4.084   3.672  10.820 -2.3455 -0.0358  0.9320
13934TIP3    H263294   4.014   3.620  10.696 -0.2153  0.1573 -0.4039
13935TIP3   OH263295   0.601   5.182   0.452  0.5129  0.3515 -0.2794
13935TIP3    H163296   0.612   5.276   0.464  0.3849  0.4571 -0.9924
13935TIP3    H263297   0.517   5.162   0.495  1.9997 -0.0101  2.7628
13936TIP3   OH263298   4.853   5.511  12.236 -0.3184  0.0854  1.0923
13936TIP3    H163299   4.873   5.418  12.244  0.1559  0.2420  1.8232
13936TIP3    H263300   4.882   5.549  12.319 -0.0520  0.9632  0.6082
13937TIP3   OH263301   4.408   1.520   6.045 -0.3425 -0.2407  0.2034
13937TIP3    H163302   4.321   1.505   6.082  0.0309 -0.6875  0.9304
13937TIP3    H263303   4.450   1.434   6.047 -0.1517 -0.1865 -0.8789
13938TIP3   OH263304   0.293   1.499   4.975 -0.6955  0.2767  0.4685
13938TIP3    H163305   0.206   1.475   5.005 -0.7637  0.2333  0.2426
13938TIP3    H263306   0.280   1.528   4.885 -0.5461  0.7289  0.5922
13939TIP3   OH263307   0.852   0.726  12.458  0.4680  0.3747  0.6610
13939TIP3    H163308   0.852   0.814  12.420  0.5364  0.5584  1.0896
13939TIP3    H263309   0.764   0.716  12.495  0.5229  0.3312  0.7780
13940TIP3   OH263310   5.962   2.120   3.509 -0.3006 -0.6144  0.5225
13940TIP3    H163311   6.007   2.036   3.519  0.2977 -0.2967  0.5612
13940TIP3    H263312   5.950   2.152   3.598 -0.8750 -0.8343  0.5272
13941TIP3   OH263313   3.471   3.587  11.373 -0.0215  0.5170 -0.6006
13941TIP3    H163314   3.397   3.628  11.327  1.0849  1.2742 -1.7685
13941TIP3    H263315   3.464   3.494  11.350 -0.9444  0.4766 -0.2077
13942TIP3   OH263316   6.195   4.671   5.096  0.2204  0.0332 -0.1094
13942TIP3    H163317   6.205   4.666   5.001 -0.6608 -1.1542 -0.1622
13942TIP3    H263318   6.103   4.650   5.111  0.4273 -0.0970  1.0290
13943TIP3   OH263319   2.148   6.327  15.576 -0.3071 -0.6475 -0.5572
13943TIP3    H163320   2.241   6.343  15.559 -0.3377  1.3572  0.7813
13943TIP3    H263321   2.134   6.357  15.666 -1.4291 -4.8092  0.8784
13944TIP3   OH263322   5.345   5.008   4.331  0.0960  0.6591  0.0921
13944TIP3    H163323   5.321   4.941   4.266 -0.5361  0.2131  0.7746
13944TIP3    H263324   5.380   4.957   4.405 -1.0841  1.0259  0.9229
13945TIP3   OH263325   0.703   3.051   4.027 -0.7812 -0.2936 -0.3092
13945TIP3    H163326   0.718   2.957   4.019 -2.3633 -0.7627  1.5510
13945TIP3    H263327   0.611   3.063   4.004 -0.7477  0.7339  0.0223
13946TIP3   OH263328   3.745   2.479   5.363 -0.2055 -0.0136 -0.5119
13946TIP3    H163329   3.831   2.517   5.379  0.0805 -1.0266  0.4164
13946TIP3    H263330   3.723   2.506   5.273  1.3090 -0.2154 -0.9594
13947TIP3   OH263331   4.764   0.191  17.000 -0.2649 -0.7410  0.0414
13947TIP3    H163332   4.816   0.238  17.065 -2.4787  2.1582 -0.0714
13947TIP3    H263333   4.703   0.138  17.052 -1.4597  0.9046  0.3686
13948TIP3   OH263334   0.036   5.713  14.772  0.3742 -0.2187  0.1343
13948TIP3    H163335   0.020   5.795  14.818  1.7301 -0.5582  1.2948
13948TIP3    H263336   0.128   5.692  14.791 -0.1039 -2.3268  0.4257
13949TIP3   OH263337   0.202   2.826  16.450  0.2221 -0.8367  0.9299
13949TIP3    H163338   0.215   2.911  16.493  1.3933 -1.0480  1.0347
13949TIP3    H263339   0.119   2.794  16.485 -1.3530  1.1767 -0.6652
13950TIP3   OH263340   1.950   2.351  16.155 -0.0342  0.1685  0.1840
13950TIP3    H163341   1.861   2.352  16.121  0.4088 -0.5357 -1.0648
13950TIP3    H263342   1.963   2.262  16.186  0.4455  0.0794 -0.2536
13951TIP3   OH263343   1.309   3.259   3.165 -0.0981 -0.4574 -0.0347
13951TIP3    H163344   1.331   3.341   3.121  0.1374 -0.2387  0.4767
13951TIP3    H263345   1.294   3.285   3.256  3.2429 -1.4047  0.9247
13952TIP3   OH263346   4.490   1.839  13.492 -0.3119  0.2391  0.1771
13952TIP3    H163347   4.440   1.817  13.570 -1.0287 -0.3776 -0.4430
13952TIP3    H263348   4.448   1.917  13.457 -0.1476  0.3705  0.2747
13953TIP3   OH263349   5.808   1.026   6.059 -0.1960  0.2074 -0.4602
13953TIP3    H163350   5.840   1.028   5.969 -1.0060 -0.1869 -0.7693
13953TIP3    H263351   5.859   0.957   6.102  1.5800  1.6894 -0.0453
13954TIP3   OH263352   6.113   2.409  12.909 -0.5957 -0.4016 -0.5361
13954TIP3    H163353   6.089   2.317  12.896  1.9638 -1.2428  0.1113
13954TIP3    H263354   6.139   2.414  13.001 -0.6348  0.9672 -0.5830
13955TIP3   OH263355   5.247   0.295   0.941 -0.2678 -0.1574 -0.0604
13955TIP3    H163356   5.178   0.232   0.965 -1.0931  0.8251  0.2091
13955TIP3    H263357   5.321   0.240   0.917 -1.9975 -1.3663 -3.2308
13956TIP3   OH263358   1.531   6.113  14.081 -0.0560  0.4135  0.0773
13956TIP3    H163359   1.496   6.056  14.150 -0.7019  2.1348  1.2304
13956TIP3    H263360   1.620   6.132  14.109 -0.0290  0.4316 -0.0207
13957TIP3   OH263361   4.478   6.012   4.119  0.3818 -0.1282 -0.2311
13957TIP3    H163362   4.463   6.046   4.031  0.0077  1.3561  0.3845
13957TIP3    H263363   4.479   5.917   4.107 -1.7200 -0.0562 -1.5206
13958TIP3   OH263364   2.669   6.252   3.879 -0.9526  0.2519 -0.1189
13958TIP3    H163365   2.762   6.275   3.873 -1.5368  2.7381 -0.8839
13958TIP3    H263366   2.661   6.174   3.825  0.5343  0.5343 -0.8141
13959TIP3   OH263367   2.224   5.769  15.548 -0.0180 -0.6352 -0.1881
13959TIP3    H163368   2.229   5.864  15.533  1.1545 -0.5769  0.4622
13959TIP3    H263369   2.311   5.737  15.526  0.2256 -1.2551  1.5436
13960TIP3   OH263370   1.284   0.863   0.417  0.0192  0.5523 -0.1684
13960TIP3    H163371   1.355   0.882   0.478 -0.0357  1.0129 -0.2437
13960TIP3    H263372   1.308   0.780   0.377 -0.7306 -0.6100  1.6452
13961TIP3   OH263373   1.732   3.123  14.924 -0.8623 -1.2953  0.2168
13961TIP3    H163374   1.750   3.145  15.016 -1.0205 -1.7274  0.3517
13961TIP3    H263375   1.818   3.130  14.881 -0.9903  0.0944  0.1421
13962TIP3   OH263376   6.322   2.338  16.155 -0.0064  0.6597 -0.6114
13962TIP3    H163377   6.346   2.356  16.246 -0.2533  5.0989 -1.2054
13962TIP3    H263378   6.382   2.269  16.127  1.2729  0.4334  2.3881
13963TIP3   OH263379   3.604   6.508   1.595 -0.4396  0.0589  0.2435
13963TIP3    H163380   3.617   6.603   1.594  2.6974 -0.2507  0.1135
13963TIP3    H263381   3.588   6.486   1.686 -0.3876  0.6275  0.3913
13964TIP3   OH263382   3.381   6.021  15.577  0.1851  0.6772 -0.0295
13964TIP3    H163383   3.321   6.094  15.564 -1.1110 -0.5043 -0.9823
13964TIP3    H263384   3.424   6.011  15.492  0.5353  0.4632  0.1692
13965TIP3   OH263385   6.034   3.564  10.865 -0.0376  0.0303  0.8510
13965TIP3    H163386   5.972   3.630  10.837  0.2070 -0.3439 -0.6569
13965TIP3    H263387   6.069   3.597  10.947 -2.0694  0.3376  1.6523
13966TIP3   OH263388   2.237   4.585  12.352 -0.3002  0.6368 -0.1378
13966TIP3    H163389   2.202   4.554  12.436 -0.6664 -0.0513 -0.5254
13966TIP3    H263390   2.330   4.601  12.368 -0.4106  0.6862  0.4473
13967TIP3   OH263391   4.400   0.176   5.210  0.0939  0.1827 -0.3300
13967TIP3    H163392   4.417   0.232   5.286 -0.7312  0.3221 -0.2443
13967TIP3    H263393   4.333   0.115   5.240  0.4671 -0.3891 -0.6512
13968TIP3   OH263394   4.213   1.295   5.884  0.1176 -0.4171  0.2018
13968TIP3    H163395   4.145   1.358   5.862 -1.2259 -1.5669  0.9380
13968TIP3    H263396   4.258   1.334   5.960 -2.0513 -1.2175  2.0025
13969TIP3   OH263397   4.135   2.887   4.957  0.3032  0.5942  0.3646
13969TIP3    H163398   4.071   2.953   4.981  0.5847  0.9323  0.1949
13969TIP3    H263399   4.202   2.935   4.908 -0.3120 -0.0844 -1.2048
13970TIP3   OH263400   6.445   0.279  12.109  0.4316  0.1965 -0.4074
13970TIP3    H163401   6.472   0.371  12.116  1.9771 -0.1660 -1.2956
13970TIP3    H263402   6.375   0.270  12.174 -1.9295  2.7495 -2.3159
13971TIP3   OH263403   3.601   0.570   3.922  1.2366  0.3882  0.1802
13971TIP3    H163404   3.582   0.646   3.867  1.7857  1.9762  2.0652
13971TIP3    H263405   3.656   0.605   3.992  2.4904 -1.9987  0.4914
13972TIP3   OH263406   3.373   2.381   5.080  0.3427  0.2965  0.0614
13972TIP3    H163407   3.297   2.407   5.132  0.2145 -0.6633  0.3689
13972TIP3    H263408   3.413   2.311   5.130  1.0574  0.3497 -0.4277
13973TIP3   OH263409   2.351   5.395  12.396 -0.3880  0.0351  0.5173
13973TIP3    H163410   2.332   5.488  12.406 -0.2667  0.0797  0.3468
13973TIP3    H263411   2.288   5.365  12.330 -2.2858 -0.6153  2.5154
13974TIP3   OH263412   0.929   2.874   3.525  0.0500 -0.2315 -0.2697
13974TIP3    H163413   0.950   2.955   3.477  1.4698  0.0901  0.8162
13974TIP3    H263414   0.869   2.827   3.467  0.0593  1.0894 -1.4204
13975TIP3   OH263415   2.255   4.653   1.213 -0.0348  0.3507  0.3208
13975TIP3    H163416   2.343   4.687   1.229  0.7946 -0.5178 -1.9734
13975TIP3    H263417   2.241   4.667   1.119 -3.0397  1.9390  0.8707
13976TIP3   OH263418   4.330   3.253   2.504  0.4946  0.0179  0.4622
13976TIP3    H163419   4.372   3.330   2.466 -0.0630 -0.4741 -1.2457
13976TIP3    H263420   4.357   3.254   2.596  0.5637  2.1853  0.4736
13977TIP3   OH263421   3.759   6.196  16.153 -0.5406 -0.6803  0.3396
13977TIP3    H163422   3.763   6.174  16.246 -0.7181  0.0167  0.5135
13977TIP3    H263423   3.798   6.120  16.109  2.6145  0.3268  1.1650
13978TIP3   OH263424   5.577   5.896  17.118  0.2562  0.4755  0.6229
13978TIP3    H163425   5.588   5.802  17.126 -0.5240  0.2913 -0.2590
13978TIP3    H263426   5.636   5.921  17.047 -0.3478  0.4637  0.1048
13979TIP3   OH263427   3.709   0.728  16.319  0.2897 -0.1800  0.2343
13979TIP3    H163428   3.699   0.662  16.388  0.7770  1.6405  2.1663
13979TIP3    H263429   3.639   0.792  16.337  1.3578  1.0989 -0.0111
13980TIP3   OH263430   3.002   5.960   3.705 -0.2826 -0.1884 -0.2778
13980TIP3    H163431   3.081   5.935   3.656 -0.3009 -0.7020 -0.0574
13980TIP3    H263432   2.984   6.049   3.677  0.0973 -0.2368 -0.7011
13981TIP3   OH263433   1.549   5.073   5.403 -0.2640 -0.0213 -0.1586
13981TIP3    H163434   1.497   4.998   5.430 -0.6164  0.1282 -0.4101
13981TIP3    H263435   1.551   5.130   5.479  0.2318 -0.4064  0.1212
13982TIP3   OH263436   5.614   1.733  13.590  0.0181  0.0289 -0.3595
13982TIP3    H163437   5.522   1.707  13.586 -0.0209  0.2139 -0.6780
13982TIP3    H263438   5.638   1.721  13.682 -0.5492  0.7398 -0.1060
13983TIP3   OH263439   1.640   0.859  13.229 -0.1808  0.2271 -0.3875
13983TIP3    H163440   1.667   0.773  13.262  0.9812  0.0627 -1.7126
13983TIP3    H263441   1.716   0.915  13.244 -0.1935  0.5202 -1.3965
13984TIP3   OH263442   1.432   0.931   0.900 -0.0402  0.4937 -0.3364
13984TIP3    H163443   1.382   0.871   0.845 -0.0441  0.3772 -0.2075
13984TIP3    H263444   1.492   0.874   0.948 -0.8527  0.4506  0.6706
13985TIP3   OH263445   3.253   6.058  13.403  0.7512 -0.4625 -0.3751
13985TIP3    H163446   3.186   6.087  13.341 -0.0389  1.0887  1.1158
13985TIP3    H263447   3.215   5.980  13.444 -0.0484  0.2204  0.2283
13986TIP3   OH263448   1.230   6.281  12.578 -0.0900 -0.3877  0.2636
13986TIP3    H163449   1.198   6.320  12.660 -1.0875 -0.2106 -0.2026
13986TIP3    H263450   1.316   6.246  12.601  1.2712  2.8277  0.4949
13987TIP3   OH263451   1.435   0.862  15.833 -0.3571 -0.0524  0.1951
13987TIP3    H163452   1.383   0.827  15.760 -0.7232 -0.2080  0.5263
13987TIP3    H263453   1.484   0.935  15.795 -0.5054 -0.1650 -0.2197
13988TIP3   OH263454   1.625   1.105   1.515 -0.4246  0.4567 -0.2103
13988TIP3    H163455   1.579   1.045   1.574 -1.3575 -2.3881 -3.5014
13988TIP3    H263456   1.561   1.174   1.497 -1.3968 -0.4893 -0.4845
13989TIP3   OH263457   5.426   0.011   1.327 -0.0163 -1.1778  0.5274
13989TIP3    H163458   5.411   0.103   1.348 -1.2577 -1.9179  3.3844
13989TIP3    H263459   5.347  -0.016   1.281  1.1963 -0.4368 -2.2182
13990TIP3   OH263460   2.243   6.382   3.994  0.2432 -0.0157 -0.2105
13990TIP3    H163461   2.256   6.474   3.971 -0.9668 -0.0322 -1.0658
13990TIP3    H263462   2.331   6.346   3.997  0.6539  0.7810 -1.6085
13991TIP3   OH263463   1.932   6.131  17.234 -0.3166  0.1715 -0.1056
13991TIP3    H163464   1.869   6.062  17.216 -1.3241  0.6068  1.5035
13991TIP3    H263465   2.015   6.086  17.247 -1.1594 -0.9168  2.0013
13992TIP3   OH263466   6.031   0.364   3.257 -0.0737 -0.3938  0.4587
13992TIP3    H163467   5.940   0.371   3.285 -0.2845  0.8814 -0.4898
13992TIP3    H263468   6.037   0.277   3.216 -0.6398 -0.8189  1.2465
13993TIP3   OH263469   4.239   1.702   2.027 -0.4082 -0.1491 -0.2665
13993TIP3    H163470   4.274   1.785   2.058  1.7229 -1.3523  0.8031
13993TIP3    H263471   4.188   1.669   2.101  0.9177 -0.9289  0.3505
13994TIP3   OH263472   4.185   2.414  15.850  0.0857 -0.0339 -0.7158
13994TIP3    H163473   4.277   2.388  15.840  0.0706  0.3777 -2.0815
13994TIP3    H263474   4.153   2.426  15.761 -0.7356  1.8157 -0.2235
13995TIP3   OH263475   2.430   3.544  14.843 -0.5482  0.0532  0.0353
13995TIP3    H163476   2.431   3.588  14.758  0.6233  0.8679  0.4460
13995TIP3    H263477   2.353   3.579  14.888  0.4244  1.8017  0.3974
13996TIP3   OH263478   5.973   4.558   5.567 -0.1673  0.1291  0.1174
13996TIP3    H163479   5.880   4.536   5.576 -0.3912  1.2079  0.7145
13996TIP3    H263480   5.990   4.617   5.640  0.6134  1.1390 -0.8450
13997TIP3   OH263481   1.468   2.465   2.279  0.1524  0.2684  0.1693
13997TIP3    H163482   1.454   2.556   2.251 -0.1057  0.1138 -0.2082
13997TIP3    H263483   1.489   2.472   2.372 -0.5595  0.6636  0.3126
13998TIP3   OH263484   4.261   4.982  15.161  0.1537 -0.3784  0.4600
13998TIP3    H163485   4.266   4.898  15.208  0.8322 -0.5650  0.0738
13998TIP3    H263486   4.176   5.018  15.185 -0.5826 -1.6508 -0.1446
13999TIP3   OH263487   5.788   4.841  12.288 -0.5052  0.1454  0.6547
13999TIP3    H163488   5.767   4.896  12.213 -1.5169  2.0547  2.2529
13999TIP3    H263489   5.854   4.779  12.255  1.9959  3.3332 -0.8529
14000TIP3   OH263490   5.136   2.893   0.486  0.2030 -0.1614 -0.5525
14000TIP3    H163491   5.052   2.928   0.459  0.0396 -0.2707 -0.2017
14000TIP3    H263492   5.146   2.812   0.435  1.1471  0.9841 -2.2756
14001TIP3   OH263493   4.127   2.565  13.553  0.7090 -0.1703  0.0351
14001TIP3    H163494   4.086   2.559  13.639  1.4060 -0.3664  0.3536
14001TIP3    H263495   4.073   2.629  13.506 -0.7830 -1.4135 -0.0201
14002TIP3   OH263496   5.940   0.023   3.701 -0.0930 -0.2794 -0.9756
14002TIP3    H163497   5.890   0.002   3.622  0.9923 -1.1578 -1.4544
14002TIP3    H263498   5.974  -0.062   3.731 -0.9730 -0.0501  0.7854
14003TIP3   OH263499   1.022   2.403  16.365 -0.1685 -0.5456  0.0472
14003TIP3    H163500   1.058   2.470  16.424 -0.9072 -0.0834 -0.0087
14003TIP3    H263501   0.930   2.428  16.354 -0.2592 -1.1321 -0.5994
14004TIP3   OH263502   5.753   6.094   6.899  0.3319  0.0030  0.0757
14004TIP3    H163503   5.702   6.167   6.862  0.7673 -0.4424 -1.4371
14004TIP3    H263504   5.844   6.119   6.885  0.4919 -1.1671 -1.1980
14005TIP3   OH263505   2.920   4.418   3.828 -0.2044  0.4275  0.6367
14005TIP3    H163506   2.933   4.328   3.859 -2.5377 -0.3477 -0.4335
14005TIP3    H263507   3.007   4.458   3.834  1.4264 -2.5545 -0.8712
14006TIP3   OH263508   6.347   0.477   4.262 -0.3626 -0.2332 -0.1213
14006TIP3    H163509   6.387   0.537   4.325  2.6347 -0.5344 -1.5632
14006TIP3    H263510   6.408   0.404   4.256 -3.2192 -2.8852  0.5187
14007TIP3   OH263511   4.560   3.870   5.483 -0.1201 -0.4404  0.4020
14007TIP3    H163512   4.500   3.809   5.526 -1.0068  0.5359  0.5724
14007TIP3    H263513   4.607   3.912   5.555 -0.6697  0.2430  0.3688
14008TIP3   OH263514   4.948   3.274  12.441  0.2052  0.0966 -0.0541
14008TIP3    H163515   4.904   3.346  12.486  0.6181  0.0308  0.4685
14008TIP3    H263516   5.020   3.249  12.500 -0.6440 -1.5350  0.3600
14009TIP3   OH263517   6.641   4.470  13.105  0.5694  0.0416  0.1098
14009TIP3    H163518   6.675   4.396  13.055  0.2243 -0.4293  0.5638
14009TIP3    H263519   6.640   4.439  13.196  0.7872  0.7352  0.3528
14010TIP3   OH263520   3.362   3.596   3.998 -0.3999  0.1540 -0.0481
14010TIP3    H163521   3.448   3.624   3.966 -0.0868 -0.9182 -0.1702
14010TIP3    H263522   3.356   3.633   4.086 -0.1076  0.8091 -0.2957
14011TIP3   OH263523   4.126   6.270  14.444 -0.1280  0.2305 -0.1727
14011TIP3    H163524   4.176   6.280  14.525  1.9782 -0.6056 -1.3033
14011TIP3    H263525   4.047   6.323  14.458  0.3616  0.4258  2.2449
14012TIP3   OH263526   1.594   4.940  14.626 -0.5954 -0.3663 -0.3159
14012TIP3    H163527   1.680   4.903  14.605 -0.3608  0.5980 -1.1155
14012TIP3    H263528   1.557   4.965  14.542 -0.5654  1.5733  0.2150
14013TIP3   OH263529   3.227   5.678   5.593 -0.0679  0.0552  0.6838
14013TIP3    H163530   3.195   5.593   5.561  2.4185 -0.5636 -0.4016
14013TIP3    H263531   3.175   5.742   5.544 -2.8003 -0.7065  2.3461
14014TIP3   OH263532   2.135   6.061  12.169  0.3374 -0.4993  0.3616
14014TIP3    H163533   2.098   5.990  12.116  1.4214 -2.0088  1.5248
14014TIP3    H263534   2.061   6.119  12.186 -0.3972 -0.8481 -1.3627
14015TIP3   OH263535   4.483   4.787  12.998  0.1126  0.5634 -0.6539
14015TIP3    H163536   4.476   4.869  13.047 -0.9879  0.4402 -0.5703
14015TIP3    H263537   4.490   4.814  12.907 -1.4954  0.7703 -0.7541
14016TIP3   OH263538   6.331   4.058  15.815  0.3008  0.2135 -0.2370
14016TIP3    H163539   6.280   4.128  15.774 -0.6329 -0.5162 -0.3448
14016TIP3    H263540   6.274   4.022  15.883  0.9216 -0.1834  0.0842
14017TIP3   OH263541   2.171   3.157   1.939  0.0312 -0.2987  0.2374
14017TIP3    H163542   2.233   3.171   1.868  0.8776  0.9314  1.1689
14017TIP3    H263543   2.220   3.105   2.003 -0.0804  0.1948  0.7328
14018TIP3   OH263544   1.874   4.039   2.921 -0.1542 -0.0322  0.1487
14018TIP3    H163545   1.925   3.958   2.921 -0.4417 -0.2284 -0.5350
14018TIP3    H263546   1.906   4.089   2.996 -0.8011 -1.3000  1.3237
14019TIP3   OH263547   4.014   2.979  14.910 -0.2106  0.0245 -0.4821
14019TIP3    H163548   3.960   3.058  14.907 -0.9677 -0.4809 -3.6932
14019TIP3    H263549   3.951   2.906  14.902  0.7168 -0.6831 -1.7047
14020TIP3   OH263550   2.657   0.000   5.857 -0.4603 -0.1692 -0.3708
14020TIP3    H163551   2.562   0.005   5.870 -0.4788 -1.1115 -0.0494
14020TIP3    H263552   2.692   0.073   5.908 -0.9926  0.0246 -0.2747
14021TIP3   OH263553   3.751   2.943   5.900 -0.1227 -0.1715 -0.3105
14021TIP3    H163554   3.724   2.959   5.990 -0.6511  1.3316 -0.7034
14021TIP3    H263555   3.706   3.011   5.849  0.7265 -0.5451 -1.6130
14022TIP3   OH263556   3.393   4.563  17.054  0.1088  0.1740 -0.3928
14022TIP3    H163557   3.402   4.552  16.960 -2.1696 -0.1876 -0.6179
14022TIP3    H263558   3.334   4.637  17.065 -0.0427 -0.0878  0.7325
14023TIP3   OH263559   0.418   2.095   3.496 -0.0419  0.2165  0.3898
14023TIP3    H163560   0.330   2.060   3.482  0.2056 -0.2916  0.0228
14023TIP3    H263561   0.408   2.160   3.565 -1.0178  1.4402 -0.8530
14024TIP3   OH263562   0.197   0.643  16.485 -0.0244 -0.2202 -0.1936
14024TIP3    H163563   0.152   0.581  16.428 -1.0533  0.4474 -0.1358
14024TIP3    H263564   0.144   0.723  16.479  0.2390  0.0680  1.1586
14025TIP3   OH263565   3.637   2.543   2.693  0.2002 -0.0745  0.5782
14025TIP3    H163566   3.683   2.465   2.725 -1.1527 -1.2494 -0.2052
14025TIP3    H263567   3.707   2.607   2.678  1.3058 -0.9581  1.6904
14026TIP3   OH263568   1.892   0.898   2.455 -0.2669  0.1163  0.7090
14026TIP3    H163569   1.920   0.808   2.470 -0.7825 -0.4486 -1.3240
14026TIP3    H263570   1.805   0.890   2.416 -0.6661  1.5441  1.2427
14027TIP3   OH263571   0.013   3.851   3.999  0.4738 -0.0997 -0.3932
14027TIP3    H163572   0.055   3.833   4.083  0.1747 -0.8239 -0.3915
14027TIP3    H263573   0.048   3.784   3.940 -0.6413 -0.6977 -0.4006
14028TIP3   OH263574   5.168   2.523  15.466 -0.0242 -0.2304  0.4149
14028TIP3    H163575   5.103   2.546  15.532  0.1510  1.1161  0.1335
14028TIP3    H263576   5.143   2.573  15.388 -0.5345 -2.1659 -0.7499
14029TIP3   OH263577   6.448   4.551   5.865  0.0364 -0.0352  0.1965
14029TIP3    H163578   6.486   4.464   5.878  1.0217  0.2486 -0.6118
14029TIP3    H263579   6.498   4.588   5.792 -1.6374  0.4774 -0.7476
14030TIP3   OH263580   0.484   0.350  16.963  0.0092  0.8798 -0.3741
14030TIP3    H163581   0.570   0.381  16.935  0.3642  0.4857  0.2582
14030TIP3    H263582   0.443   0.426  17.005  0.5989  0.7084  0.5454
14031TIP3   OH263583   0.695   2.024   4.477 -0.1637  0.2170 -0.0834
14031TIP3    H163584   0.790   2.029   4.488 -0.1976 -1.3834  1.1699
14031TIP3    H263585   0.682   1.963   4.405 -0.2475  2.5175 -2.1807
14032TIP3   OH263586   0.989   3.199  13.830 -0.0939  0.1656  0.3212
14032TIP3    H163587   1.082   3.192  13.808 -0.2164 -0.2061 -0.0940
14032TIP3    H263588   0.944   3.173  13.750 -0.5793  2.6794 -0.3045
14033TIP3   OH263589   2.576   6.181  12.303 -0.3034 -0.0401 -0.2661
14033TIP3    H163590   2.671   6.191  12.298 -0.2585  1.0643  1.6575
14033TIP3    H263591   2.564   6.090  12.328  0.2188 -0.2763 -0.8283
14034TIP3   OH263592   4.402   6.449  12.684 -0.0405  0.1663 -0.9026
14034TIP3    H163593   4.479   6.393  12.679 -0.6108 -0.6421 -0.8736
14034TIP3    H263594   4.345   6.418  12.613  1.0071  2.8889 -3.0911
14035TIP3   OH263595   0.985   5.119  14.204 -0.2336 -0.7578 -0.0363
14035TIP3    H163596   1.049   5.054  14.173  0.4211 -0.1160 -0.0726
14035TIP3    H263597   0.942   5.149  14.124 -2.9292 -3.4941  0.2210
14036TIP3   OH263598   4.830   0.443   5.137 -0.1093  0.8609  0.2446
14036TIP3    H163599   4.750   0.478   5.176  1.1958  1.9463  2.1655
14036TIP3    H263600   4.835   0.353   5.169 -2.2907 -0.5017 -2.8150
14037TIP3   OH263601   5.827   5.216  14.728  0.1060 -0.5294 -0.0138
14037TIP3    H163602   5.846   5.285  14.663 -3.5578 -1.8528 -2.8663
14037TIP3    H263603   5.807   5.264  14.808 -1.6229  1.8469 -1.7043
14038TIP3   OH263604   0.786   2.767  11.790 -0.0544  0.2196  0.7183
14038TIP3    H163605   0.856   2.703  11.806 -1.1950 -0.8465  1.6534
14038TIP3    H263606   0.712   2.736  11.843 -1.0992  1.5662  0.1184
14039TIP3   OH263607   1.625   2.312   0.669 -0.1303 -0.7198  0.3545
14039TIP3    H163608   1.712   2.289   0.702  0.1200 -0.2807  0.0201
14039TIP3    H263609   1.638   2.397   0.628 -0.7154 -0.6719  0.2699
14040TIP3   OH263610   1.181   6.568   2.828 -0.6149 -0.0294  0.2684
14040TIP3    H163611   1.154   6.659   2.819 -3.3695 -0.7651  0.0409
14040TIP3    H263612   1.173   6.550   2.922  1.9212  0.4306  0.6464
14041TIP3   OH263613   0.400   3.156  17.049  0.3340  0.2918  0.0860
14041TIP3    H163614   0.440   3.124  16.968 -0.2822  1.8377 -0.8598
14041TIP3    H263615   0.426   3.248  17.055 -2.2240  1.1032 -0.0747
14042TIP3   OH263616   4.579   2.969  10.899 -0.3002  0.3991  0.0456
14042TIP3    H163617   4.591   2.939  10.989  1.0302 -1.2667 -0.6436
14042TIP3    H263618   4.666   2.996  10.871 -0.9487  2.2816 -0.3295
14043TIP3   OH263619   2.447   1.758   3.891 -0.6755  0.3466  0.1359
14043TIP3    H163620   2.397   1.839   3.889 -0.1623  0.6913 -2.7002
14043TIP3    H263621   2.394   1.698   3.944 -1.3483  2.2958  1.7871
14044TIP3   OH263622   6.046   3.018  11.835  0.7146 -0.4457 -0.1298
14044TIP3    H163623   5.956   3.041  11.813  0.4480  1.9979  2.8683
14044TIP3    H263624   6.100   3.077  11.782  0.4159  0.3467  0.4481
14045TIP3   OH263625   0.663   4.784   5.231  0.3339 -0.1371  0.2575
14045TIP3    H163626   0.628   4.850   5.170  0.0758 -0.1818  0.3552
14045TIP3    H263627   0.748   4.819   5.258  0.1348  0.2278  0.4208
14046TIP3   OH263628   5.920   5.679  15.293  0.2754 -0.2243  0.4741
14046TIP3    H163629   5.999   5.732  15.296  1.3920 -1.8447  1.4266
14046TIP3    H263630   5.882   5.697  15.207  0.6384  1.9725  0.7181
14047TIP3   OH263631   1.715   6.758   6.762  0.1330  0.2133 -0.6665
14047TIP3    H163632   1.749   6.843   6.788 -1.8065  1.0067 -0.5741
14047TIP3    H263633   1.764   6.735   6.683  1.2790  0.9890 -0.2077
14048TIP3   OH263634   4.998   4.096  14.338 -0.5328  0.0692  0.1735
14048TIP3    H163635   5.089   4.107  14.312 -0.6077 -0.0573 -0.1484
14048TIP3    H263636   4.987   4.002  14.349 -0.8819 -0.0074 -0.7526
14049TIP3   OH263637   3.223   1.754  10.786  0.0770 -0.5163 -0.4623
14049TIP3    H163638   3.169   1.688  10.743 -3.1265  1.2654  0.4721
14049TIP3    H263639   3.212   1.738  10.879 -1.0836  1.4115 -0.1972
14050TIP3   OH263640   6.235   4.432   3.053  0.3546  0.4944 -0.6040
14050TIP3    H163641   6.250   4.393   2.967  0.8968  1.5828 -1.0107
14050TIP3    H263642   6.151   4.478   3.044 -1.3021 -2.0899  0.4423
14051TIP3   OH263643   0.305   3.155   6.531  0.3937 -0.0436 -0.1745
14051TIP3    H163644   0.289   3.093   6.602  0.1744  0.8185  0.5545
14051TIP3    H263645   0.218   3.177   6.498  0.4657 -0.0861 -0.3933
14052TIP3   OH263646   1.822   6.486   5.003 -1.0725  0.5133 -0.1514
14052TIP3    H163647   1.916   6.507   4.999 -0.7747 -0.9536 -2.7245
14052TIP3    H263648   1.779   6.567   4.976 -0.5919  1.2214  1.1083
14053TIP3   OH263649   0.820   1.039   2.075 -0.3137 -0.1811  0.3689
14053TIP3    H163650   0.812   1.132   2.098 -1.4107  0.0003 -0.6349
14053TIP3    H263651   0.914   1.022   2.075 -0.0385  1.1905 -0.3726
14054TIP3   OH263652   4.895   4.695   1.798  0.1855 -0.1990 -0.0383
14054TIP3    H163653   4.868   4.620   1.744 -1.7863  0.2639  0.2375
14054TIP3    H263654   4.991   4.698   1.787  0.0921 -1.4172 -1.7796
14055TIP3   OH263655   6.762   2.486   5.796  0.1678  0.1085 -0.2516
14055TIP3    H163656   6.744   2.475   5.703 -3.1217 -0.1904  0.2900
14055TIP3    H263657   6.707   2.560   5.823 -0.1332 -0.7458  1.6991
14056TIP3   OH263658   6.102   6.208   4.399  0.5107 -0.5187 -0.7662
14056TIP3    H163659   6.151   6.159   4.333  1.7335  0.2842 -0.5001
14056TIP3    H263660   6.170   6.251   4.452 -0.2991 -2.6637  2.2993
14057TIP3   OH263661   1.184   6.487   5.135  0.9550  0.3118 -0.1578
14057TIP3    H163662   1.173   6.423   5.205 -0.8303  0.7794  0.0397
14057TIP3    H263663   1.212   6.567   5.179 -1.0945  0.8839  0.2177
14058TIP3   OH263664   1.723   1.490  16.858  0.1617  0.5755 -0.2528
14058TIP3    H163665   1.664   1.415  16.862  0.9100 -0.4224 -4.0601
14058TIP3    H263666   1.784   1.476  16.931 -1.3652 -0.9753  0.8112
14059TIP3   OH263667   0.359   4.939   1.661 -0.1620  0.2157  0.2100
14059TIP3    H163668   0.379   4.908   1.572  0.4627  1.5633 -0.1364
14059TIP3    H263669   0.425   4.898   1.716 -0.0137  0.0663 -0.0761
14060TIP3   OH263670   5.062   1.847   6.294  0.4711  0.0082 -0.0854
14060TIP3    H163671   4.991   1.804   6.342  0.9410 -0.9472 -0.2161
14060TIP3    H263672   5.134   1.852   6.358 -0.1682  2.3585  0.5354
14061TIP3   OH263673   4.015   1.124   6.798 -0.0188  0.0456  0.0613
14061TIP3    H163674   4.046   1.033   6.794  1.0313  0.4335 -1.7394
14061TIP3    H263675   3.925   1.119   6.767 -0.4505 -0.5338  1.3166
14062TIP3   OH263676   6.028   3.091   5.428  0.1596  0.8040  0.0122
14062TIP3    H163677   6.077   3.159   5.475 -0.8300  0.8307  1.0463
14062TIP3    H263678   6.033   3.014   5.484 -1.8265  1.1022  0.6820
14063TIP3   OH263679   0.321   4.878  15.712 -0.3777 -0.6764  0.2348
14063TIP3    H163680   0.405   4.906  15.675 -0.0836  0.8534  1.8824
14063TIP3    H263681   0.265   4.863  15.637  0.7623  0.3434 -0.8678
14064TIP3   OH263682   1.092   2.376   2.408  0.2369 -1.0211 -0.4140
14064TIP3    H163683   1.104   2.360   2.315  1.0902 -0.3265 -0.4410
14064TIP3    H263684   1.138   2.458   2.424 -2.4009  0.4795  0.0464
14065TIP3   OH263685   2.490   4.768  14.130 -0.5117  0.1898  0.0321
14065TIP3    H163686   2.400   4.741  14.110 -0.9061  1.3340  0.1796
14065TIP3    H263687   2.487   4.864  14.130  0.9684  0.2693 -1.1331
14066TIP3   OH263688   2.473   1.732   5.811 -0.4217  0.1753  0.1551
14066TIP3    H163689   2.399   1.783   5.843  0.7464  1.3924  1.0753
14066TIP3    H263690   2.513   1.696   5.891  0.0421 -0.3534 -0.3081
14067TIP3   OH263691   5.233   0.776   0.736 -0.5084 -0.5127 -0.3907
14067TIP3    H163692   5.314   0.740   0.700 -0.1421  0.2364 -0.3234
14067TIP3    H263693   5.237   0.757   0.830  2.0072  3.8126  0.6178
14068TIP3   OH263694   5.012   4.182  13.067 -0.0684  0.8388 -0.2561
14068TIP3    H163695   5.105   4.165  13.056 -0.3591 -0.3621 -0.9813
14068TIP3    H263696   4.970   4.138  12.993 -1.2856  0.4888  0.6082
14069TIP3   OH263697   1.991   0.151  13.584 -0.2884 -0.3353  0.5694
14069TIP3    H163698   1.965   0.181  13.497 -0.9478 -0.3402  0.7570
14069TIP3    H263699   1.934   0.076  13.601  2.3738 -2.7928 -0.5474
14070TIP3   OH263700   6.445   3.183   2.253  0.0628  0.3613 -0.6022
14070TIP3    H163701   6.470   3.235   2.176 -2.0645  0.6981 -1.1405
14070TIP3    H263702   6.371   3.231   2.291  0.5083 -0.2776  1.1721
14071TIP3   OH263703   4.760   6.489  14.745  0.1527  0.0623 -0.1832
14071TIP3    H163704   4.749   6.555  14.676  0.1707 -0.1336 -0.3751
14071TIP3    H263705   4.842   6.446  14.724  0.3111  0.2056  0.1349
14072TIP3   OH263706   0.922   0.329  11.737 -0.4953  0.3410  0.3995
14072TIP3    H163707   0.881   0.295  11.816 -2.1021 -3.3179 -1.7309
14072TIP3    H263708   1.003   0.279  11.729 -1.1074 -0.5067 -0.9600
14073TIP3   OH263709   5.991   5.895  14.623  0.2971 -0.0483  0.1585
14073TIP3    H163710   5.908   5.907  14.668 -0.8713 -2.7425 -1.0204
14073TIP3    H263711   5.976   5.929  14.535  0.2007 -0.9956 -0.2130
14074TIP3   OH263712   5.060   6.054   1.977 -0.5428  0.3859  0.3352
14074TIP3    H163713   5.017   5.989   2.031  0.0213 -2.4298 -2.3288
14074TIP3    H263714   5.006   6.060   1.898  0.4968  1.6452 -0.3371
14075TIP3   OH263715   4.432   4.230   2.676 -0.1722 -0.0384 -0.1985
14075TIP3    H163716   4.473   4.183   2.603  0.3772  0.4935 -0.2403
14075TIP3    H263717   4.441   4.322   2.653  1.2000  0.2002  1.1283
14076TIP3   OH263718   2.817   0.802  15.245 -0.6050  0.7803 -0.6050
14076TIP3    H163719   2.848   0.713  15.260 -0.7688  0.6875 -0.8238
14076TIP3    H263720   2.742   0.812  15.304  0.3930  1.3229  0.6425
14077TIP3   OH263721   0.378   6.059  13.643  0.7883  0.2659 -0.0964
14077TIP3    H163722   0.419   5.979  13.611 -0.8319 -0.5333 -0.3179
14077TIP3    H263723   0.285   6.037  13.649  0.2715  2.1879 -0.3225
14078TIP3   OH263724   2.369   2.814  14.590 -0.7595  0.2545  0.0499
14078TIP3    H163725   2.342   2.722  14.584 -2.4616  0.6563  0.7421
14078TIP3    H263726   2.321   2.858  14.520 -0.5738  0.7371  0.2189
14079TIP3   OH263727   3.115   5.308  11.895  0.3799  0.5519 -0.6904
14079TIP3    H163728   3.130   5.366  11.970 -1.0228 -0.7349  0.6880
14079TIP3    H263729   3.079   5.228  11.934  0.6370 -0.5933 -2.6661
14080TIP3   OH263730   1.672   4.419   2.738 -0.4024  0.2052 -0.6011
14080TIP3    H163731   1.660   4.328   2.767 -0.2033  0.7399  1.2938
14080TIP3    H263732   1.765   4.425   2.717 -0.4347 -0.0510 -0.8256
14081TIP3   OH263733   5.503   3.164  12.126  0.0170  0.0101  0.1536
14081TIP3    H163734   5.450   3.244  12.133  2.0562  1.8062 -2.5029
14081TIP3    H263735   5.580   3.182  12.180  1.1763  0.5832 -1.5941
14082TIP3   OH263736   2.054   4.784   1.491 -0.4120 -0.0075  0.0049
14082TIP3    H163737   1.978   4.732   1.518 -0.4743 -0.1319 -0.3990
14082TIP3    H263738   2.028   4.822   1.407 -0.2012  0.3259  0.0875
14083TIP3   OH263739   5.052   5.684  15.202 -0.0311  0.7667  0.0262
14083TIP3    H163740   5.097   5.614  15.155 -0.6428  0.0162  0.5220
14083TIP3    H263741   5.119   5.724  15.256  0.1431 -0.0724  0.4534
14084TIP3   OH263742   5.638   2.299  14.327  0.5012  0.5812  0.6387
14084TIP3    H163743   5.666   2.391  14.331  1.0458  0.4450  0.1021
14084TIP3    H263744   5.571   2.297  14.260 -0.2074  0.7520  1.3244
14085TIP3   OH263745   4.251   1.444  10.526  0.3687  0.3569  0.0484
14085TIP3    H163746   4.250   1.534  10.561 -1.1378  0.8162 -1.0861
14085TIP3    H263747   4.159   1.422  10.514  0.6940 -1.4916  0.5823
14086TIP3   OH263748   5.399   0.477  17.029  0.0174 -0.0365  0.5462
14086TIP3    H163749   5.347   0.421  17.087 -2.2799  0.9095 -0.5008
14086TIP3    H263750   5.353   0.476  16.945  1.7137  0.8530 -0.4616
14087TIP3   OH263751   0.695   4.134   0.134 -0.0024 -0.6878 -0.0453
14087TIP3    H163752   0.767   4.086   0.093 -0.6988 -0.9770 -0.9685
14087TIP3    H263753   0.735   4.214   0.166  1.2644 -2.0154  1.8795
14088TIP3   OH263754   5.361   5.193   4.066 -0.2677 -0.3298  0.7780
14088TIP3    H163755   5.412   5.120   4.099 -0.3118 -1.1168 -0.8501
14088TIP3    H263756   5.399   5.270   4.109  0.1772 -1.2129  2.0308
14089TIP3   OH263757   3.833   5.270  16.952 -0.2836  0.0070 -0.5785
14089TIP3    H163758   3.779   5.342  16.920 -1.0517 -0.9715 -1.5681
14089TIP3    H263759   3.829   5.277  17.048 -3.3228 -0.8042 -0.5504
14090TIP3   OH263760   0.836   5.601  11.270 -0.5224 -0.2058 -0.0344
14090TIP3    H163761   0.830   5.518  11.222 -0.8308  0.0043 -0.3582
14090TIP3    H263762   0.919   5.595  11.317 -0.1586 -0.3714 -0.6816
14091TIP3   OH263763   0.548   1.850   3.976  0.4301 -0.5145  0.1138
14091TIP3    H163764   0.594   1.768   3.994  0.0537 -1.0081 -1.1013
14091TIP3    H263765   0.527   1.847   3.883  1.1712  1.3522 -0.1659
14092TIP3   OH263766   5.430   5.408  17.089 -0.6091  0.1628  0.8762
14092TIP3    H163767   5.418   5.469  17.016 -1.5055 -1.0153 -0.0260
14092TIP3    H263768   5.517   5.371  17.075 -1.8934 -2.3563 -1.5504
14093TIP3   OH263769   0.256   0.805   4.969  0.4435  0.2615 -0.4197
14093TIP3    H163770   0.238   0.839   4.881 -0.5740  0.1137 -0.2861
14093TIP3    H263771   0.339   0.758   4.960 -0.9070 -2.0263 -1.9860
14094TIP3   OH263772   1.856   5.502  11.616 -0.4800  0.1216 -0.3904
14094TIP3    H163773   1.826   5.483  11.526  3.7324  0.6138 -2.1170
14094TIP3    H263774   1.848   5.418  11.662 -0.4206 -0.8099 -1.9957
14095TIP3   OH263775   0.718   4.911   4.024 -0.7486  0.0136 -0.1390
14095TIP3    H163776   0.731   4.978   3.956 -0.1980  0.6645  0.5827
14095TIP3    H263777   0.791   4.851   4.012  0.1529  0.8964  0.7333
14096TIP3   OH263778   4.923   6.465  12.236 -0.0660 -0.0255 -0.2652
14096TIP3    H163779   4.993   6.473  12.301  1.2612 -1.8087 -1.4086
14096TIP3    H263780   4.852   6.518  12.272  1.2312  0.4450  1.7858
14097TIP3   OH263781   1.353   2.979  14.189 -0.4177 -0.3601  0.1998
14097TIP3    H163782   1.421   3.039  14.219  0.3468 -1.5500  0.9357
14097TIP3    H263783   1.329   2.929  14.267  0.4182 -2.3776 -0.7531
14098TIP3   OH263784   6.238   0.354   2.420  0.1034  0.1637 -0.4428
14098TIP3    H163785   6.312   0.370   2.362  2.0214 -0.0568  1.7909
14098TIP3    H263786   6.276   0.356   2.508 -1.5799 -4.5961  0.6926
14099TIP3   OH263787   0.673   3.240   4.757 -0.8494 -0.9873 -0.2606
14099TIP3    H163788   0.666   3.297   4.680  0.3761 -0.8569 -0.3077
14099TIP3    H263789   0.588   3.197   4.764 -0.6616 -1.8382 -2.3686
14100TIP3   OH263790   5.410   0.451  11.676  0.1835 -0.4672 -0.2626
14100TIP3    H163791   5.439   0.415  11.593  0.9568 -0.5965  0.0481
14100TIP3    H263792   5.480   0.429  11.738  0.2264  0.7066  0.1438
14101TIP3   OH263793   5.002   2.999   4.874  0.1473 -0.1254 -0.1155
14101TIP3    H163794   5.087   3.014   4.914  0.2029 -2.0799  0.5933
14101TIP3    H263795   4.961   3.086   4.870  1.3690  0.5441  1.3561
14102TIP3   OH263796   6.370   3.623   0.399 -0.8350 -0.0123  0.0447
14102TIP3    H163797   6.342   3.659   0.315 -0.0122 -0.0668 -0.2558
14102TIP3    H263798   6.324   3.539   0.405 -2.7493  1.0188  0.7473
14103TIP3   OH263799   0.766   3.649  17.234 -0.5165 -0.3995 -0.2491
14103TIP3    H163800   0.776   3.566  17.187 -1.2315 -1.2623  1.0631
14103TIP3    H263801   0.800   3.715  17.174 -1.1880 -1.4798 -1.8653
14104TIP3   OH263802   1.864   4.034   1.923  0.4013  0.1890 -0.3840
14104TIP3    H163803   1.879   4.116   1.876 -2.2072  0.3085 -1.2068
14104TIP3    H263804   1.819   3.978   1.859 -2.7894  0.1368  1.6569
14105TIP3   OH263805   2.139   1.325   0.639 -0.1532 -0.0626 -0.5727
14105TIP3    H163806   2.174   1.345   0.552  0.1478  1.1213 -0.2035
14105TIP3    H263807   2.066   1.265   0.623 -1.2898  1.5435 -1.8289
14106TIP3   OH263808   5.055   5.919   5.773  0.0808 -0.0924 -0.5061
14106TIP3    H163809   5.086   5.999   5.814 -0.5659  1.0106 -2.0784
14106TIP3    H263810   5.094   5.849   5.824  1.3315  1.2240  0.4073
14107TIP3   OH263811   5.122   1.686   6.664 -0.1123  0.0853  0.5751
14107TIP3    H163812   5.209   1.656   6.640 -0.4892  0.9044 -2.1475
14107TIP3    H263813   5.136   1.773   6.703  0.3109  0.0325  0.5425
14108TIP3   OH263814   4.874   4.614  11.028 -0.2823 -0.5847  0.1571
14108TIP3    H163815   4.896   4.675  11.098 -0.6448 -0.8482  0.5028
14108TIP3    H263816   4.880   4.666  10.948 -0.6822 -0.0721  0.4592
14109TIP3   OH263817   5.766   5.698   1.513 -0.1277  0.0326  0.2704
14109TIP3    H163818   5.822   5.656   1.579 -0.6949 -0.6250  0.3395
14109TIP3    H263819   5.824   5.761   1.470  0.3482  0.2120  1.1478
14110TIP3   OH263820   2.320   5.804  17.077  0.6485  0.4074  0.4983
14110TIP3    H163821   2.273   5.873  17.123 -0.9951 -0.6152  0.4459
14110TIP3    H263822   2.413   5.822  17.095  0.1850  1.5980  1.9264
14111TIP3   OH263823   1.687   6.303  11.010 -0.2222 -0.4034  0.3711
14111TIP3    H163824   1.767   6.254  11.024  0.4254  0.5847  0.2484
14111TIP3    H263825   1.713   6.377  10.954 -0.7522  1.1293  2.0432
14112TIP3   OH263826   3.120   2.248   0.842  0.7892  0.2761  0.6814
14112TIP3    H163827   3.043   2.266   0.788 -0.3283 -1.1047  1.7339
14112TIP3    H263828   3.177   2.196   0.786 -0.1720 -0.7912  0.6506
14113TIP3   OH263829   2.153   3.240   0.205 -0.5067  0.5930  0.1493
14113TIP3    H163830   2.136   3.160   0.155  0.2909 -0.4292  1.4642
14113TIP3    H263831   2.077   3.249   0.262 -0.0850  0.1307  0.7965
14114TIP3   OH263832   1.513   6.487   5.394  0.3504 -0.0249 -0.1195
14114TIP3    H163833   1.491   6.476   5.302  0.4653  0.0834 -0.1591
14114TIP3    H263834   1.607   6.474   5.399  0.1961 -1.1052  0.1469
14115TIP3   OH263835   3.168   4.029  15.517 -0.4072 -0.1986  0.1817
14115TIP3    H163836   3.199   4.015  15.428  1.1473 -0.1267  0.6945
14115TIP3    H263837   3.120   3.949  15.539  0.9720 -1.0908  0.0097
14116TIP3   OH263838   3.522   0.820  17.200  0.4382  0.2859  0.1166
14116TIP3    H163839   3.489   0.749  17.254 -1.2404  3.0382  3.1205
14116TIP3    H263840   3.615   0.825  17.220  0.5715 -1.0095 -0.1272
14117TIP3   OH263841   0.576   6.746   5.076  0.7276  0.2573 -0.2327
14117TIP3    H163842   0.488   6.707   5.068  0.7217 -0.0291  1.0254
14117TIP3    H263843   0.634   6.671   5.089  1.1918  0.4394 -1.1893
14118TIP3   OH263844   1.922   4.424   3.065  0.4944 -0.7859 -0.7004
14118TIP3    H163845   1.832   4.453   3.077  0.5289 -0.3866 -1.3531
14118TIP3    H263846   1.925   4.336   3.103  0.4655  0.1524  1.6453
14119TIP3   OH263847   1.450   3.154   4.374 -0.0401  0.4518  0.2165
14119TIP3    H163848   1.366   3.138   4.332  0.1909  0.7809 -0.3797
14119TIP3    H263849   1.448   3.246   4.399  1.4276  1.4595 -2.8584
14120TIP3   OH263850   5.948   5.374   0.912  0.3395  0.0060 -0.5048
14120TIP3    H163851   5.927   5.464   0.937  0.4227 -0.3872  1.0650
14120TIP3    H263852   6.023   5.383   0.853  0.2518  0.9615 -0.4898
14121TIP3   OH263853   1.084   4.297   2.412 -0.2757  0.0267 -0.2534
14121TIP3    H163854   1.008   4.286   2.355 -0.3869  1.9135 -0.5075
14121TIP3    H263855   1.157   4.316   2.353  0.2429 -0.9492  0.0499
14122TIP3   OH263856   3.936   4.621   2.352 -0.0640 -0.0527 -0.1219
14122TIP3    H163857   3.958   4.710   2.380 -0.6934 -0.1291  0.6615
14122TIP3    H263858   3.842   4.623   2.336  0.0792 -0.3402 -1.0503
14123TIP3   OH263859   2.977   6.591  15.805 -0.5726 -0.2942  0.7575
14123TIP3    H163860   2.913   6.551  15.865 -0.7447  0.2526  0.9380
14123TIP3    H263861   3.044   6.627  15.862  0.7172 -2.1735  0.5368
14124TIP3   OH263862   3.430   2.256   1.365  0.6745 -0.2232 -0.2670
14124TIP3    H163863   3.463   2.216   1.445  0.8822 -0.9178 -0.6954
14124TIP3    H263864   3.359   2.198   1.337 -0.2907  0.7413  0.1329
14125TIP3   OH263865   5.909   4.031   4.524 -0.1251 -0.2630 -0.1558
14125TIP3    H163866   5.949   4.021   4.611 -0.2835  1.8753  0.2317
14125TIP3    H263867   5.957   4.104   4.484 -1.9641  0.7427 -0.6624
14126TIP3   OH263868   4.496   2.263   4.855 -0.2519  0.3304  0.3757
14126TIP3    H163869   4.580   2.283   4.896  0.3334 -1.3305  0.0596
14126TIP3    H263870   4.513   2.274   4.761  0.5818 -2.9437  0.0233
14127TIP3   OH263871   6.472   5.094   2.693 -0.0992 -0.0070  0.5472
14127TIP3    H163872   6.409   5.162   2.668 -0.3162 -0.3147  0.2529
14127TIP3    H263873   6.556   5.126   2.660 -0.0684  0.4880  1.0922
14128TIP3   OH263874   1.860   4.033   6.268  0.1541  0.1964 -0.6534
14128TIP3    H163875   1.951   4.003   6.263 -0.3094 -1.3343 -0.2633
14128TIP3    H263876   1.813   3.963   6.313 -1.2918  0.8107 -1.1270
14129TIP3   OH263877   3.524   0.132   1.323 -0.2095  0.5754 -0.0434
14129TIP3    H163878   3.614   0.145   1.353 -0.1919  0.5689 -0.0933
14129TIP3    H263879   3.525   0.161   1.232 -0.0012 -0.4138 -0.3753
14130TIP3   OH263880   2.034   1.573  12.910  0.5753  0.3092 -0.1918
14130TIP3    H163881   2.032   1.668  12.894 -2.5224  0.2894 -0.7210
14130TIP3    H263882   2.035   1.534  12.823  1.5408 -0.1473  0.0177
14131TIP3   OH263883   4.705   5.146   5.063 -0.5758  0.3490 -0.5974
14131TIP3    H163884   4.706   5.241   5.075 -0.6755  0.2439  0.3374
14131TIP3    H263885   4.621   5.119   5.101  0.7121 -0.4281  1.8980
14132TIP3   OH263886   6.634   1.211   0.288 -0.1057 -0.0968  0.6061
14132TIP3    H163887   6.612   1.198   0.381 -1.5760 -2.2295  0.0203
14132TIP3    H263888   6.664   1.125   0.258 -1.1557  0.1381 -1.2659
14133TIP3   OH263889   2.550   3.517  13.809 -0.2451 -0.1406  0.1766
14133TIP3    H163890   2.487   3.541  13.877 -0.6869 -1.1662  0.1444
14133TIP3    H263891   2.601   3.597  13.795 -0.6348  0.3028  1.1742
14134TIP3   OH263892   2.218   2.761   0.608  0.0494 -0.0283  0.0417
14134TIP3    H163893   2.264   2.844   0.623  0.4044  0.2152 -2.1507
14134TIP3    H263894   2.210   2.755   0.513 -2.1958 -1.3289  0.2646
14135TIP3   OH263895   1.898   2.021   1.595 -0.8536  0.2786  0.1937
14135TIP3    H163896   1.856   2.081   1.534 -2.7408  1.2113  2.2940
14135TIP3    H263897   1.860   1.936   1.575  0.5495 -0.0060 -1.6273
14136TIP3   OH263898   3.927   2.449  15.340  0.2244 -0.2440 -0.2565
14136TIP3    H163899   4.017   2.421  15.322  1.1065  0.9615  1.9489
14136TIP3    H263900   3.884   2.372  15.376  1.4352  0.0020  1.8993
14137TIP3   OH263901   2.602   2.146  12.931  0.0925  0.7401  0.2881
14137TIP3    H163902   2.548   2.070  12.949  0.0175  0.5141 -0.8211
14137TIP3    H263903   2.690   2.121  12.960 -0.1994  0.7876  1.2733
14138TIP3   OH263904   6.128   4.408   6.196  0.3192 -0.4132 -0.0951
14138TIP3    H163905   6.069   4.453   6.257  0.2833  1.5399 -1.4739
14138TIP3    H263906   6.210   4.398   6.244 -0.1267 -0.1469  0.7351
14139TIP3   OH263907   0.588   1.008  11.875 -0.0981 -0.8906  0.9769
14139TIP3    H163908   0.576   0.967  11.789 -2.9179 -0.0286  0.8534
14139TIP3    H263909   0.591   1.102  11.856  0.5445 -0.7528  1.7318
14140TIP3   OH263910   5.131   5.040   6.939 -0.0460  0.1103 -0.4585
14140TIP3    H163911   5.126   5.135   6.942 -0.7687  0.1237 -1.6819
14140TIP3    H263912   5.042   5.011   6.957 -0.1988 -0.2745 -1.7390
14141TIP3   OH263913   2.999   5.404   2.717  0.6141 -0.0033  0.2356
14141TIP3    H163914   3.019   5.322   2.671  2.1840 -0.1442  1.0701
14141TIP3    H263915   2.965   5.462   2.650  1.1280 -0.7891 -0.7374
14142TIP3   OH263916   2.175   2.863   3.850  0.4583 -0.2965  0.3206
14142TIP3    H163917   2.098   2.885   3.797  1.3376 -0.6771 -1.1996
14142TIP3    H263918   2.193   2.771   3.828  1.3989 -0.1803  0.5553
14143TIP3   OH263919   2.073   5.181  13.996  0.0919  0.0333 -0.4680
14143TIP3    H163920   2.139   5.140  14.052 -0.3836 -0.6085 -0.3657
14143TIP3    H263921   2.087   5.275  14.008 -0.0711 -0.0834  0.8229
14144TIP3   OH263922   4.023   6.771   2.133 -0.2969  0.4538 -0.2408
14144TIP3    H163923   4.101   6.826   2.127  0.0203  0.2051  1.2254
14144TIP3    H263924   3.975   6.789   2.053  1.2136  0.6893 -1.1401
14145TIP3   OH263925   3.795   3.868  12.742  0.9535 -0.0348 -0.0738
14145TIP3    H163926   3.758   3.946  12.702  0.2237 -0.4763 -0.2851
14145TIP3    H263927   3.821   3.813  12.668  0.8162 -0.2866  0.0609
14146TIP3   OH263928   1.216   5.237  13.726 -0.3314 -0.0898 -0.1465
14146TIP3    H163929   1.288   5.183  13.691 -1.3080 -0.8289 -1.0910
14146TIP3    H263930   1.245   5.327  13.711  0.3709 -0.3789 -0.5986
14147TIP3   OH263931   1.805   4.492  14.145  0.3199 -0.5728  0.1056
14147TIP3    H163932   1.718   4.459  14.165  0.2653 -0.1673  0.5658
14147TIP3    H263933   1.795   4.539  14.062  0.0201 -0.2335  0.3295
14148TIP3   OH263934   3.120   3.580  15.064 -0.2569  0.4608  0.2012
14148TIP3    H163935   3.054   3.517  15.034 -0.0710  0.7980 -0.9256
14148TIP3    H263936   3.118   3.571  15.160 -1.8442  0.3710  0.1917
14149TIP3   OH263937   2.227   2.356   1.346  0.2564 -0.4602 -0.2442
14149TIP3    H163938   2.270   2.273   1.327  0.0323 -0.5666 -0.2979
14149TIP3    H263939   2.174   2.339   1.423  0.8058 -0.1529  0.2100
14150TIP3   OH263940   4.605   5.565   1.291  0.0555 -0.4015 -0.3083
14150TIP3    H163941   4.586   5.562   1.385 -0.1908 -0.0497 -0.3427
14150TIP3    H263942   4.528   5.524   1.251 -0.3448  0.4325 -0.4130
14151TIP3   OH263943   3.543   6.080   0.699 -0.2369 -0.3403  0.0174
14151TIP3    H163944   3.638   6.070   0.706 -0.3984 -1.4418  0.9761
14151TIP3    H263945   3.528   6.098   0.606  0.9405  0.3701 -0.0661
14152TIP3   OH263946   3.928   2.613  17.201 -0.7700  0.5580 -0.0334
14152TIP3    H163947   3.859   2.652  17.146 -0.8448  0.2944 -0.1266
14152TIP3    H263948   4.003   2.673  17.191 -1.2455  1.3048  0.7303
14153TIP3   OH263949   4.044   5.719   1.713 -0.1059  0.6038  0.1675
14153TIP3    H163950   4.039   5.660   1.638  1.0363  0.7197 -0.0053
14153TIP3    H263951   3.994   5.675   1.782  0.2297 -0.2741 -0.1469
14154TIP3   OH263952   3.704   1.658   0.456 -0.1939  0.7124 -0.1532
14154TIP3    H163953   3.637   1.639   0.391  0.9434  0.1493 -1.1961
14154TIP3    H263954   3.686   1.748   0.483 -0.4926  1.0862 -1.5114
14155TIP3   OH263955   1.540   4.896  15.869 -0.3265  0.1335 -0.5490
14155TIP3    H163956   1.510   4.912  15.779 -0.2163  1.2313 -0.4047
14155TIP3    H263957   1.632   4.871  15.859 -0.3849  0.0002 -0.7598
14156TIP3   OH263958   6.061   1.355   1.149 -0.0943  0.1541 -0.2643
14156TIP3    H163959   6.028   1.439   1.182 -1.5846 -0.4932  0.0026
14156TIP3    H263960   6.076   1.371   1.055  0.9392  1.0768  0.0430
14157TIP3   OH263961   6.172   1.803   3.837  0.0720  0.1206 -0.1538
14157TIP3    H163962   6.233   1.784   3.908 -0.6661  0.1829  0.5157
14157TIP3    H263963   6.177   1.898   3.826 -0.2327  0.1879  0.2257
14158TIP3   OH263964   6.401   2.314  16.414  0.5465  0.3949 -0.0641
14158TIP3    H163965   6.387   2.383  16.480 -0.7387  1.6441 -1.5630
14158TIP3    H263966   6.371   2.234  16.457  1.3958  0.8631  1.4756
14159TIP3   OH263967   2.367   3.486   4.670  0.2821  0.0384 -0.0610
14159TIP3    H163968   2.346   3.406   4.719 -0.1241  0.3816  0.3463
14159TIP3    H263969   2.420   3.457   4.596  2.3647 -0.3244  1.4838
14160TIP3   OH263970   5.594   5.650   6.033  0.5160 -0.1638  0.3590
14160TIP3    H163971   5.659   5.603   6.085 -0.9692  0.7888  3.3885
14160TIP3    H263972   5.522   5.588   6.022  0.5895 -0.1776 -0.0369
14161TIP3   OH263973   1.915   0.304  15.118  0.3725 -0.3654 -0.0553
14161TIP3    H163974   1.859   0.228  15.131 -0.8223  0.4820 -0.1311
14161TIP3    H263975   1.927   0.310  15.023  0.4718 -0.4642 -0.0489
14162TIP3   OH263976   2.268   2.159   0.433 -0.3303 -0.6201 -0.5369
14162TIP3    H163977   2.280   2.124   0.522 -0.2745  0.9435  0.1026
14162TIP3    H263978   2.208   2.233   0.445 -0.2178 -0.3102 -1.7911
14163TIP3   OH263979   0.711   1.252  12.221  0.0813  0.8080  0.3097
14163TIP3    H163980   0.753   1.328  12.180 -1.6830  2.6713  1.7161
14163TIP3    H263981   0.620   1.258  12.192 -0.3684 -0.0233  1.4781
14164TIP3   OH263982   4.861   3.317  14.848  0.2433 -0.1847 -0.1553
14164TIP3    H163983   4.894   3.327  14.759  1.2239 -0.4959  0.1612
14164TIP3    H263984   4.833   3.405  14.873  0.4943  0.0132 -0.5596
14165TIP3   OH263985   4.373   3.715  15.407 -0.2590  0.7348  0.7798
14165TIP3    H163986   4.298   3.715  15.467 -1.1688 -1.4461 -0.2749
14165TIP3    H263987   4.414   3.630  15.420  1.1169  1.2838  0.1816
14166TIP3   OH263988   4.962   4.464   1.970 -0.4559 -0.0977  0.4666
14166TIP3    H163989   4.957   4.510   1.886  0.3792 -0.9569 -0.0722
14166TIP3    H263990   5.030   4.398   1.957 -0.8500 -0.7463  1.5830
14167TIP3   OH263991   2.007   3.459  12.479  0.7157  0.2811  0.5487
14167TIP3    H163992   1.991   3.409  12.558  1.7955  1.5971  1.6610
14167TIP3    H263993   2.007   3.550  12.508  1.4923  0.7749 -0.8832
14168TIP3   OH263994   4.319   3.849   2.080 -0.1907  0.1556 -0.8154
14168TIP3    H163995   4.348   3.901   2.155 -0.8057 -0.2098 -0.3074
14168TIP3    H263996   4.382   3.868   2.011  2.5039 -2.0718  0.7959
14169TIP3   OH263997   0.500   5.553   4.610 -0.5884 -0.1114 -0.3790
14169TIP3    H163998   0.461   5.639   4.620 -1.2002 -0.5984  2.0548
14169TIP3    H263999   0.555   5.560   4.532 -0.1134  2.6680  0.1155
14170TIP3   OH264000   6.470   3.641  11.606 -0.4444  0.2987  0.1843
14170TIP3    H164001   6.507   3.727  11.626 -2.6198  1.4559 -0.4869
14170TIP3    H264002   6.392   3.660  11.554  0.0738 -2.1969 -1.6627
14171TIP3   OH264003   1.823   3.089  16.627 -0.3249 -0.3646  0.1091
14171TIP3    H164004   1.806   3.122  16.539 -0.5600 -0.5795  0.0720
14171TIP3    H264005   1.913   3.055  16.624  0.3827  1.3617  0.4772
14172TIP3   OH264006   1.396   3.073  13.122  0.2434 -0.2463 -0.2348
14172TIP3    H164007   1.381   3.135  13.051 -0.1703 -0.3667 -0.2596
14172TIP3    H264008   1.308   3.044  13.147  0.3432  0.2779  0.7686
14173TIP3   OH264009   1.063   4.424  11.536 -0.2169 -0.1751  0.3498
14173TIP3    H164010   0.982   4.373  11.533 -2.1561  2.7148 -2.5259
14173TIP3    H264011   1.108   4.401  11.454  0.0977  0.8715  0.2210
14174TIP3   OH264012   4.297   1.043  11.933  1.1729 -0.2839  0.5299
14174TIP3    H164013   4.288   1.138  11.924 -0.5534 -0.5133 -0.6611
14174TIP3    H264014   4.326   1.029  12.023  2.1788  1.3877  0.5055
14175TIP3   OH264015   6.383   2.329   1.778 -0.4111  0.2504  0.0709
14175TIP3    H164016   6.331   2.409   1.783  2.2584  2.0821  0.6176
14175TIP3    H264017   6.440   2.332   1.854  0.1924 -1.8934 -0.2263
14176TIP3   OH264018   5.621   3.860  15.769  0.5118  0.1589 -0.0166
14176TIP3    H164019   5.529   3.865  15.794  0.6617 -0.7722  0.7639
14176TIP3    H264020   5.666   3.916  15.832  0.7291 -1.1426  1.0256
14177TIP3   OH264021   3.989   0.967   2.600 -0.2531 -0.0889 -0.0379
14177TIP3    H164022   4.034   0.994   2.680 -1.8761 -0.0572  0.9259
14177TIP3    H264023   4.028   0.883   2.578  0.0866 -0.2011  0.9284
14178TIP3   OH264024   0.878   3.049   1.822  0.3180 -0.4962  0.1832
14178TIP3    H164025   0.794   3.008   1.843  0.2117  0.8538  2.6905
14178TIP3    H264026   0.929   3.041   1.902  2.4411 -0.8169 -1.1292
14179TIP3   OH264027   0.722   4.866   5.749  0.2111 -0.2369 -0.2785
14179TIP3    H164028   0.678   4.948   5.725 -0.2280 -0.4002 -0.0461
14179TIP3    H264029   0.675   4.798   5.700  0.3849 -0.3806 -0.2478
14180TIP3   OH264030   0.684   3.809   3.032 -0.2420  0.5418 -0.1739
14180TIP3    H164031   0.766   3.783   3.074 -0.7512 -0.9808 -0.0772
14180TIP3    H264032   0.705   3.811   2.938  0.3376  1.8785 -0.0434
14181TIP3   OH264033   3.847   3.140   2.686  0.2385  0.2118  0.5148
14181TIP3    H164034   3.865   3.092   2.768 -0.1464  1.1416  1.1569
14181TIP3    H264035   3.834   3.071   2.621 -0.2379 -0.5692  1.4049
14182TIP3   OH264036   6.377   0.563  13.709  0.7187  0.4681 -0.2761
14182TIP3    H164037   6.295   0.559  13.660  1.6730 -0.2848 -1.8982
14182TIP3    H264038   6.374   0.487  13.767  0.0870  0.7023  0.0077
14183TIP3   OH264039   3.467   0.270  13.026  0.6489  0.4544  0.1328
14183TIP3    H164040   3.456   0.177  13.045  2.4223  0.1328 -0.2535
14183TIP3    H264041   3.484   0.310  13.112  1.3491  0.1746  0.1303
14184TIP3   OH264042   6.778   0.745   3.298 -0.0112 -0.3973  0.2298
14184TIP3    H164043   6.767   0.800   3.220  0.7702 -0.1148  0.3077
14184TIP3    H264044   6.757   0.802   3.371 -0.1800 -0.4946  0.2574
14185TIP3   OH264045   1.121   2.232  10.977  0.1916  0.2993 -0.1983
14185TIP3    H164046   1.190   2.299  10.975  1.3699 -0.8096  1.3474
14185TIP3    H264047   1.111   2.206  10.885  3.7112 -1.2938 -0.2904
14186TIP3   OH264048   5.665   4.166   0.316  0.0449 -0.0616  0.6740
14186TIP3    H164049   5.593   4.105   0.329 -0.6416  0.7130  0.6180
14186TIP3    H264050   5.622   4.250   0.297  0.9544  0.4981  1.0241
14187TIP3   OH264051   0.169   2.309  14.823  0.0260 -0.2417  0.0051
14187TIP3    H164052   0.101   2.256  14.783  0.2422 -0.1427 -0.5020
14187TIP3    H264053   0.122   2.382  14.864 -0.2177 -0.4863  0.1618
14188TIP3   OH264054   4.675   2.245  14.710  0.1504  0.3390 -0.0473
14188TIP3    H164055   4.752   2.250  14.768  0.3904  1.9296 -0.4548
14188TIP3    H264056   4.711   2.226  14.624 -0.0069  0.1806 -0.0795
14189TIP3   OH264057   0.465   3.339   2.027  0.4866  0.1221 -0.5932
14189TIP3    H164058   0.404   3.283   1.979  0.7190  0.8031 -1.7278
14189TIP3    H264059   0.479   3.414   1.969 -0.1604  1.5849  1.0321
14190TIP3   OH264060   2.002   4.873   1.213  0.0438  0.3682  0.0827
14190TIP3    H164061   1.965   4.802   1.160 -1.2339  0.7802  0.4086
14190TIP3    H264062   2.043   4.931   1.149  2.3126 -1.3071 -0.0966
14191TIP3   OH264063   0.413   5.648  12.375 -0.2995 -0.3463 -0.7756
14191TIP3    H164064   0.382   5.582  12.437  0.1932 -0.3564 -0.5395
14191TIP3    H264065   0.504   5.624  12.358 -0.3166 -0.1106 -1.1950
14192TIP3   OH264066   0.664   0.563  11.355  0.2572  0.1031 -0.2202
14192TIP3    H164067   0.650   0.617  11.278  0.5710 -1.3871 -1.3625
14192TIP3    H264068   0.699   0.623  11.421 -1.8808  1.8120 -0.5365
14193TIP3   OH264069   5.177   3.050  13.543  0.3040  0.3430  0.0531
14193TIP3    H164070   5.240   3.030  13.473 -0.0899  1.6517 -0.6983
14193TIP3    H264071   5.230   3.055  13.622  0.9717  0.3003 -0.3831
14194TIP3   OH264072   1.268   0.558  13.427 -0.3421 -0.2741 -0.2018
14194TIP3    H164073   1.324   0.545  13.350  0.5239  0.5288  0.2865
14194TIP3    H264074   1.292   0.643  13.461 -1.0455 -0.4220  0.7112
14195TIP3   OH264075   3.276   2.721   1.703 -1.0933  0.3780 -0.0922
14195TIP3    H164076   3.367   2.716   1.731 -1.6315 -0.0346  1.7851
14195TIP3    H264077   3.237   2.639   1.735 -2.3883  1.1102  0.2980
14196TIP3   OH264078   1.820   1.492   1.414 -0.1227 -0.1062 -0.0189
14196TIP3    H164079   1.805   1.517   1.505  1.1253 -0.1795  0.2277
14196TIP3    H264080   1.822   1.397   1.415  2.9005 -0.1222  0.4635
14197TIP3   OH264081   2.935   1.947   0.625  0.3884 -0.1742  0.3075
14197TIP3    H164082   2.939   2.016   0.558 -0.9382 -1.0557 -0.7218
14197TIP3    H264083   2.923   1.995   0.707  2.4448  0.9484  0.0283
14198TIP3   OH264084   5.606   1.052   1.046 -0.6107 -0.1691  0.1266
14198TIP3    H164085   5.686   1.036   0.996 -0.1323  1.7294  0.1916
14198TIP3    H264086   5.595   0.974   1.100  0.5576 -0.9499 -0.7082
14199TIP3   OH264087   3.146   3.060   6.925 -0.2102 -0.8045  0.3168
14199TIP3    H164088   3.083   2.993   6.951 -0.4947 -0.7001 -0.0896
14199TIP3    H264089   3.092   3.135   6.900  0.1151 -0.2973  1.0987
14200TIP3   OH264090   0.128   4.141   4.436  0.4433 -0.0954  0.3760
14200TIP3    H164091   0.071   4.120   4.362  1.8831 -0.0187 -0.8255
14200TIP3    H264092   0.118   4.067   4.496 -1.2108  0.1235  0.4181
14201TIP3   OH264093   5.898   0.660   0.168 -0.0362 -0.2681  0.0939
14201TIP3    H164094   5.967   0.704   0.118 -0.3712  0.9164  0.6513
14201TIP3    H264095   5.819   0.674   0.116 -0.1994  0.0551  0.4289
14202TIP3   OH264096   2.494   3.946  14.448  0.1594  0.0861  0.5006
14202TIP3    H164097   2.571   3.936  14.392  0.3158  0.1872  0.6964
14202TIP3    H264098   2.521   4.009  14.515  0.2258 -0.6155  1.1417
14203TIP3   OH264099   1.559   2.051   2.150 -0.0806  0.5654 -0.4737
14203TIP3    H164100   1.498   2.080   2.082 -2.1802 -0.1157  1.0090
14203TIP3    H264101   1.546   1.956   2.155 -1.5847  0.8059  2.2252
14204TIP3   OH264102   1.517   3.890  17.076 -0.1349  0.4567 -0.2712
14204TIP3    H164103   1.522   3.838  17.157  1.0279  0.2674 -0.4513
14204TIP3    H264104   1.448   3.954  17.093 -2.0893 -1.5109 -0.2577
14205TIP3   OH264105   6.154   1.880  15.214 -0.3320  0.2791 -0.4325
14205TIP3    H164106   6.190   1.793  15.197 -0.0391  0.4895 -0.9278
14205TIP3    H264107   6.213   1.918  15.280 -0.8806 -0.1594  0.3294
14206TIP3   OH264108   1.851   3.234  14.371  0.4024  0.5586 -0.0857
14206TIP3    H164109   1.872   3.285  14.293  2.5131  0.9119  0.6434
14206TIP3    H264110   1.763   3.199  14.354  0.5803  1.0514 -2.3677
14207TIP3   OH264111   3.574   3.519  13.749  0.2643 -0.9836  0.3321
14207TIP3    H164112   3.630   3.449  13.714 -0.0866 -1.0702 -0.0735
14207TIP3    H264113   3.635   3.585  13.782  0.6084 -1.0562 -0.1433
14208TIP3   OH264114   6.552   0.491  11.499 -0.0309 -0.0854 -0.0387
14208TIP3    H164115   6.459   0.476  11.485 -0.0618 -0.3787  0.4433
14208TIP3    H264116   6.574   0.436  11.575  0.8969 -1.3530 -1.1560
14209TIP3   OH264117   3.239   1.313   0.463  0.7291 -0.4092 -0.7102
14209TIP3    H164118   3.305   1.289   0.528  1.6019 -0.5377 -1.6351
14209TIP3    H264119   3.264   1.266   0.384 -1.0522 -1.2798 -0.8103
14210TIP3   OH264120   5.701   3.399  12.347 -0.1314 -0.0838  0.0472
14210TIP3    H164121   5.767   3.388  12.278 -0.2896 -0.6275 -0.0199
14210TIP3    H264122   5.752   3.400  12.428  0.0961  1.0077 -0.1038
14211TIP3   OH264123   5.445   1.441  14.343  0.4372  0.1519 -0.1589
14211TIP3    H164124   5.522   1.386  14.329  2.0729  1.9627  1.1199
14211TIP3    H264125   5.477   1.512  14.399 -2.2567  0.8485  0.6144
14212TIP3   OH264126   4.451   1.079   3.224 -0.3566  0.2770 -0.2014
14212TIP3    H164127   4.420   1.056   3.312  1.0836  1.2899  0.6046
14212TIP3    H264128   4.389   1.146   3.194 -0.0247  0.9936  0.6594
14213TIP3   OH264129   4.764   3.792  16.769 -0.0251  0.1475  0.0700
14213TIP3    H164130   4.835   3.728  16.781  0.4923  0.5412 -0.8241
14213TIP3    H264131   4.759   3.805  16.675 -0.1602  1.3808  0.2344
14214TIP3   OH264132   2.065   4.171  12.531  0.5994 -0.4150 -0.1513
14214TIP3    H164133   2.099   4.226  12.601  0.8610 -0.3253 -0.3456
14214TIP3    H264134   2.105   4.085  12.546  1.3818 -0.1582 -0.7167
14215TIP3   OH264135   6.148   2.696  12.114 -0.4819  0.0580  0.2047
14215TIP3    H164136   6.194   2.779  12.120  0.4715 -0.4791  0.4468
14215TIP3    H264137   6.214   2.629  12.132 -2.0344 -0.6644  4.6558
14216TIP3   OH264138   5.035   4.015   5.465 -0.6665  0.3522  0.3745
14216TIP3    H164139   5.038   3.923   5.440 -0.5752  0.4941 -0.1504
14216TIP3    H264140   5.092   4.021   5.542  2.1457  0.5951 -1.6038
14217TIP3   OH264141   3.551   4.246  11.946  0.1981 -0.5086 -0.0162
14217TIP3    H164142   3.627   4.188  11.939 -0.9465 -2.0402 -0.2754
14217TIP3    H264143   3.481   4.190  11.979 -0.4084  1.2707  1.9903
14218TIP3   OH264144   6.449   2.026  11.284 -0.6065 -0.4551  0.4115
14218TIP3    H164145   6.392   2.084  11.335  0.4833  0.5772  0.5038
14218TIP3    H264146   6.481   2.080  11.212  2.5450 -0.0090  1.9561
14219TIP3   OH264147   4.204   5.763   2.310  0.2707  0.0990  0.1229
14219TIP3    H164148   4.128   5.784   2.255  0.8439  2.1472  0.0093
14219TIP3    H264149   4.166   5.741   2.395 -0.4687  2.0082  0.3384
14220TIP3   OH264150   6.630   2.708  15.270 -0.1140 -0.5583 -0.1750
14220TIP3    H164151   6.670   2.747  15.348  0.6045  0.5776 -1.0823
14220TIP3    H264152   6.675   2.624  15.259 -0.7368 -1.0917  1.0189
14221TIP3   OH264153   4.529   4.099  13.398  0.1108  0.3454 -0.5729
14221TIP3    H164154   4.587   4.123  13.471 -1.5219  1.4536  0.4313
14221TIP3    H264155   4.503   4.009  13.416  0.1276  0.4398 -0.0683
14222TIP3   OH264156   6.279   5.998   4.323  0.1053  0.0028 -0.5079
14222TIP3    H164157   6.309   5.909   4.343  0.1061 -0.6875 -3.1217
14222TIP3    H264158   6.343   6.055   4.365 -0.6284 -1.1210  2.3761
14223TIP3   OH264159   3.783   5.276  17.210 -0.1601 -0.8190  0.1382
14223TIP3    H164160   3.689   5.287  17.224 -0.4808 -1.9503 -0.8768
14223TIP3    H264161   3.823   5.350  17.255 -1.5982  0.2124 -0.1994
14224TIP3   OH264162   6.281   3.597   5.444  0.3570 -0.1587  0.5862
14224TIP3    H164163   6.360   3.644   5.469 -0.0651  0.9233 -0.0077
14224TIP3    H264164   6.211   3.663   5.451 -0.9802 -1.6978  3.5694
14225TIP3   OH264165   5.970   0.319   2.248 -0.0029  0.5261  0.0357
14225TIP3    H164166   5.957   0.224   2.244 -1.3905  0.6778  0.6192
14225TIP3    H264167   5.993   0.343   2.158  0.7688 -0.3995 -0.0410
14226TIP3   OH264168   0.157   3.427   5.446 -0.1396 -0.4482  0.1816
14226TIP3    H164169   0.067   3.396   5.437 -0.1592 -0.7697  1.3444
14226TIP3    H264170   0.181   3.406   5.536  0.9041  0.1651  0.0656
14227TIP3   OH264171   5.335   0.116  14.379 -0.2237  0.1980  0.1793
14227TIP3    H164172   5.247   0.103  14.416  0.7197 -3.8357  1.4961
14227TIP3    H264173   5.378   0.175  14.441 -1.8044  2.0101 -0.3312
14228TIP3   OH264174   4.007   0.962  13.591 -0.0060 -0.0072 -0.1083
14228TIP3    H164175   4.004   0.915  13.507  1.1819 -0.2067 -0.0566
14228TIP3    H264176   3.918   0.954  13.626 -0.5227  0.0914 -1.3497
14229TIP3   OH264177   1.377   6.547   1.611 -0.4546 -0.4113 -0.2057
14229TIP3    H164178   1.353   6.640   1.608  1.7856  0.2087 -0.2266
14229TIP3    H264179   1.465   6.543   1.573  0.0526 -2.3443  1.0366
14230TIP3   OH264180   1.981   4.194  15.328  0.0314 -0.1587 -0.1120
14230TIP3    H164181   2.016   4.283  15.319  0.4477 -0.2717  0.3265
14230TIP3    H264182   2.059   4.140  15.343 -0.1402 -0.7057 -1.1122
14231TIP3   OH264183   0.686   1.374   4.156  0.2807  0.4512 -0.0106
14231TIP3    H164184   0.774   1.337   4.146  0.3398  0.8197 -0.9336
14231TIP3    H264185   0.643   1.316   4.219  0.6908 -0.6297 -0.6991
14232TIP3   OH264186   1.097   3.515  14.577 -0.1017 -0.2038  0.7570
14232TIP3    H164187   1.003   3.511  14.563 -0.2693 -0.3360  1.8251
14232TIP3    H264188   1.135   3.514  14.489 -1.0431 -1.4622  0.3379
14233TIP3   OH264189   5.849   4.930   3.893  0.4809 -0.0707 -0.0853
14233TIP3    H164190   5.761   4.908   3.862  0.8249  0.7516 -1.7577
14233TIP3    H264191   5.903   4.855   3.867  0.5895  0.1940 -0.6344
14234TIP3   OH264192   6.071   2.132  13.872 -0.2711 -0.0454  0.2505
14234TIP3    H164193   6.021   2.173  13.942  0.3392 -0.5520  0.9993
14234TIP3    H264194   6.088   2.203  13.810 -0.9750  0.3694  0.5240
14235TIP3   OH264195   2.978   0.178  12.133 -0.1186  0.4656  1.0534
14235TIP3    H164196   2.910   0.118  12.101 -0.2607  0.1172  1.9895
14235TIP3    H264197   2.966   0.257  12.081 -1.5899  0.6030  1.5544
14236TIP3   OH264198   0.963   5.490   1.507  0.1206  0.1958 -0.0977
14236TIP3    H164199   0.991   5.501   1.416  1.1009  0.6958  0.2456
14236TIP3    H264200   1.038   5.448   1.550 -0.2795  0.0932  0.5058
14237TIP3   OH264201   4.913   4.530   4.158  0.5647 -0.7578  0.0961
14237TIP3    H164202   4.922   4.537   4.253 -0.0311  3.0833  0.0522
14237TIP3    H264203   4.820   4.547   4.142  1.1145  1.4190 -1.2012
14238TIP3   OH264204   2.571   4.182  16.931 -0.3133 -0.1555  0.4034
14238TIP3    H164205   2.584   4.252  16.867  0.5298  0.0163  0.7480
14238TIP3    H264206   2.551   4.228  17.012 -0.1863 -0.3303  0.5337
14239TIP3   OH264207   4.553   1.105   6.269  0.3075 -0.3607  0.6702
14239TIP3    H164208   4.511   1.018   6.265 -1.0079  0.2828 -1.6970
14239TIP3    H264209   4.643   1.087   6.294  0.0171 -2.4080  0.4483
14240TIP3   OH264210   5.608   3.865  13.136  0.7534  0.8245  0.5856
14240TIP3    H164211   5.656   3.785  13.111 -0.5330 -0.0878  0.9565
14240TIP3    H264212   5.619   3.924  13.061  1.7373  0.3193  0.3136
14241TIP3   OH264213   5.693   1.602   1.175 -0.0678  0.3168 -0.8356
14241TIP3    H164214   5.609   1.590   1.219  0.2575 -0.2508 -0.3560
14241TIP3    H264215   5.755   1.551   1.227  0.7862  1.5896 -0.5702
14242TIP3   OH264216   2.293   4.614   0.433 -0.0823  0.5789  0.1064
14242TIP3    H164217   2.261   4.526   0.452 -0.7557  1.1187  1.6406
14242TIP3    H264218   2.217   4.670   0.445  0.6271  1.5087  0.3475
14243TIP3   OH264219   3.839   0.994   1.338  0.3261 -0.0531 -0.1850
14243TIP3    H164220   3.890   1.053   1.284  1.1168 -0.6748 -0.1393
14243TIP3    H264221   3.765   0.968   1.283  0.3643  0.4044 -0.4566
14244TIP3   OH264222   5.336   4.825  16.274 -0.4944 -0.1875  0.2309
14244TIP3    H164223   5.368   4.874  16.350  0.2044  1.4566 -1.0584
14244TIP3    H264224   5.394   4.749  16.268  0.7584  0.7559  0.1563
14245TIP3   OH264225   6.134   0.014  16.831 -0.7463  0.1083 -0.1094
14245TIP3    H164226   6.157  -0.064  16.781  1.1706  0.3030  0.3920
14245TIP3    H264227   6.136  -0.013  16.922  0.9793  0.9303  0.1406
14246TIP3   OH264228   5.379   2.756  14.293  0.1988 -0.5038  0.2752
14246TIP3    H164229   5.359   2.731  14.383 -0.8644  0.7821  0.4308
14246TIP3    H264230   5.470   2.787  14.297 -0.0478  0.1728  1.0620
14247TIP3   OH264231   4.251   5.887  12.436 -0.1899  0.2848 -0.1841
14247TIP3    H164232   4.173   5.925  12.396  0.7285  1.3369 -1.0347
14247TIP3    H264233   4.297   5.960  12.477 -1.2526 -0.7830  3.2631
14248TIP3   OH264234   6.318   1.582  14.109  0.1378 -0.1398  0.0571
14248TIP3    H164235   6.278   1.615  14.189 -0.6014 -0.8716 -0.0075
14248TIP3    H264236   6.290   1.644  14.041 -0.2899 -0.2500  0.1355
14249TIP3   OH264237   6.464   4.546   0.809  0.4799  0.2097 -0.0596
14249TIP3    H164238   6.421   4.493   0.743 -1.9803  0.6538  1.0528
14249TIP3    H264239   6.440   4.636   0.787 -1.4681  0.2908  2.0446
14250TIP3   OH264240   0.112   5.046  16.948 -0.0123  0.2622 -0.1455
14250TIP3    H164241   0.071   4.959  16.948  0.9359 -0.2053 -0.6622
14250TIP3    H264242   0.118   5.069  17.041 -2.1645  0.7255 -0.0812
14251TIP3   OH264243   5.132   4.671  14.546 -0.0493  0.3333 -0.6757
14251TIP3    H164244   5.190   4.628  14.484  3.5249  0.0267  2.4887
14251TIP3    H264245   5.051   4.620  14.543  1.3755 -2.0075 -2.2734
14252TIP3   OH264246   1.745   4.758   1.060 -0.6766  0.2605 -0.0694
14252TIP3    H164247   1.806   4.701   1.014 -3.3868 -1.4783 -1.7644
14252TIP3    H264248   1.765   4.846   1.027  1.7849  0.0162  0.5620
14253TIP3   OH264249   0.994   4.290   4.261 -0.2723 -0.2446 -0.1040
14253TIP3    H164250   1.022   4.381   4.266  1.3177 -0.7664  1.2782
14253TIP3    H264251   0.990   4.271   4.167 -0.0020  1.0388 -0.3972
14254TIP3   OH264252   2.395   5.851  13.487  0.3298 -0.0333  0.1027
14254TIP3    H164253   2.439   5.933  13.464  0.0201 -0.6959 -3.4920
14254TIP3    H264254   2.341   5.873  13.563  0.0908  3.1736 -0.8442
14255TIP3   OH264255   2.271   5.275   1.259 -0.1342  0.3871  0.2252
14255TIP3    H164256   2.266   5.180   1.257  0.1128  0.3832 -0.5429
14255TIP3    H264257   2.307   5.296   1.346  0.0882 -0.2272  0.2839
14256TIP3   OH264258   4.550   6.558  16.788  0.9520 -0.3885  0.4333
14256TIP3    H164259   4.505   6.477  16.765  1.0648 -1.1421  2.6227
14256TIP3    H264260   4.503   6.591  16.864  1.2059  1.3777 -0.1269
14257TIP3   OH264261   2.929   4.480  13.492 -0.6632 -0.5703  0.1850
14257TIP3    H164262   2.861   4.484  13.559  0.9238  0.9793  1.8154
14257TIP3    H264263   3.011   4.476  13.541  0.6217  1.6047 -1.5911
14258TIP3   OH264264   3.833   1.439   5.482 -0.4117  0.7013  0.0693
14258TIP3    H164265   3.827   1.367   5.420 -2.8016  1.6216 -0.8877
14258TIP3    H264266   3.857   1.398   5.565 -1.3109 -1.1318 -0.5402
14259TIP3   OH264267   1.568   4.343  10.826 -0.1450  0.1199  0.6796
14259TIP3    H164268   1.557   4.428  10.783  3.0835 -0.2271 -1.1770
14259TIP3    H264269   1.485   4.298  10.811 -0.4183  1.3600 -2.1949
14260TIP3   OH264270   5.234   6.086  16.327 -0.2955  0.5803  0.2914
14260TIP3    H164271   5.192   6.066  16.243 -0.2099 -1.4539  0.6809
14260TIP3    H264272   5.163   6.079  16.391  0.0289  0.1102  0.6064
14261TIP3   OH264273   5.093   3.771   0.876  0.5791 -0.1965 -0.6177
14261TIP3    H164274   5.151   3.779   0.951 -1.9534  2.4407  1.2591
14261TIP3    H264275   5.143   3.806   0.802  1.5333  1.7288  0.8596
14262TIP3   OH264276   3.747   6.458  11.391  0.0397 -0.1893  0.7296
14262TIP3    H164277   3.770   6.548  11.369  1.8644 -0.8981 -0.5246
14262TIP3    H264278   3.823   6.424  11.438 -1.1213 -0.7463  2.2925
14263TIP3   OH264279   0.737   3.188   3.381  0.1438  0.7831 -0.1557
14263TIP3    H164280   0.666   3.127   3.362  0.2922  0.6799 -0.3947
14263TIP3    H264281   0.762   3.170   3.472  1.1443 -0.5201 -0.6556
14264TIP3   OH264282   4.744   6.479   4.424  0.1572  0.5043 -0.4545
14264TIP3    H164283   4.796   6.439   4.354 -1.3658  0.9934 -1.9160
14264TIP3    H264284   4.654   6.479   4.391 -0.3078  2.6070  0.6407
14265TIP3   OH264285   1.978   2.655   3.184  0.3815 -0.5751  0.1870
14265TIP3    H164286   2.020   2.652   3.098  1.5285 -1.5095  0.7506
14265TIP3    H264287   1.934   2.571   3.192 -1.0387  0.1225 -0.1056
14266TIP3   OH264288   5.121   3.033  13.860 -0.4351 -0.4470 -0.3331
14266TIP3    H164289   5.075   3.105  13.902  0.3854 -0.6927  1.0536
14266TIP3    H264290   5.132   2.968  13.929  0.4259 -1.1402 -1.0906
14267TIP3   OH264291   4.366   4.145   1.470  0.4260  0.2249  0.5340
14267TIP3    H164292   4.326   4.127   1.385  0.2770 -0.7066  0.7858
14267TIP3    H264293   4.353   4.238   1.484  2.8206  1.0160 -1.6989
14268TIP3   OH264294   5.916   1.318   0.589  0.8050 -0.0832  0.0629
14268TIP3    H164295   5.967   1.396   0.569  0.8787 -0.0241  0.4614
14268TIP3    H264296   5.977   1.262   0.638 -0.1615  1.0008  2.6931
14269TIP3   OH264297   3.214   2.866  12.306 -0.3226  0.1502 -0.3049
14269TIP3    H164298   3.262   2.784  12.291 -1.6647 -0.4966 -1.3508
14269TIP3    H264299   3.246   2.925  12.238 -0.8351 -0.2027 -0.8575
14270TIP3   OH264300   0.601   6.042   4.565 -0.0296  0.3386 -0.6521
14270TIP3    H164301   0.613   6.108   4.497 -3.0650  0.5207 -1.1288
14270TIP3    H264302   0.565   6.090   4.640 -2.7873 -0.7328 -1.1790
14271TIP3   OH264303   0.730   4.275  13.683  0.8613  0.1604  0.0277
14271TIP3    H164304   0.778   4.232  13.613 -1.2987  1.3668 -2.3545
14271TIP3    H264305   0.648   4.305  13.642 -0.3795  1.2320  2.9858
14272TIP3   OH264306   4.608   1.639   6.424 -0.5342  0.9540 -0.2941
14272TIP3    H164307   4.618   1.672   6.513  3.6050  1.1095 -0.6215
14272TIP3    H264308   4.653   1.554   6.424 -1.6135  0.3278 -1.9667
14273TIP3   OH264309   3.671   1.242   5.053 -0.0386  0.2805  0.4367
14273TIP3    H164310   3.711   1.211   4.972  1.6223 -0.1257  1.3680
14273TIP3    H264311   3.601   1.178   5.071 -1.1594  0.9762 -1.1890
14274TIP3   OH264312   3.101   6.382   0.440  0.9564 -0.6368  0.2158
14274TIP3    H164313   3.037   6.322   0.402 -0.0381  0.2236  0.4989
14274TIP3    H264314   3.052   6.433   0.504  0.9164  2.8473 -2.3108
14275TIP3   OH264315   4.471   6.665  10.666  0.4207  0.6133 -0.0441
14275TIP3    H164316   4.531   6.661  10.740 -0.0070  0.5644  0.3093
14275TIP3    H264317   4.400   6.722  10.696 -0.4783 -0.5704  0.1296
14276TIP3   OH264318   5.928   4.177   0.217  0.0015 -0.5166 -0.1975
14276TIP3    H164319   5.846   4.196   0.263  0.3251 -0.4104  0.3399
14276TIP3    H264320   5.985   4.252   0.237  0.4575 -0.9056 -0.0233
14277TIP3   OH264321   4.198   0.399   1.406  0.1564  0.1604 -0.1959
14277TIP3    H164322   4.172   0.491   1.404 -0.1327  0.0795 -0.1750
14277TIP3    H264323   4.164   0.366   1.489 -1.7258 -0.5424 -1.1785
14278TIP3   OH264324   2.086   0.600  14.609 -0.1148  1.0864  0.0507
14278TIP3    H164325   2.054   0.534  14.548  0.9145 -0.1138  0.7579
14278TIP3    H264326   2.137   0.660  14.554 -1.2079  1.4330 -0.6260
14279TIP3   OH264327   4.710   5.566   2.884  0.3181  0.2625  0.0398
14279TIP3    H164328   4.617   5.586   2.877  0.2326 -0.2277 -0.1927
14279TIP3    H264329   4.714   5.476   2.917  0.7019 -0.3632 -1.6426
14280TIP3   OH264330   6.712   5.159  12.589 -0.0141  0.0754 -0.4964
14280TIP3    H164331   6.803   5.132  12.602 -0.4982 -0.6025  2.0765
14280TIP3    H264332   6.707   5.246  12.629  0.0892  1.4729 -3.2433
14281TIP3   OH264333   5.384   3.969   1.978 -0.5703 -0.9580 -0.1337
14281TIP3    H164334   5.341   3.934   1.899 -0.5980  2.5861 -1.9066
14281TIP3    H264335   5.478   3.963   1.959 -0.5862  0.8434 -1.0249
14282TIP3   OH264336   1.110   2.599  14.659 -0.0051 -0.3094  0.3616
14282TIP3    H164337   1.115   2.547  14.738 -1.3483 -0.2996  0.4730
14282TIP3    H264338   1.097   2.689  14.690 -0.7178 -0.3312  0.1340
14283TIP3   OH264339   1.075   2.484   0.801  0.3162  0.4413 -0.4518
14283TIP3    H164340   1.108   2.405   0.758  2.1539  0.6232  0.5484
14283TIP3    H264341   1.152   2.537   0.818 -0.8182  2.2417 -0.5973
14284TIP3   OH264342   0.921   2.798  13.266  0.3029 -0.1073 -0.5272
14284TIP3    H164343   0.914   2.894  13.264 -3.5950 -0.1868  0.7378
14284TIP3    H264344   0.936   2.777  13.358  0.9215 -0.7650 -0.7652
14285TIP3   OH264345   6.195   2.302   3.770  0.5270  0.4645 -0.3140
14285TIP3    H164346   6.166   2.223   3.816  0.5518  0.1374 -0.8534
14285TIP3    H264347   6.164   2.374   3.825  0.5441  0.0794  0.2078
14286TIP3   OH264348   0.449   5.776   2.163  0.2926 -0.1219 -0.3040
14286TIP3    H164349   0.370   5.743   2.206  0.4446  1.2840  1.1661
14286TIP3    H264350   0.447   5.738   2.075 -0.6860 -2.1374  0.5299
14287TIP3   OH264351   5.373   1.126   2.585 -0.6985  0.0625  0.0634
14287TIP3    H164352   5.458   1.089   2.562 -1.1204 -1.2155  0.4754
14287TIP3    H264353   5.326   1.131   2.501 -0.3902  0.3395 -0.0964
14288TIP3   OH264354   0.507   4.557   6.014  0.0358  0.0076  0.3924
14288TIP3    H164355   0.581   4.568   6.075  0.1144  1.2485  0.1012
14288TIP3    H264356   0.547   4.519   5.936  0.2297 -0.0612  0.5213
14289TIP3   OH264357   1.434   2.967  14.980 -0.4211 -0.0955  0.2538
14289TIP3    H164358   1.450   3.061  14.989  1.5808 -0.3207 -0.4668
14289TIP3    H264359   1.441   2.932  15.069 -2.4857  0.5701  0.7223
14290TIP3   OH264360   2.209   6.240   1.051  0.4296 -0.8504  0.0987
14290TIP3    H164361   2.252   6.239   0.965 -1.0742 -1.3766 -0.6812
14290TIP3    H264362   2.235   6.158   1.092 -0.4260 -1.5367 -0.6916
14291TIP3   OH264363   5.682   4.933   1.727 -0.1012 -0.2123 -0.0732
14291TIP3    H164364   5.741   5.006   1.713 -0.4277 -0.1652 -1.3815
14291TIP3    H264365   5.628   4.959   1.802  0.1735  0.6191 -0.1594
14292TIP3   OH264366   6.287   1.345  13.129 -0.0207 -0.6169  0.0553
14292TIP3    H164367   6.271   1.347  13.035  1.3803 -1.5074 -0.2332
14292TIP3    H264368   6.368   1.394  13.140  0.2337 -1.1647  0.6901
14293TIP3   OH264369   2.898   2.987   1.008 -0.1566 -0.0706  0.2152
14293TIP3    H164370   2.946   3.013   1.086 -1.6259  0.7792  0.8872
14293TIP3    H264371   2.821   2.940   1.042 -0.1637 -0.8161 -0.7788
14294TIP3   OH264372   4.497   0.084  11.374  0.4795  0.5173  0.1041
14294TIP3    H164373   4.438   0.158  11.387  0.1258  0.3310 -0.3980
14294TIP3    H264374   4.575   0.106  11.425 -0.9102 -0.3266  2.7750
14295TIP3   OH264375   4.020   1.298   1.846  0.0140  0.7607  0.2407
14295TIP3    H164376   3.994   1.336   1.930  0.5836  0.8884  0.3571
14295TIP3    H264377   4.037   1.373   1.790  0.9042  0.6791  0.3987
14296TIP3   OH264378   5.018   4.110  12.789  0.2336 -0.7596  0.3130
14296TIP3    H164379   4.935   4.079  12.753  0.9076 -0.7888 -1.3114
14296TIP3    H264380   5.084   4.049  12.755  0.9753 -0.4833  1.2124
14297TIP3   OH264381   5.852   5.694   0.465 -0.2774 -0.4006 -0.1351
14297TIP3    H164382   5.777   5.752   0.474  0.3235  0.4237 -0.3204
14297TIP3    H264383   5.928   5.753   0.465  0.3531 -1.1981 -0.1712
14298TIP3   OH264384   3.915   4.491   6.576 -0.1268 -0.4283  0.7215
14298TIP3    H164385   3.913   4.424   6.645 -0.0774 -0.9973  0.1816
14298TIP3    H264386   3.927   4.441   6.495  1.4342  0.3261  0.4459
14299TIP3   OH264387   0.881   5.772   1.231 -0.0807  0.4287  0.7281
14299TIP3    H164388   0.916   5.687   1.257  0.1930  1.1137  2.7911
14299TIP3    H264389   0.786   5.762   1.242 -0.0817  0.2717  0.5839
14300TIP3   OH264390   5.174   6.441   1.960  0.4512 -0.1768  0.3085
14300TIP3    H164391   5.228   6.519   1.974  0.1756 -0.1777  1.5037
14300TIP3    H264392   5.096   6.457   2.014 -0.1101 -0.7956 -0.3017
14301TIP3   OH264393   2.843   2.037  15.414 -0.3859 -0.2015  0.4338
14301TIP3    H164394   2.833   2.111  15.355  1.0852 -1.1098 -1.0496
14301TIP3    H264395   2.754   2.007  15.431 -0.9576  1.3946  0.4281
14302TIP3   OH264396   0.482   3.626   4.698 -0.0737  0.4832 -0.4356
14302TIP3    H164397   0.470   3.539   4.661 -1.3512  0.1640  0.6944
14302TIP3    H264398   0.430   3.684   4.642  0.6939  0.5321 -1.1233
14303TIP3   OH264399   1.331   1.140   2.524  0.5028  0.1838 -0.5595
14303TIP3    H164400   1.355   1.231   2.542 -0.7581  0.3838  0.2936
14303TIP3    H264401   1.405   1.104   2.475  2.2285  0.9280  1.3347
14304TIP3   OH264402   2.649   3.351   5.443 -0.2056  0.1242 -0.1061
14304TIP3    H164403   2.592   3.350   5.366  1.0489  2.4339 -1.1584
14304TIP3    H264404   2.707   3.427   5.430  1.8967 -1.0188  1.7835
14305TIP3   OH264405   5.476   2.298   4.657 -0.4634 -0.2149  0.3723
14305TIP3    H164406   5.497   2.248   4.736  2.6718 -0.1114 -0.2586
14305TIP3    H264407   5.458   2.231   4.590  0.8471 -0.4624  0.2407
14306TIP3   OH264408   5.617   0.067   0.223 -0.0151  0.3222  0.6897
14306TIP3    H164409   5.643  -0.025   0.215 -0.1554  0.0678  2.6364
14306TIP3    H264410   5.689   0.108   0.270  0.3007  1.3721 -0.6371
14307TIP3   OH264411   2.802   5.953   5.897 -0.6690  0.3352 -0.0049
14307TIP3    H164412   2.710   5.973   5.915 -1.2607  0.8462 -2.9909
14307TIP3    H264413   2.849   5.986   5.973 -2.9629 -0.3455  1.8278
14308TIP3   OH264414   4.170   4.144  12.146  0.2817 -0.5241  0.5543
14308TIP3    H164415   4.168   4.051  12.166 -0.9855 -0.8500 -0.9030
14308TIP3    H264416   4.097   4.181  12.196  1.6172 -0.0150  2.2346
14309TIP3   OH264417   2.390   6.288   3.722  0.6742  0.7736 -0.0083
14309TIP3    H164418   2.394   6.300   3.627  1.4469 -0.9017 -0.2411
14309TIP3    H264419   2.481   6.277   3.748  0.4105  0.3669  0.7827
14310TIP3   OH264420   5.026   4.838   2.846  0.0687 -0.1597 -0.3500
14310TIP3    H164421   4.951   4.786   2.818  0.7356 -0.6872 -1.2021
14310TIP3    H264422   5.043   4.898   2.774  0.4840 -0.0719 -0.1857
14311TIP3   OH264423   6.253   0.483  15.282 -0.5415  0.1370 -0.5200
14311TIP3    H164424   6.305   0.453  15.208  0.4264  1.9557 -0.6438
14311TIP3    H264425   6.310   0.471  15.358 -0.8148  0.0462 -0.3257
14312TIP3   OH264426   6.647   6.589  16.996  0.0331  0.5060  0.4364
14312TIP3    H164427   6.688   6.637  16.924  1.2786 -0.1519  0.6802
14312TIP3    H264428   6.678   6.499  16.986 -1.5485 -0.0843  0.5115
14313TIP3   OH264429   0.985   5.662   6.337  0.7833 -0.2536  0.2901
14313TIP3    H164430   0.891   5.675   6.324  0.7055 -1.1249 -0.0976
14313TIP3    H264431   0.992   5.570   6.364  1.4608 -0.0013  0.9921
14314TIP3   OH264432   2.575   2.575  13.504 -0.2873  0.1622  0.4406
14314TIP3    H164433   2.494   2.527  13.520 -0.6290 -0.2617 -2.2005
14314TIP3    H264434   2.546   2.662  13.476  0.1402 -0.1089 -0.8782
14315TIP3   OH264435   0.138   2.760  15.768  0.0720  0.1929  0.1575
14315TIP3    H164436   0.216   2.735  15.720  2.3778  0.3376  3.4821
14315TIP3    H264437   0.136   2.701  15.843 -2.9155  0.4050  0.3682
14316TIP3   OH264438   5.384   1.494   2.505  0.3880 -0.3728 -0.1655
14316TIP3    H164439   5.328   1.531   2.436  0.8300 -1.6581 -1.2397
14316TIP3    H264440   5.326   1.436   2.555  0.0520  0.6075  0.6243
14317TIP3   OH264441   0.890   4.572  10.443 -0.0127  0.3772 -0.2018
14317TIP3    H164442   0.827   4.637  10.411  0.9888  0.7409 -1.5206
14317TIP3    H264443   0.967   4.623  10.469  0.6221 -0.2325 -0.8319
14318TIP3   OH264444   4.341   0.070   4.488 -0.1093 -0.0045 -0.2576
14318TIP3    H164445   4.421   0.057   4.539  0.3107  0.8352 -0.6875
14318TIP3    H264446   4.370   0.072   4.397 -0.8035 -1.0750 -0.5169
14319TIP3   OH264447   3.207   2.622  11.488  0.2776 -0.2088 -0.0950
14319TIP3    H164448   3.117   2.594  11.506  0.9763 -2.0336  0.6941
14319TIP3    H264449   3.201   2.667  11.404 -1.1070 -1.7510 -0.8671
14320TIP3   OH264450   2.707   2.148   2.820  0.4543 -0.3766 -0.2382
14320TIP3    H164451   2.647   2.175   2.750  1.7391 -0.8368 -1.5691
14320TIP3    H264452   2.720   2.054   2.806  0.7760 -0.4627  0.5913
14321TIP3   OH264453   0.432   4.063  15.833 -0.4797 -0.0176 -0.4911
14321TIP3    H164454   0.528   4.062  15.841 -0.4948  0.3508 -0.2540
14321TIP3    H264455   0.406   4.150  15.863 -1.1064 -0.9988  2.1298
14322TIP3   OH264456   1.318   3.477   2.167 -0.2309  0.3072  0.1439
14322TIP3    H164457   1.286   3.565   2.183  1.3735  0.9835 -0.1629
14322TIP3    H264458   1.243   3.430   2.131 -1.3977  1.2360  1.2781
14323TIP3   OH264459   0.788   2.070   1.321  0.0997  0.2063  0.0970
14323TIP3    H164460   0.754   1.991   1.362 -1.9402  0.7048 -0.5003
14323TIP3    H264461   0.864   2.041   1.270 -1.1940 -1.5618 -0.9110
14324TIP3   OH264462   1.840   2.573  14.053  0.0492 -0.1065  0.0700
14324TIP3    H164463   1.851   2.479  14.038 -2.9310 -0.2742 -1.8023
14324TIP3    H264464   1.781   2.578  14.128 -1.1837  0.1896 -0.9013
14325TIP3   OH264465   5.939   3.635   1.872  0.0303  0.2779 -0.2859
14325TIP3    H164466   5.922   3.644   1.778 -0.0841  0.5971 -0.2325
14325TIP3    H264467   6.031   3.608   1.876  0.2602  1.0338 -0.4557
14326TIP3   OH264468   1.276   2.662  11.813  0.0409  0.7710  0.3512
14326TIP3    H164469   1.201   2.676  11.755 -0.6595  2.0444  1.4882
14326TIP3    H264470   1.331   2.739  11.800  0.5518  0.4176  0.4012
14327TIP3   OH264471   5.441   6.121  12.692  0.3161  0.1087  0.1695
14327TIP3    H164472   5.406   6.186  12.631  1.4252  1.7442  1.1623
14327TIP3    H264473   5.365   6.089  12.740 -0.3659 -0.0171 -0.9588
14328TIP3   OH264474   4.304   3.768  10.693 -0.0380  0.1003  0.1021
14328TIP3    H164475   4.327   3.782  10.785 -0.1944  1.4023 -0.0450
14328TIP3    H264476   4.230   3.826  10.677  0.5342  0.5372 -1.0797
14329TIP3   OH264477   5.210   2.044   5.024  0.1465 -0.1689  0.0995
14329TIP3    H164478   5.191   1.955   5.052  1.3106  0.1917  2.3517
14329TIP3    H264479   5.141   2.097   5.064 -0.9432 -0.0860 -1.8026
14330TIP3   OH264480   5.428   6.444   3.644  0.0037 -0.3204  0.4195
14330TIP3    H164481   5.442   6.355   3.612 -0.0767 -0.0586 -0.3643
14330TIP3    H264482   5.513   6.487   3.635 -0.5190  0.4100 -1.5954
14331TIP3   OH264483   2.899   6.792   1.599  0.1437 -0.2789  0.2456
14331TIP3    H164484   2.856   6.718   1.556  0.7207 -0.8442  0.6231
14331TIP3    H264485   2.889   6.774   1.692 -0.7794  0.7486  0.3677
14332TIP3   OH264486   3.208   6.118   0.108  0.2115  0.4491 -0.2677
14332TIP3    H164487   3.162   6.042   0.072  0.1077  0.6633 -0.5909
14332TIP3    H264488   3.268   6.081   0.172 -1.0124  0.2325  0.7965
14333TIP3   OH264489   5.691   6.565  16.435 -0.4484 -0.7395  0.4573
14333TIP3    H164490   5.756   6.595  16.371 -0.9196 -0.0366  0.3099
14333TIP3    H264491   5.608   6.602  16.406 -0.9578 -1.7442  0.5690
14334TIP3   OH264492   5.229   0.550   1.887  0.5410 -0.1251  0.2651
14334TIP3    H164493   5.254   0.627   1.938  0.5553  1.5132 -2.0829
14334TIP3    H264494   5.299   0.541   1.822  0.7125 -2.3704  0.6708
14335TIP3   OH264495   3.379   5.051   3.823  0.2351 -1.0371 -0.2436
14335TIP3    H164496   3.425   5.090   3.748 -0.9566  0.9855 -0.0143
14335TIP3    H264497   3.287   5.069   3.806 -0.0659 -0.4883  1.6921
14336TIP3   OH264498   6.217   0.575   0.537 -0.4658 -0.0112  0.1101
14336TIP3    H164499   6.171   0.575   0.622  0.6472 -1.1875  0.7447
14336TIP3    H264500   6.147   0.571   0.472 -1.4979  3.3934  0.8028
14337TIP3   OH264501   5.559   4.374   1.075 -0.2498  0.1603 -0.0554
14337TIP3    H164502   5.474   4.331   1.079 -0.5705  0.7275 -0.6404
14337TIP3    H264503   5.581   4.392   1.166 -0.6522 -0.1875  0.1139
14338TIP3   OH264504   3.548   5.514   0.223 -0.0566 -0.0604  0.5397
14338TIP3    H164505   3.492   5.476   0.291 -0.9242  0.6840  0.2689
14338TIP3    H264506   3.613   5.564   0.272 -1.2720  1.2995  0.8642
14339TIP3   OH264507   0.053   0.943   3.122 -0.1432  0.3790  0.7780
14339TIP3    H164508   0.119   1.011   3.112 -0.5307  0.6113 -0.2347
14339TIP3    H264509  -0.008   0.978   3.187  0.8966  0.0100  2.0022
14340TIP3   OH264510   2.367   3.832   3.714  0.1934  0.4410 -0.3282
14340TIP3    H164511   2.358   3.914   3.666  0.8912  0.4484 -0.4504
14340TIP3    H264512   2.312   3.770   3.667 -1.0246  1.0457  0.2593
14341TIP3   OH264513   3.731   2.021  16.428 -0.7378 -0.0835  0.1925
14341TIP3    H164514   3.691   1.951  16.479  0.3614 -0.7406  0.1749
14341TIP3    H264515   3.825   2.012  16.444 -0.6476  2.6375  1.7942
14342TIP3   OH264516   0.996   5.212  14.456  0.0631 -0.3190 -0.2043
14342TIP3    H164517   0.998   5.182  14.365 -0.2128 -1.8471  0.2587
14342TIP3    H264518   1.045   5.145  14.505  1.2919  1.1191  0.6245
14343TIP3   OH264519   5.925   0.748   1.367 -0.1609  0.0725 -0.5804
14343TIP3    H164520   6.019   0.757   1.352 -0.2987 -0.6706 -2.0252
14343TIP3    H264521   5.912   0.656   1.389 -0.6650 -0.0635 -1.4033
14344TIP3   OH264522   0.226   1.099  15.162  0.2162 -0.0720  0.1774
14344TIP3    H164523   0.257   1.056  15.241  2.8658 -0.2006 -0.8195
14344TIP3    H264524   0.208   1.027  15.101  0.6415  0.0692 -0.1270
14345TIP3   OH264525   6.040   2.968   0.241  0.3007  0.0457  0.2990
14345TIP3    H164526   6.107   2.917   0.287  1.1480  1.0432  0.1975
14345TIP3    H264527   5.991   2.902   0.191 -0.2803 -0.9966  2.1250
14346TIP3   OH264528   4.155   1.379   2.553  0.7069 -0.4823  0.3767
14346TIP3    H164529   4.135   1.465   2.590  2.1382  0.0742 -0.1116
14346TIP3    H264530   4.071   1.333   2.555 -0.2522  1.1778 -0.0541
14347TIP3   OH264531   1.722   4.161  16.709  0.2698  0.2676 -0.3105
14347TIP3    H164532   1.673   4.214  16.647  0.6463  2.7301  1.3296
14347TIP3    H264533   1.811   4.157  16.673  1.1721  3.8082  1.0132
14348TIP3   OH264534   6.687   4.679   4.830 -0.5188  0.0208  0.2740
14348TIP3    H164535   6.598   4.645   4.835 -0.9379  0.1154 -3.6238
14348TIP3    H264536   6.731   4.623   4.765  1.0123  2.2987 -0.8111
14349TIP3   OH264537   3.455   4.815  14.818  0.4341  0.1636 -0.0142
14349TIP3    H164538   3.382   4.828  14.878 -0.6188 -1.2709 -0.9057
14349TIP3    H264539   3.523   4.774  14.872 -1.0227 -2.4781  0.0026
14350TIP3   OH264540   3.884   4.545  17.172 -0.3866  0.0054 -0.1708
14350TIP3    H164541   3.789   4.536  17.174 -0.4633  0.9092  1.2025
14350TIP3    H264542   3.907   4.585  17.256  1.3767 -1.6734  0.2260
14351TIP3   OH264543   4.442   0.868   6.451  0.1866 -0.1006 -0.1340
14351TIP3    H164544   4.462   0.775   6.456  0.5424  0.0186  1.0931
14351TIP3    H264545   4.423   0.884   6.359 -0.3631 -1.4783 -0.2814
14352TIP3   OH264546   5.045   0.879  14.413  0.0984 -0.2928 -0.4174
14352TIP3    H164547   5.079   0.790  14.410  0.7095 -0.1723  1.3758
14352TIP3    H264548   5.034   0.897  14.506  0.5375  1.6958 -0.6941
14353TIP3   OH264549   4.942   2.626   4.401  0.2337 -0.3677  0.7156
14353TIP3    H164550   4.965   2.562   4.468  0.1541 -0.4270  0.6865
14353TIP3    H264551   4.963   2.582   4.318  1.0019 -0.0253  0.7261
14354TIP3   OH264552   6.040   2.159   3.234 -0.1703  0.6713  0.1033
14354TIP3    H164553   6.095   2.081   3.223 -1.7902 -0.4588 -0.3532
14354TIP3    H264554   5.976   2.134   3.300 -1.5670  1.0914 -1.0307
14355TIP3   OH264555   3.361   2.965   3.490 -0.0547 -0.2801 -1.0444
14355TIP3    H164556   3.340   3.005   3.574 -1.8424 -1.2335 -0.9947
14355TIP3    H264557   3.457   2.963   3.488  0.0303  0.0119  0.8375
14356TIP3   OH264558   2.621   4.617  16.573 -0.2424 -0.1322  0.2931
14356TIP3    H164559   2.552   4.654  16.518 -0.6767 -0.4699  0.5935
14356TIP3    H264560   2.634   4.528  16.539 -0.3857 -0.2801  0.6139
14357TIP3   OH264561   1.193   0.502  15.530  0.2128 -0.1350  0.1841
14357TIP3    H164562   1.177   0.448  15.453  0.6729  1.4048 -1.0431
14357TIP3    H264563   1.162   0.449  15.603 -2.0051 -0.9177 -1.2043
14358TIP3   OH264564   4.206   1.307  15.853  0.2897 -0.3983 -0.4738
14358TIP3    H164565   4.113   1.284  15.852 -0.3007  1.6940 -1.8008
14358TIP3    H264566   4.222   1.342  15.941 -0.6905  0.9358 -0.8007
14359TIP3   OH264567   6.357   4.523   2.774 -0.0906 -0.2582 -0.0622
14359TIP3    H164568   6.318   4.441   2.802 -1.0828  0.1730 -0.1158
14359TIP3    H264569   6.283   4.574   2.741  0.7187  0.0823 -1.4264
14360TIP3   OH264570   4.951   2.808  12.886 -0.7397  0.1658  0.0394
14360TIP3    H164571   4.995   2.845  12.962 -0.7320  2.2260 -0.8979
14360TIP3    H264572   5.020   2.766  12.835 -0.5286 -0.0628  0.5157
14361TIP3   OH264573   2.431   5.139  13.252 -0.4357 -0.1741 -0.3400
14361TIP3    H164574   2.408   5.151  13.160  0.2525 -0.4701 -0.5535
14361TIP3    H264575   2.348   5.149  13.299 -0.4890  2.1408 -0.7808
14362TIP3   OH264576   3.087   2.938   1.216 -0.0280 -0.6924 -0.2340
14362TIP3    H164577   3.027   2.894   1.277  0.7004 -1.6189 -0.1622
14362TIP3    H264578   3.135   3.000   1.271 -1.0261  0.2086 -0.3269
14363TIP3   OH264579   2.369   4.510   3.544 -0.0496  0.1462  0.1534
14363TIP3    H164580   2.400   4.441   3.603 -2.8226 -0.8044  0.6457
14363TIP3    H264581   2.383   4.475   3.456 -2.4764 -1.6765  0.3964
14364TIP3   OH264582   2.405   6.701   5.232  0.1962  0.0428  0.2948
14364TIP3    H164583   2.392   6.794   5.214  1.6326 -0.0410 -1.5049
14364TIP3    H264584   2.499   6.693   5.250  0.0092 -1.0073  0.8972
14365TIP3   OH264585   1.082   5.561   0.990  0.1541  0.1536 -0.0569
14365TIP3    H164586   1.058   5.654   0.984  1.0296  0.2981 -1.9493
14365TIP3    H264587   1.154   5.551   0.927  0.0758 -1.8192  0.1207
14366TIP3   OH264588   5.311   3.519   1.706  0.3310 -0.3438  1.0338
14366TIP3    H164589   5.279   3.505   1.617  0.6262  0.8571  0.7126
14366TIP3    H264590   5.376   3.451   1.720  1.3168  0.2964 -0.2227
14367TIP3   OH264591   3.994   2.582   5.416 -0.7846  0.0149 -0.1934
14367TIP3    H164592   4.069   2.561   5.360 -0.5618  1.6887 -0.5859
14367TIP3    H264593   4.008   2.674   5.440 -1.3407 -0.3921  1.8920
14368TIP3   OH264594   2.082   1.764  16.828  1.0892 -0.2031 -0.7999
14368TIP3    H164595   2.108   1.672  16.827 -0.0076 -0.5345 -0.2391
14368TIP3    H264596   2.118   1.798  16.910 -0.1832 -0.6629 -0.0213
14369TIP3   OH264597   5.340   2.173   3.282  0.4991 -0.6072  0.2843
14369TIP3    H164598   5.280   2.102   3.258  0.6636 -1.1071  1.3076
14369TIP3    H264599   5.333   2.179   3.377  1.0137  0.2883  0.2716
14370TIP3   OH264600   2.809   4.619  17.113  0.1323 -0.0872 -0.0485
14370TIP3    H164601   2.793   4.670  17.034 -1.4559 -0.8306 -0.2630
14370TIP3    H264602   2.870   4.672  17.165 -1.6050  2.1675 -0.1337
14371TIP3   OH264603   6.017   5.413   4.501  0.1655  0.4698  0.5508
14371TIP3    H164604   5.945   5.365   4.461  0.2219  1.8999 -1.4065
14371TIP3    H264605   5.977   5.493   4.534  0.6044  0.5772  0.8358
14372TIP3   OH264606   6.099   5.661  14.526 -0.4551  0.0028  0.0946
14372TIP3    H164607   6.059   5.724  14.586 -1.7323 -1.3465  0.7311
14372TIP3    H264608   6.192   5.682  14.528 -0.2879 -0.5051  3.2759
14373TIP3   OH264609   2.452   3.852   5.976 -0.4233 -0.3008  0.3681
14373TIP3    H164610   2.486   3.941   5.981 -0.2046 -0.3577 -0.0342
14373TIP3    H264611   2.449   3.822   6.067  1.4390 -0.5910  0.3761
14374TIP3   OH264612   2.965   6.018   2.587  0.2658 -0.2101  0.3496
14374TIP3    H164613   3.054   5.981   2.580  0.3021 -0.1292  0.3825
14374TIP3    H264614   2.962   6.087   2.521  0.2888 -0.0898  0.4745
14375TIP3   OH264615   4.689   6.230   4.322  0.7432  0.3110  0.6751
14375TIP3    H164616   4.713   6.142   4.292  0.1873 -0.3528  2.0937
14375TIP3    H264617   4.651   6.216   4.409 -1.1122  1.7478  0.1593
14376TIP3   OH264618   5.702   2.450  16.489 -0.1743 -0.5078 -0.1582
14376TIP3    H164619   5.680   2.482  16.402  1.1814  0.3606 -0.1986
14376TIP3    H264620   5.689   2.355  16.484  0.3093 -0.5145 -1.4331
14377TIP3   OH264621   6.617   4.795  13.503 -0.3670  0.4385 -0.0628
14377TIP3    H164622   6.630   4.751  13.419  1.1081  3.3652 -1.5246
14377TIP3    H264623   6.522   4.799  13.513 -0.5937 -2.8346  0.1443
14378TIP3   OH264624   3.219   5.355   0.177 -0.4721  0.3211  0.5294
14378TIP3    H164625   3.265   5.363   0.261 -0.2613  1.6224  0.3081
14378TIP3    H264626   3.206   5.261   0.166  1.3230 -0.0296  1.0398
14379TIP3   OH264627   0.372   2.861   6.398  0.4994  0.5688  1.0409
14379TIP3    H164628   0.345   2.931   6.458  1.6865  0.7119  1.4321
14379TIP3    H264629   0.461   2.885   6.371  0.6924 -0.4756  0.7079
14380TIP3   OH264630   6.114   2.324   1.443 -0.6421 -0.3960 -0.0948
14380TIP3    H164631   6.189   2.358   1.396  0.1228  1.2410  2.1146
14380TIP3    H264632   6.121   2.229   1.435  2.2860 -0.3516  0.8629
14381TIP3   OH264633   2.892   1.995   1.569  0.6608  0.0556  0.0766
14381TIP3    H164634   2.954   1.942   1.520  0.7944 -0.5193  0.8443
14381TIP3    H264635   2.811   1.945   1.568  0.5936  0.1596  0.2272
14382TIP3   OH264636   1.729   3.717   2.540  1.0336  0.5368  0.3296
14382TIP3    H164637   1.824   3.716   2.552  1.1954 -1.8825 -0.5353
14382TIP3    H264638   1.715   3.668   2.459 -0.9835  0.2243  0.8268
14383TIP3   OH264639   4.971   6.375  15.100 -0.0066 -0.4074 -0.0653
14383TIP3    H164640   4.968   6.298  15.156  1.3640 -0.6237 -0.2753
14383TIP3    H264641   4.911   6.354  15.028  1.6323 -2.0519 -1.0421
14384TIP3   OH264642   2.540   2.529  15.150  0.5498 -0.3004  0.1329
14384TIP3    H164643   2.543   2.443  15.106  0.2102 -1.2575  1.8821
14384TIP3    H264644   2.509   2.589  15.082 -1.1221 -1.9173 -0.6493
14385TIP3   OH264645   2.355   5.686   2.992 -0.2103  0.4955  0.2036
14385TIP3    H164646   2.312   5.716   3.073  0.5783  1.3242  0.3295
14385TIP3    H264647   2.310   5.604   2.971 -0.0280 -0.0676  1.8184
14386TIP3   OH264648   0.291   0.991  17.000 -0.4000 -0.1341  0.0714
14386TIP3    H164649   0.301   0.906  17.042 -1.8349  0.0217  0.7906
14386TIP3    H264650   0.346   0.985  16.922  1.4701 -0.8172  1.3718
14387TIP3   OH264651   2.987   5.530  15.806 -0.1414  0.1201  0.2977
14387TIP3    H164652   2.970   5.541  15.712 -3.6174  1.0898  0.8870
14387TIP3    H264653   3.021   5.615  15.834 -1.2105  0.5671  0.2656
14388TIP3   OH264654   4.612   3.550   1.870 -0.6399 -0.1679  0.1595
14388TIP3    H164655   4.560   3.553   1.950 -0.5294  1.8954  0.2017
14388TIP3    H264656   4.679   3.617   1.883  0.0814 -0.5974 -1.1990
14389TIP3   OH264657   4.918   6.007  11.975  0.2982  0.1143 -0.7743
14389TIP3    H164658   4.868   6.087  11.960  0.3639  0.1678 -0.7106
14389TIP3    H264659   4.999   6.037  12.017 -1.0488 -0.2494  2.3317
14390TIP3   OH264660   0.912   6.333   3.236  0.0862  0.0318  0.0967
14390TIP3    H164661   0.833   6.308   3.284  0.8347 -0.6806  0.9992
14390TIP3    H264662   0.975   6.356   3.304  1.1187 -0.8095 -0.5462
14391TIP3   OH264663   4.459   5.942  12.877 -0.2894 -0.3629 -0.4136
14391TIP3    H164664   4.464   6.037  12.889 -1.3998 -0.3488  0.0733
14391TIP3    H264665   4.416   5.910  12.957  0.8731 -1.3885 -0.1620
14392TIP3   OH264666   1.171   6.321   5.964 -0.0774  0.1194  0.9772
14392TIP3    H164667   1.086   6.359   5.941 -0.3130 -0.7229  0.3920
14392TIP3    H264668   1.150   6.232   5.994  0.7186 -0.6987 -0.7541
14393TIP3   OH264669   1.931   5.220   2.210  0.2124 -0.0445 -0.1277
14393TIP3    H164670   1.959   5.267   2.132 -1.9658 -1.3973 -1.8408
14393TIP3    H264671   1.917   5.288   2.275  1.2673  1.2126 -1.1589
14394TIP3   OH264672   3.353   4.709  11.310 -0.0385  0.4877  0.3568
14394TIP3    H164673   3.395   4.708  11.397 -1.5809 -0.1327  1.1388
14394TIP3    H264674   3.304   4.791  11.308  0.2899  0.6721 -0.0837
14395TIP3   OH264675   3.206   2.002   2.639 -0.1238  0.0858  0.2555
14395TIP3    H164676   3.126   1.950   2.651 -0.9285  1.6455  2.1235
14395TIP3    H264677   3.257   1.984   2.718  0.1135  1.2073  0.3640
14396TIP3   OH264678   4.187   2.384   1.206 -0.4587 -0.3505 -0.1324
14396TIP3    H164679   4.108   2.341   1.174 -0.3301  1.0217 -2.4804
14396TIP3    H264680   4.158   2.436   1.281 -1.6553 -0.4175 -0.5408
14397TIP3   OH264681   4.178   6.766  12.438 -0.4566 -0.1036 -0.2738
14397TIP3    H164682   4.123   6.688  12.441  1.4789 -1.5033  1.0653
14397TIP3    H264683   4.254   6.740  12.386 -1.2900  2.0512 -2.8099
14398TIP3   OH264684   0.595   3.268   1.523  0.0758 -0.0718  0.2493
14398TIP3    H164685   0.628   3.251   1.611  1.9783  0.5926 -0.2948
14398TIP3    H264686   0.500   3.260   1.531  0.0154  1.9374  2.8326
14399TIP3   OH264687   2.620   4.359  12.916 -0.2186 -0.2094 -0.2795
14399TIP3    H164688   2.543   4.359  12.860 -0.1062  0.8637 -0.4647
14399TIP3    H264689   2.689   4.321  12.862 -0.1342  0.7266 -0.8640
14400TIP3   OH264690   5.617   0.659  16.410 -0.0858  0.0963 -0.7857
14400TIP3    H164691   5.597   0.629  16.498 -0.6784  0.0458 -0.9355
14400TIP3    H264692   5.658   0.745  16.423 -1.1367  0.5703 -0.5086
14401TIP3   OH264693   1.281   4.316  10.541  0.4040 -0.1667  0.6021
14401TIP3    H164694   1.337   4.334  10.466  1.1387  0.4991  1.2834
14401TIP3    H264695   1.192   4.321  10.507  0.5976  2.8733  0.3100
14402TIP3   OH264696   2.399   0.856   1.117  0.4699 -0.1054  0.1031
14402TIP3    H164697   2.483   0.902   1.111  0.1685  0.5629  0.7337
14402TIP3    H264698   2.357   0.873   1.033  0.4986  0.5132  0.2082
14403TIP3   OH264699   2.243   5.310  16.974  0.1555  0.2215 -0.4813
14403TIP3    H164700   2.176   5.362  17.018 -1.0615 -1.2733 -0.4985
14403TIP3    H264701   2.326   5.350  17.001 -0.6612  0.9152  1.1285
14404TIP3   OH264702   1.251   4.396   6.320 -0.2412 -0.2203 -0.7372
14404TIP3    H164703   1.211   4.333   6.380  0.4798  0.3756  0.4331
14404TIP3    H264704   1.340   4.407   6.354 -0.4956  1.8042 -0.5668
14405TIP3   OH264705   4.751   2.813  16.300  0.6911  0.0684 -0.7768
14405TIP3    H164706   4.671   2.808  16.352  1.5411 -0.6891  0.4993
14405TIP3    H264707   4.770   2.722  16.277  0.7933  0.3161 -1.7219
14406TIP3   OH264708   3.269   0.644   6.438 -0.7784 -0.3479  0.2471
14406TIP3    H164709   3.303   0.600   6.360 -1.2560  0.1401 -0.2505
14406TIP3    H264710   3.177   0.662   6.416 -0.3137  1.8909 -0.0234
14407TIP3   OH264711   6.011   5.913  12.658  0.3881 -0.5788  0.1428
14407TIP3    H164712   6.101   5.891  12.633  0.3637 -0.0440 -0.4579
14407TIP3    H264713   5.957   5.880  12.586  0.2253  0.1784 -0.0929
14408TIP3   OH264714   4.957   3.748   6.065 -0.1542 -0.1480 -0.2600
14408TIP3    H164715   4.907   3.674   6.098 -1.1959  0.8517  0.4876
14408TIP3    H264716   5.024   3.763   6.132 -0.7655  0.3845  0.2469
14409TIP3   OH264717   0.452   2.345   2.853  0.0133 -0.0044  0.0452
14409TIP3    H164718   0.372   2.319   2.900  0.4220 -1.8497 -0.2000
14409TIP3    H264719   0.516   2.360   2.922 -0.3078  0.6790  0.2049
14410TIP3   OH264720   0.540   4.208   5.281  0.0289  0.0898 -0.0811
14410TIP3    H164721   0.475   4.145   5.248 -1.8696  1.5544  0.6171
14410TIP3    H264722   0.608   4.210   5.215 -1.0863 -0.8990 -1.3163
14411TIP3   OH264723   0.632   5.362  13.908  0.0179  0.2403 -0.2575
14411TIP3    H164724   0.541   5.343  13.927 -0.5650 -0.0411 -2.8988
14411TIP3    H264725   0.628   5.429  13.839  1.7661 -0.4605 -1.0914
14412TIP3   OH264726   3.469   1.048   5.081 -0.3181  0.6118 -0.1976
14412TIP3    H164727   3.400   1.051   5.147 -0.9222  2.1535 -0.8659
14412TIP3    H264728   3.520   0.970   5.104 -0.1822  1.3729  2.4084
14413TIP3   OH264729   6.376   1.971  15.028  0.1800  0.2711  0.0041
14413TIP3    H164730   6.303   1.940  15.082 -0.6268  1.9899 -0.0424
14413TIP3    H264731   6.396   1.898  14.970  1.1785 -1.7195  2.6542
14414TIP3   OH264732   5.823   0.003   1.005  0.4950 -0.0802 -0.4602
14414TIP3    H164733   5.850   0.052   0.928  2.0206 -0.5641 -0.2527
14414TIP3    H264734   5.892   0.017   1.069 -0.2327 -0.5467  0.4552
14415TIP3   OH264735   2.198   3.036   3.488  0.4542  0.0826  0.4399
14415TIP3    H164736   2.144   3.019   3.411  0.9483  0.9955 -0.1321
14415TIP3    H264737   2.141   3.020   3.562 -0.4759  0.6304 -0.1426
14416TIP3   OH264738   6.581   6.190  13.384  0.7619  0.0414  0.7081
14416TIP3    H164739   6.650   6.219  13.324  1.4569  0.6685  1.7721
14416TIP3    H264740   6.542   6.114  13.341  0.8819  0.7859 -0.7787
14417TIP3   OH264741   4.422   0.346  16.837  0.1256 -0.1094  0.4399
14417TIP3    H164742   4.413   0.379  16.926  2.9720  0.4634  0.6286
14417TIP3    H264743   4.362   0.272  16.832 -0.9287  0.5442  2.4549
14418TIP3   OH264744   3.408   1.317   3.246  0.2403 -0.5875  0.1927
14418TIP3    H164745   3.381   1.399   3.287  1.6957  0.6679 -1.2268
14418TIP3    H264746   3.326   1.277   3.218 -0.6511 -0.6451  2.6676
14419TIP3   OH264747   5.498   2.552  13.878 -0.5587  0.7428  0.1925
14419TIP3    H164748   5.451   2.558  13.794  0.2709  0.1272 -0.3305
14419TIP3    H264749   5.566   2.487  13.862  0.8823  2.0626  0.7415
14420TIP3   OH264750   5.161   0.407  16.840  0.1392 -0.5922  0.1797
14420TIP3    H164751   5.106   0.329  16.833 -1.9659  0.7043  1.3151
14420TIP3    H264752   5.175   0.434  16.749  0.2346 -1.8053 -0.1908
14421TIP3   OH264753   5.347   3.943  16.100  0.7843  0.3093 -0.0507
14421TIP3    H164754   5.385   4.029  16.113 -1.2855  1.5268 -1.3951
14421TIP3    H264755   5.254   3.954  16.123  0.9707 -2.3546  2.6343
14422TIP3   OH264756   0.275   4.486   2.710  0.2994  0.1865 -0.3197
14422TIP3    H164757   0.292   4.568   2.757 -2.0500  0.3197  0.4288
14422TIP3    H264758   0.191   4.501   2.666  0.2377 -1.5327 -0.8438
14423TIP3   OH264759   3.197   6.622  17.108 -0.1837 -0.3357  0.2181
14423TIP3    H164760   3.202   6.653  17.018  3.5470 -1.3613 -0.0885
14423TIP3    H264761   3.226   6.530  17.104 -0.1669 -0.4954  2.4169
14424TIP3   OH264762   3.224   4.579   5.650  0.5172  0.3875  0.3166
14424TIP3    H164763   3.281   4.605   5.578  0.0915  0.8144  0.1268
14424TIP3    H264764   3.210   4.659   5.700 -0.4194  0.4279  0.0052
14425TIP3   OH264765   2.592   1.195  16.136  0.0828  0.1969  0.2724
14425TIP3    H164766   2.616   1.229  16.223  0.1181  3.0788 -0.7600
14425TIP3    H264767   2.507   1.235  16.117  0.3366  0.0737 -1.2624
14426TIP3   OH264768   5.151   4.647  16.451 -0.1978 -0.0158  0.8609
14426TIP3    H164769   5.080   4.592  16.484 -0.1456 -0.7610 -0.2293
14426TIP3    H264770   5.120   4.679  16.366  0.4001  0.3868  0.7830
14427TIP3   OH264771   3.508   2.864  13.869  0.6465 -0.0699 -0.4154
14427TIP3    H164772   3.429   2.822  13.835  0.7100  0.2342 -0.9559
14427TIP3    H264773   3.484   2.956  13.880  0.2326 -0.3767  1.6247
14428TIP3   OH264774   1.572   5.754  14.033 -0.4728 -0.2898  0.2483
14428TIP3    H164775   1.643   5.709  13.988 -0.7892  0.3884 -0.9543
14428TIP3    H264776   1.603   5.844  14.043 -1.0511 -0.0492 -0.0649
14429TIP3   OH264777   2.833   3.835   4.355 -0.2367 -0.6605 -0.7093
14429TIP3    H164778   2.925   3.808   4.353 -0.2616 -0.7176 -2.2877
14429TIP3    H264779   2.784   3.754   4.355 -0.3096 -0.6319  0.2933
14430TIP3   OH264780   1.619   1.581   6.139 -0.2232  0.5671 -0.0722
14430TIP3    H164781   1.532   1.560   6.105  1.2829 -2.3795 -2.6072
14430TIP3    H264782   1.650   1.651   6.081 -0.5229  0.8957  0.1632
14431TIP3   OH264783   1.837   3.853   2.147 -0.4624  0.2378  0.1365
14431TIP3    H164784   1.819   3.895   2.063  0.3114 -0.6639 -0.5027
14431TIP3    H264785   1.879   3.921   2.200 -0.3701  0.6284 -0.4302
14432TIP3   OH264786   5.396   1.513   5.433  0.5258 -0.7754 -0.0808
14432TIP3    H164787   5.457   1.534   5.504  0.6381  0.1867 -0.4451
14432TIP3    H264788   5.433   1.557   5.356 -0.5518 -0.2851 -0.3365
14433TIP3   OH264789   6.700   2.031  15.988 -0.1836  0.0117  0.1037
14433TIP3    H164790   6.724   2.029  15.896 -2.1289 -0.1978 -0.4490
14433TIP3    H264791   6.703   2.123  16.012  2.1358 -0.0934  0.3870
14434TIP3   OH264792   3.456   6.559   3.428  0.0953 -0.2105 -0.0915
14434TIP3    H164793   3.424   6.587   3.514  1.2850 -1.0092  0.6540
14434TIP3    H264794   3.378   6.553   3.373 -0.5212  1.8843  0.4526
14435TIP3   OH264795   6.171   6.229  15.688 -0.6352  0.5309  0.6565
14435TIP3    H164796   6.100   6.165  15.689 -0.1686 -0.0428 -0.5929
14435TIP3    H264797   6.135   6.305  15.733 -2.3241  0.5325 -0.6013
14436TIP3   OH264798   6.811   6.206  10.438  0.3557  0.1966  0.1001
14436TIP3    H164799   6.899   6.243  10.431  0.4642  0.1189  1.0490
14436TIP3    H264800   6.778   6.235  10.523 -0.0557 -0.8009  0.2981
14437TIP3   OH264801   6.773   4.006   0.084 -0.0593  0.0136 -0.1436
14437TIP3    H164802   6.771   3.920   0.127  1.6429 -0.3723 -0.7618
14437TIP3    H264803   6.777   3.985  -0.010  0.4857  0.7498 -0.2910
14438TIP3   OH264804   0.188   4.217  15.341  0.1428  0.3163  0.5668
14438TIP3    H164805   0.218   4.171  15.419  1.6305 -1.1595 -0.8100
14438TIP3    H264806   0.094   4.200  15.337  0.0298  0.5089  2.0596
14439TIP3   OH264807   5.312   1.144   4.398  0.3677  0.0748 -0.3912
14439TIP3    H164808   5.305   1.070   4.337 -1.2016 -0.5270  0.4855
14439TIP3    H264809   5.263   1.214   4.355  1.5659  0.5515 -1.0581
14440TIP3   OH264810   1.972   0.386   6.332 -0.0938 -0.0602  0.1156
14440TIP3    H164811   2.030   0.363   6.404  2.2349  0.7824 -1.3639
14440TIP3    H264812   1.908   0.446   6.370 -1.1382 -2.3259  2.1774
14441TIP3   OH264813   4.344   2.475  11.407 -0.2031 -0.5407 -0.2741
14441TIP3    H164814   4.389   2.508  11.330  1.2518 -1.5863  0.0809
14441TIP3    H264815   4.258   2.518  11.405  0.4823  0.8758 -1.4386
14442TIP3   OH264816   0.733   3.121   0.882  0.0539  1.0089 -0.2962
14442TIP3    H164817   0.699   3.079   0.961  0.1481 -1.5312 -1.5304
14442TIP3    H264818   0.674   3.094   0.812  1.6767  0.7238 -1.6048
14443TIP3   OH264819   1.514   2.207  15.941  0.1637  0.1152 -0.1598
14443TIP3    H164820   1.486   2.133  15.888  1.9442  0.0557 -1.1054
14443TIP3    H264821   1.478   2.283  15.896 -0.3999 -0.0862 -0.0499
14444TIP3   OH264822   6.090   5.092  15.776 -0.3729  0.1954  0.0344
14444TIP3    H164823   6.182   5.068  15.787 -0.7927 -1.9091 -0.5470
14444TIP3    H264824   6.092   5.183  15.748  1.4557  0.5745  1.1991
14445TIP3   OH264825   5.276   1.706   0.726  0.0176  0.7775  0.3920
14445TIP3    H164826   5.214   1.634   0.731 -0.2017  1.0222  1.6346
14445TIP3    H264827   5.362   1.664   0.722 -0.0869  0.4214  1.4524
14446TIP3   OH264828   6.131   4.482  15.377  0.0087 -0.5095  0.2765
14446TIP3    H164829   6.170   4.537  15.310 -1.1724 -0.0290 -0.0477
14446TIP3    H264830   6.188   4.491  15.453  1.2530 -0.8951 -0.5879
14447TIP3   OH264831   2.926   5.611   2.496  0.1037  0.2893 -0.0253
14447TIP3    H164832   2.880   5.671   2.554 -0.0713 -0.1046  0.2470
14447TIP3    H264833   2.860   5.581   2.434  0.0829  0.0432  0.1117
14448TIP3   OH264834   5.188   3.380   5.302  0.0463 -0.2467 -0.0130
14448TIP3    H164835   5.245   3.350   5.231 -0.6743 -0.8144 -0.3668
14448TIP3    H264836   5.212   3.326   5.377 -0.9752 -1.4982 -0.5408
14449TIP3   OH264837   2.942   4.033   5.155 -0.2617  0.4055 -0.3078
14449TIP3    H164838   3.003   3.963   5.133 -0.7348  0.3191 -1.4174
14449TIP3    H264839   2.963   4.103   5.093  0.8558  1.6518  1.4120
14450TIP3   OH264840   5.792   0.002   5.218  0.3228 -0.5830 -0.1724
14450TIP3    H164841   5.815   0.083   5.264 -0.2378  0.1211 -1.0949
14450TIP3    H264842   5.876  -0.038   5.196  0.8163  1.5654 -2.8150
14451TIP3   OH264843   5.116   4.492  16.756 -0.5256 -0.7327  0.2468
14451TIP3    H164844   5.167   4.482  16.676 -0.5061 -0.2854  0.1977
14451TIP3    H264845   5.169   4.550  16.810 -1.5979  0.8884 -0.3663
14452TIP3   OH264846   1.011   6.128  12.728 -0.3801 -0.7800  0.4423
14452TIP3    H164847   1.098   6.090  12.740  0.4013  0.1443 -1.8433
14452TIP3    H264848   0.983   6.151  12.817  2.2116 -0.0564  1.1685
14453TIP3   OH264849   1.781   2.804  12.113 -0.0364 -0.4328 -0.3524
14453TIP3    H164850   1.758   2.711  12.121 -0.0133 -0.3263  1.4445
14453TIP3    H264851   1.866   2.804  12.069  0.2353 -1.3105  0.1459
14454TIP3   OH264852   3.920   0.686  16.584  0.2126  0.0569  0.4140
14454TIP3    H164853   3.984   0.633  16.537  0.2715  2.3039 -2.3340
14454TIP3    H264854   3.970   0.759  16.619 -0.7273  1.8175 -1.7254
14455TIP3   OH264855   3.940   1.073  12.109  0.4506 -0.5417 -0.2342
14455TIP3    H164856   3.917   1.011  12.178  0.1220  0.8081  0.9155
14455TIP3    H264857   4.015   1.122  12.144  0.1359  0.3283 -0.7207
14456TIP3   OH264858   3.028   6.516   1.394 -0.7115  0.2961  0.5233
14456TIP3    H164859   3.075   6.564   1.462 -0.7198  0.4985  0.3856
14456TIP3    H264860   3.037   6.570   1.316 -1.9696  0.8083  0.7128
14457TIP3   OH264861   5.288   0.916  15.686 -0.0614  0.0012  0.5663
14457TIP3    H164862   5.285   0.868  15.603  0.8248  0.9293 -0.0246
14457TIP3    H264863   5.353   0.870  15.739  0.3445  0.1935  0.2349
14458TIP3   OH264864   3.757   3.215   2.099 -0.0670  0.8620  0.6346
14458TIP3    H164865   3.793   3.213   2.011  1.5334  0.4949  1.2563
14458TIP3    H264866   3.786   3.133   2.139 -0.6059  1.1033  1.5670
14459TIP3   OH264867   2.828   1.211  11.040  0.2985  0.2940 -0.1091
14459TIP3    H164868   2.848   1.297  11.004 -1.6216  0.2109 -1.5567
14459TIP3    H264869   2.819   1.154  10.963 -0.2048 -0.7869  0.7133
14460TIP3   OH264870   1.388   1.637  16.529  0.3006  0.6177 -0.4298
14460TIP3    H164871   1.398   1.542  16.526 -0.4450  0.3017  3.0824
14460TIP3    H264872   1.327   1.657  16.458  0.6122 -1.4744 -1.3617
14461TIP3   OH264873   1.499   5.826  12.047  0.5135  0.0254  0.0703
14461TIP3    H164874   1.466   5.885  12.115 -1.2193 -1.6420  0.7534
14461TIP3    H264875   1.570   5.778  12.090  0.5374  0.1470  0.1667
14462TIP3   OH264876   2.288   2.649  11.732 -0.0113 -0.0173  0.0756
14462TIP3    H164877   2.344   2.612  11.664  0.6439 -1.3592  1.2997
14462TIP3    H264878   2.207   2.672  11.686  1.3385  1.5897 -1.6376
14463TIP3   OH264879   5.384   0.755  13.000 -0.2155  0.0245  0.2838
14463TIP3    H164880   5.472   0.721  13.017 -0.9710 -2.1568  0.1606
14463TIP3    H264881   5.335   0.736  13.080 -0.4109  1.9337  0.6506
14464TIP3   OH264882   1.245   2.727  16.719 -0.3179 -0.0094 -0.1313
14464TIP3    H164883   1.287   2.812  16.735 -1.6739  0.9729 -1.4346
14464TIP3    H264884   1.189   2.714  16.796  1.9102 -1.1289  1.4127
14465TIP3   OH264885   6.763   2.834   3.857  0.0816 -0.1003 -0.0548
14465TIP3    H164886   6.730   2.879   3.779 -1.4180 -0.9216  0.0789
14465TIP3    H264887   6.728   2.885   3.930 -2.1053 -1.6816  0.1132
14466TIP3   OH264888   1.153   0.809   1.048 -0.6190 -0.3166  0.0046
14466TIP3    H164889   1.123   0.887   1.000 -0.9978 -0.7726 -0.5074
14466TIP3    H264890   1.130   0.827   1.139  1.2593  1.1336  0.2610
14467TIP3   OH264891   5.963   5.992  15.693  0.2228  0.1433 -0.0429
14467TIP3    H164892   5.889   5.932  15.681  0.4536 -0.6510  2.0641
14467TIP3    H264893   6.021   5.972  15.619 -0.4960 -1.0237 -0.3255
14468TIP3   OH264894   4.282   4.757  15.313 -0.0052  0.3006 -0.0961
14468TIP3    H164895   4.289   4.788  15.404 -0.2181 -0.2032  0.0999
14468TIP3    H264896   4.207   4.697  15.315  1.3439 -1.4484 -0.1180
14469TIP3   OH264897   2.448   0.933   5.052  0.2745  0.1173  0.2477
14469TIP3    H164898   2.384   1.003   5.067  1.5538  1.1999  0.9372
14469TIP3    H264899   2.395   0.855   5.036 -1.3743  1.8067 -4.1548
14470TIP3   OH264900   3.177   2.101   1.379 -0.0861 -0.4123 -0.3235
14470TIP3    H164901   3.178   2.018   1.331 -0.8061 -0.5752 -0.0779
14470TIP3    H264902   3.163   2.168   1.312 -3.6278 -0.8201 -0.1869
14471TIP3   OH264903   3.802   0.954   4.341 -0.0637 -0.8531  0.3452
14471TIP3    H164904   3.870   0.951   4.274  0.9507  0.0566  1.2969
14471TIP3    H264905   3.753   1.034   4.322  0.5739 -0.2920  0.9816
14472TIP3   OH264906   2.289   0.708  15.488  0.3882 -0.4599 -0.1631
14472TIP3    H164907   2.238   0.637  15.528  2.6195 -2.1321 -0.1158
14472TIP3    H264908   2.272   0.700  15.394  0.7241 -1.1331 -0.1686
14473TIP3   OH264909   6.812   3.082  12.834  0.3686  0.6761 -0.0710
14473TIP3    H164910   6.742   3.102  12.772  1.3509  0.7615 -1.1862
14473TIP3    H264911   6.796   3.141  12.908 -0.0250  1.5764 -0.8482
14474TIP3   OH264912   5.041   0.176  15.722  0.2764  0.4955 -0.4622
14474TIP3    H164913   4.979   0.146  15.654  0.8984 -0.4647 -0.6237
14474TIP3    H264914   5.076   0.258  15.687  1.4703 -0.5691 -1.9005
14475TIP3   OH264915   3.740   2.854  14.615 -0.2069 -0.2452 -1.0443
14475TIP3    H164916   3.788   2.915  14.559  0.2590  1.5283  1.1274
14475TIP3    H264917   3.805   2.823  14.678 -0.9373 -1.3528 -0.8036
14476TIP3   OH264918   3.645   1.276  16.606 -0.3402 -0.1747 -0.1329
14476TIP3    H164919   3.562   1.309  16.571 -0.2246  0.3736  0.0892
14476TIP3    H264920   3.621   1.203  16.663 -0.6407 -0.2205 -0.3205
14477TIP3   OH264921   0.478   5.721   0.825 -0.2992 -0.2115 -0.1712
14477TIP3    H164922   0.450   5.763   0.743  0.6674  0.3609 -0.2303
14477TIP3    H264923   0.437   5.635   0.824 -2.2320  0.6523 -0.1259
14478TIP3   OH264924   0.206   6.055   5.634 -0.6378 -0.1596 -0.1009
14478TIP3    H164925   0.163   6.068   5.718 -1.1103  0.3776 -0.4131
14478TIP3    H264926   0.160   6.115   5.575 -0.7870 -1.0308 -0.8960
14479TIP3   OH264927   5.590   4.049   3.010  0.2583 -0.1729  0.6180
14479TIP3    H164928   5.683   4.053   2.990  0.5600  1.0865  2.1048
14479TIP3    H264929   5.585   4.049   3.106 -1.2854  0.4495  0.5734
14480TIP3   OH264930   3.728   4.536  14.252 -0.4195  0.0882  0.0358
14480TIP3    H164931   3.806   4.491  14.220  1.3881  2.5766  0.6011
14480TIP3    H264932   3.709   4.495  14.336  0.3933 -0.4443 -0.0286
14481TIP3   OH264933   2.035   4.156  14.442  0.3932  0.1340 -0.0285
14481TIP3    H164934   1.999   4.179  14.356 -0.5283  2.1196  0.8218
14481TIP3    H264935   2.130   4.164  14.430  0.3253 -0.3024 -1.0226
14482TIP3   OH264936   2.958   6.490   0.632  0.1278  0.4662 -0.0515
14482TIP3    H164937   2.883   6.470   0.688 -0.4055  1.9731 -0.1654
14482TIP3    H264938   2.937   6.576   0.594  0.8592 -0.1179 -1.8913
14483TIP3   OH264939   3.525   5.373   3.914  0.3764 -0.3378 -0.1928
14483TIP3    H164940   3.591   5.344   3.977 -0.6100 -2.4738 -0.0651
14483TIP3    H264941   3.571   5.375   3.830  1.2397  0.8186  0.2691
14484TIP3   OH264942   3.848   2.896  15.661 -0.2387 -0.4140  0.6420
14484TIP3    H164943   3.850   2.906  15.565  1.2452 -0.4747  0.6291
14484TIP3    H264944   3.757   2.912  15.685 -0.3617  1.0685 -0.6354
14485TIP3   OH264945   4.538   2.742   3.935 -0.3479  0.9214 -0.0672
14485TIP3    H164946   4.620   2.735   3.985 -0.5720  1.3681  0.3756
14485TIP3    H264947   4.471   2.709   3.994 -0.3652 -0.4109 -0.8004
14486TIP3   OH264948   1.538   6.662  11.110 -0.1438 -0.1639  0.1268
14486TIP3    H164949   1.534   6.566  11.117 -0.8391 -0.1809 -0.4532
14486TIP3    H264950   1.448   6.691  11.120  0.1248  0.4738  0.7733
14487TIP3   OH264951   4.025   4.442   3.817 -0.3364 -0.4808  0.6064
14487TIP3    H164952   4.072   4.451   3.734 -1.4912  0.1500 -0.0119
14487TIP3    H264953   3.943   4.399   3.794 -1.6184  1.6044  1.0191
14488TIP3   OH264954   6.679   3.816  13.945 -0.0282 -0.1089  0.3947
14488TIP3    H164955   6.741   3.778  14.007  2.1352  2.4095 -0.0144
14488TIP3    H264956   6.610   3.853  14.001  0.5340 -0.1572  1.1446
14489TIP3   OH264957   0.585   0.756   3.408  0.5602  0.0671  0.1190
14489TIP3    H164958   0.620   0.845   3.403 -0.7303  0.5347 -1.6935
14489TIP3    H264959   0.548   0.749   3.496 -1.9832  2.4510 -0.6197
14490TIP3   OH264960   3.709   1.109   0.314 -0.9119 -0.0966 -0.5228
14490TIP3    H164961   3.749   1.193   0.336  0.9463 -1.0111 -0.2535
14490TIP3    H264962   3.719   1.055   0.392  1.1440 -1.6917 -1.7590
14491TIP3   OH264963   4.019   5.128  16.408 -0.1195 -0.0934  0.1618
14491TIP3    H164964   3.981   5.189  16.471  0.5749  1.0738 -0.5258
14491TIP3    H264965   4.113   5.129  16.427  0.3388  1.4993 -1.8679
14492TIP3   OH264966   5.012   1.010   4.693 -0.4124  0.2572  0.1743
14492TIP3    H164967   4.950   0.937   4.684 -0.8468  0.6571 -0.2039
14492TIP3    H264968   4.964   1.077   4.742 -0.1150  0.3917  0.2863
14493TIP3   OH264969   4.685   0.798   4.203 -0.2334  0.3254  0.1122
14493TIP3    H164970   4.723   0.862   4.263 -0.1314  1.9679 -1.6033
14493TIP3    H264971   4.595   0.786   4.233  0.2613 -0.1031  1.4870
14494TIP3   OH264972   3.558   4.387  15.551  0.1132 -0.4068  0.6490
14494TIP3    H164973   3.544   4.386  15.646 -0.4567  0.2980  0.5777
14494TIP3    H264974   3.613   4.464  15.536  0.8021 -0.9217  0.4786
14495TIP3   OH264975   0.115   4.861  15.936 -0.0896 -0.5769 -0.5620
14495TIP3    H164976   0.201   4.872  15.896 -0.0748  1.7287 -0.0242
14495TIP3    H264977   0.056   4.913  15.881 -0.8444 -0.8670 -0.0403
14496TIP3   OH264978   2.858   3.814   6.547 -0.0762  0.3059  0.1497
14496TIP3    H164979   2.943   3.772   6.559  1.1050  2.2667 -0.8626
14496TIP3    H264980   2.831   3.790   6.458 -1.1426 -1.1491  0.8129
14497TIP3   OH264981   4.036   3.472   2.980 -0.1336  0.5156 -0.2690
14497TIP3    H164982   4.117   3.439   2.940 -0.2164  2.0304 -1.7737
14497TIP3    H264983   3.994   3.394   3.015  2.0050 -0.3058  0.6447
14498TIP3   OH264984   6.717   4.375  13.346 -0.2173 -0.2366 -0.3065
14498TIP3    H164985   6.733   4.462  13.385 -0.8732 -0.7546  1.2187
14498TIP3    H264986   6.801   4.330  13.351 -0.2300 -0.2026  0.3111
14499TIP3   OH264987   3.096   0.146   2.560  0.0718  0.3543  0.2747
14499TIP3    H164988   3.142   0.068   2.530  0.1843  0.7153 -0.5314
14499TIP3    H264989   3.042   0.172   2.485 -0.0337  0.9941  0.5667
14500TIP3   OH264990   3.639   4.976   1.210  0.2953 -0.0076 -0.1882
14500TIP3    H164991   3.701   5.043   1.240  0.5477 -0.9139  1.3832
14500TIP3    H264992   3.690   4.923   1.148  0.3026  0.7978 -0.8965
14501TIP3   OH264993   5.430   5.208  15.461  0.4018  0.9606 -0.0886
14501TIP3    H164994   5.443   5.227  15.368  2.5987 -2.3757 -0.6502
14501TIP3    H264995   5.502   5.149  15.483 -0.5499  0.9463  3.5464
14502TIP3   OH264996   0.147   1.072   2.460 -0.0650 -0.1485 -0.4396
14502TIP3    H164997   0.087   1.069   2.385  1.5248 -0.4778 -1.7442
14502TIP3    H264998   0.170   1.164   2.469 -1.2219  0.0810  0.4899
14503TIP3   OH264999   1.065   5.101   2.883 -0.5143 -0.2917 -0.1067
14503TIP3    H165000   1.041   5.168   2.819  0.1429 -0.6040 -0.6946
14503TIP3    H265001   1.143   5.060   2.847 -1.4050 -1.9920 -0.2070
14504TIP3   OH265002   0.376   0.535  10.694 -0.0031  1.0238  0.4278
14504TIP3    H165003   0.359   0.453  10.647 -1.6485  0.7406  1.4371
14504TIP3    H265004   0.314   0.597  10.656  0.0295  1.3234  0.8653
14505TIP3   OH265005   1.186   4.119   4.009 -0.0956 -1.2461 -0.1526
14505TIP3    H165006   1.250   4.187   3.990 -1.8316  0.5048 -0.1246
14505TIP3    H265007   1.101   4.162   3.995 -1.4112 -2.1338  3.8508
14506TIP3   OH265008   4.560   2.517  13.383 -0.1060  0.2787 -0.2086
14506TIP3    H165009   4.644   2.474  13.376 -0.3278 -0.1065 -0.5097
14506TIP3    H265010   4.574   2.588  13.447  0.3875  0.0912 -0.1110
14507TIP3   OH265011   6.420   1.247  11.673  0.3902  0.0426 -0.3845
14507TIP3    H165012   6.415   1.314  11.741  0.2824 -1.2052  0.9001
14507TIP3    H265013   6.373   1.284  11.599 -1.2290  0.6965  0.9053
14508TIP3   OH265014   4.037   6.108  12.104 -0.1496  0.3338  0.1585
14508TIP3    H165015   4.025   6.040  12.170 -0.9362  1.0756  0.7973
14508TIP3    H265016   4.093   6.067  12.037  1.9520  0.0224  1.9686
14509TIP3   OH265017   6.162   2.067   3.986 -0.3212  0.2954 -0.0174
14509TIP3    H165018   6.189   2.143   4.039  1.5044  0.5785 -1.2307
14509TIP3    H265019   6.238   2.009   3.989 -1.4058 -1.1487  0.2348
14510TIP3   OH265020   6.353   5.030   5.335  0.4590 -0.7772 -0.1122
14510TIP3    H165021   6.402   5.087   5.395 -0.3249  0.0334 -0.2231
14510TIP3    H265022   6.370   4.941   5.367  0.8271 -0.4128  0.7277
14511TIP3   OH265023   6.085   5.351  16.828 -0.0634  0.1256  0.5759
14511TIP3    H165024   6.099   5.258  16.809 -1.2853  0.5007 -2.8335
14511TIP3    H265025   6.034   5.352  16.909 -1.1242 -2.2706  0.0138
14512TIP3   OH265026   1.334   3.660   6.126 -0.0213 -0.4547  0.3261
14512TIP3    H165027   1.402   3.633   6.189 -0.5516  1.7230  1.9195
14512TIP3    H265028   1.372   3.736   6.081 -0.8499 -0.1210  0.1858
14513TIP3   OH265029   0.062   0.185  14.045  0.2752  0.4945  0.3619
14513TIP3    H165030  -0.011   0.152  14.099 -1.5625 -0.2146 -2.3221
14513TIP3    H265031   0.077   0.274  14.076 -0.3079 -0.0551  2.3585
14514TIP3   OH265032   3.374   2.570  14.783  0.1589  0.2086 -0.1024
14514TIP3    H165033   3.311   2.553  14.713  0.8861 -2.3295 -0.2288
14514TIP3    H265034   3.398   2.662  14.771 -1.3063  0.4249 -1.8718
14515TIP3   OH265035   3.579   0.465   3.004 -0.2423 -0.2229  0.0444
14515TIP3    H165036   3.581   0.370   3.014 -0.7123 -0.2731 -0.3477
14515TIP3    H265037   3.487   0.487   2.989 -0.1954  0.3353  0.5077
14516TIP3   OH265038   6.276   1.346  13.740 -0.1600  0.2760 -0.2698
14516TIP3    H165039   6.341   1.278  13.721 -0.1332  0.2656 -0.1383
14516TIP3    H265040   6.260   1.339  13.834 -1.2068 -0.5049 -0.4798
14517TIP3   OH265041   1.797   5.114   2.440  0.5999  0.2599  0.3669
14517TIP3    H165042   1.851   5.180   2.484 -0.4292  3.0592 -2.1750
14517TIP3    H265043   1.843   5.096   2.358  1.3111 -3.0445  1.3591
14518TIP3   OH265044   0.586   0.136   2.740 -0.2788  0.1784  0.6688
14518TIP3    H165045   0.552   0.075   2.675  0.5494  0.0404  0.3450
14518TIP3    H265046   0.520   0.204   2.746 -0.7375 -0.2201  0.2734
14519TIP3   OH265047   2.428   1.543  16.137  0.2045  0.2504 -0.1262
14519TIP3    H165048   2.502   1.572  16.084 -0.4154  0.0060 -1.1608
14519TIP3    H265049   2.467   1.512  16.219  1.0761  1.8969  0.1325
14520TIP3   OH265050   2.362   4.350  12.748  0.1922 -0.3904  0.3665
14520TIP3    H165051   2.387   4.258  12.737 -1.2679 -0.9895  1.6338
14520TIP3    H265052   2.268   4.347  12.765 -0.2247  1.5039 -1.2527
14521TIP3   OH265053   0.402   2.565  16.000  0.4232  0.6101 -0.0908
14521TIP3    H165054   0.429   2.637  15.943  0.3515  0.9582  0.3083
14521TIP3    H265055   0.316   2.541  15.968  1.5206 -1.1376 -1.9897
14522TIP3   OH265056   4.112   0.998   6.204  0.0092 -0.2788 -0.0299
14522TIP3    H165057   4.119   1.082   6.249 -0.9499  0.5733 -1.3815
14522TIP3    H265058   4.202   0.965   6.201  0.6762  1.4504 -0.8066
14523TIP3   OH265059   4.167   5.204   3.399  0.1373  0.1384 -0.1394
14523TIP3    H165060   4.246   5.205   3.346 -1.2614  0.4538 -2.3689
14523TIP3    H265061   4.145   5.111   3.409  0.2049  0.0865 -0.4712
14524TIP3   OH265062   1.897   5.550   5.250  0.3660 -0.2582 -0.1892
14524TIP3    H165063   1.864   5.640   5.259  1.9191  0.3129  0.1556
14524TIP3    H265064   1.896   5.515   5.339  1.0497 -0.0957 -0.1149
14525TIP3   OH265065   1.600   6.230   4.023 -0.2954 -0.2785 -0.3308
14525TIP3    H165066   1.593   6.223   4.118  1.2917 -0.0170 -0.1681
14525TIP3    H265067   1.649   6.310   4.008 -0.0560 -0.5995 -1.3514
14526TIP3   OH265068   1.375   4.431  15.813  0.3318  0.2117  0.9351
14526TIP3    H165069   1.370   4.420  15.718 -0.3578  1.3256  0.8290
14526TIP3    H265070   1.399   4.523  15.826  0.6120  0.0263  1.8369
14527TIP3   OH265071   5.124   2.028   3.172 -0.2098  0.0465  0.6873
14527TIP3    H165072   5.129   1.962   3.103  0.7206 -1.0591  1.7711
14527TIP3    H265073   5.056   1.995   3.231  0.1709  0.1232  1.1682
14528TIP3   OH265074   0.566   0.628   5.536  0.2067  0.0213 -0.0223
14528TIP3    H165075   0.576   0.596   5.446 -1.1332 -0.0756 -0.1559
14528TIP3    H265076   0.651   0.665   5.558  1.3673 -2.2436 -0.4077
14529TIP3   OH265077   5.341   4.320   3.304  0.5893 -0.0553  0.0973
14529TIP3    H165078   5.262   4.280   3.268  0.0383  0.2417  0.9480
14529TIP3    H265079   5.309   4.392   3.359  1.4140 -0.2708  0.8864
14530TIP3   OH265080   5.054   1.022   4.399  0.2900 -0.0823 -0.2591
14530TIP3    H165081   5.049   1.032   4.494 -0.7698  0.2330 -0.3350
14530TIP3    H265082   5.068   1.110   4.366 -1.1642  0.0880 -0.4831
14531TIP3   OH265083   0.585   0.820   2.770  0.1138  0.3866  0.2686
14531TIP3    H165084   0.594   0.862   2.855  0.4795 -3.4425  2.3292
14531TIP3    H265085   0.675   0.804   2.741  0.0130  2.2300 -1.2601
14532TIP3   OH265086   0.657   2.355   5.431 -0.5836 -0.6756 -0.2708
14532TIP3    H165087   0.743   2.338   5.469  0.1168  2.0662 -0.3956
14532TIP3    H265088   0.603   2.380   5.506 -0.6617 -0.3861 -0.4201
14533TIP3   OH265089   6.360   0.732  14.130 -0.4018  0.4598 -0.6372
14533TIP3    H165090   6.422   0.761  14.063  0.6143 -0.0845  0.0356
14533TIP3    H265091   6.383   0.782  14.207 -2.5639  2.2204 -1.0395
14534TIP3   OH265092   2.067   1.212  12.375 -0.9214 -0.0906  0.2222
14534TIP3    H165093   2.126   1.141  12.350  0.6805  1.3216 -0.2294
14534TIP3    H265094   2.009   1.173  12.440  0.1332 -1.6962  0.2649
14535TIP3   OH265095   5.044   3.902  12.244 -0.1569  0.3536  0.4514
14535TIP3    H165096   5.086   3.988  12.257  0.6978  0.2891 -1.4618
14535TIP3    H265097   5.114   3.847  12.209 -0.7899 -1.0529  1.3473
14536TIP3   OH265098   4.883   0.236  16.139  0.2600  0.0243  0.5316
14536TIP3    H165099   4.902   0.325  16.169 -1.3586  1.2392 -1.7984
14536TIP3    H265100   4.948   0.219  16.071  1.8822 -1.4829  2.3191
14537TIP3   OH265101   6.050   1.066   1.274  0.3153 -0.6891 -0.5200
14537TIP3    H165102   6.117   1.094   1.335  0.8912 -0.1468 -1.3776
14537TIP3    H265103   6.052   1.131   1.204 -0.7230 -0.9689 -0.8413
14538TIP3   OH265104   1.203   2.605  14.093 -0.0845  0.4116 -0.6539
14538TIP3    H165105   1.126   2.656  14.068  0.2527  0.6059 -1.3176
14538TIP3    H265106   1.177   2.560  14.174 -0.5227  1.3121 -0.2797
14539TIP3   OH265107   3.237   3.815  15.013 -0.2647 -0.7738  0.0177
14539TIP3    H165108   3.228   3.839  14.921  0.4252 -0.5040  0.0169
14539TIP3    H265109   3.179   3.740  15.024 -1.5363  0.1197 -0.2720
14540TIP3   OH265110   4.127   5.608  12.430 -0.1958  0.1776  0.3211
14540TIP3    H165111   4.047   5.651  12.400 -2.3207 -1.3773  3.2910
14540TIP3    H265112   4.171   5.674  12.484 -1.4229 -0.0703  1.6724
14541TIP3   OH265113   2.253   6.597  14.613 -0.1905 -0.4028  0.3048
14541TIP3    H165114   2.215   6.630  14.695  0.6617 -0.1183  0.5962
14541TIP3    H265115   2.261   6.503  14.627  0.1346 -0.3322  0.6382
14542TIP3   OH265116   1.014   4.853   0.975 -0.1329  0.4852  0.1938
14542TIP3    H165117   0.985   4.762   0.978  0.6744  0.1494 -1.3611
14542TIP3    H265118   1.067   4.864   1.054  0.1270 -0.5164  0.1596
14543TIP3   OH265119   4.719   4.525   4.943 -0.2274 -0.2221 -0.1010
14543TIP3    H165120   4.733   4.437   4.978 -0.8827 -0.8481 -1.3380
14543TIP3    H265121   4.623   4.534   4.938 -0.1640  0.1701 -0.8930
14544TIP3   OH265122   4.759   1.529   4.550  0.3404 -0.0325 -0.0812
14544TIP3    H165123   4.809   1.491   4.623 -0.7524  0.6058  1.0455
14544TIP3    H265124   4.784   1.622   4.551 -1.6232  0.5432  1.2254
14545TIP3   OH265125   4.668   1.363  15.598 -0.1423  0.3618  0.9011
14545TIP3    H165126   4.714   1.392  15.677 -2.2471 -0.4723  2.5340
14545TIP3    H265127   4.631   1.278  15.622 -1.4797  0.4344 -0.7324
14546TIP3   OH265128   3.131   4.735  13.398 -0.4999  0.0537 -0.3378
14546TIP3    H165129   3.157   4.659  13.345  0.8915  0.3415 -0.1056
14546TIP3    H265130   3.057   4.704  13.450 -0.2456 -1.0144 -0.5928
14547TIP3   OH265131   1.722   5.706  13.522  0.1203  0.1021  0.1007
14547TIP3    H165132   1.635   5.670  13.538 -1.4736  2.6758 -2.0446
14547TIP3    H265133   1.742   5.756  13.601 -0.2309 -0.6825  0.6989
14548TIP3   OH265134   2.463   4.382  11.190 -0.0885  0.0917  0.3136
14548TIP3    H165135   2.457   4.471  11.226 -1.3570  0.1506  0.0270
14548TIP3    H265136   2.540   4.383  11.133 -0.4787  1.2174 -0.2191
14549TIP3   OH265137   5.060   2.990   5.807 -0.3151 -0.2995  1.0635
14549TIP3    H165138   5.088   3.077   5.779  1.2332 -1.4741 -1.4537
14549TIP3    H265139   4.967   2.999   5.825 -0.3850  1.6747 -0.0438
14550TIP3   OH265140   5.500   5.941   4.668 -0.2651 -0.5745 -0.1377
14550TIP3    H165141   5.517   5.886   4.744 -1.0148 -0.8738 -0.1779
14550TIP3    H265142   5.471   5.880   4.600 -1.3792 -0.1238 -0.0975
14551TIP3   OH265143   0.124   6.245  13.577 -0.3705 -0.3038 -0.4011
14551TIP3    H165144   0.051   6.307  13.575 -0.7836 -0.7905 -0.5859
14551TIP3    H265145   0.143   6.232  13.670  1.5681  2.2335 -0.3493
14552TIP3   OH265146   6.145   0.613   5.934  0.3607  0.1916 -0.2672
14552TIP3    H165147   6.206   0.544   5.908  0.1662  0.0928 -0.4559
14552TIP3    H265148   6.058   0.576   5.919  0.2258 -0.1718  1.2564
14553TIP3   OH265149   3.582   6.738   0.781  0.4882  0.5143  0.0045
14553TIP3    H165150   3.668   6.699   0.764 -0.1135 -1.0051  0.2478
14553TIP3    H265151   3.522   6.688   0.725 -0.4031  0.7322  0.7352
14554TIP3   OH265152   0.903   3.474  11.278  0.0800  0.0132 -0.0135
14554TIP3    H165153   0.819   3.438  11.306  0.2198  1.2738  2.2866
14554TIP3    H265154   0.967   3.429  11.333  0.8154 -0.2086 -1.0393
14555TIP3   OH265155   1.568   6.057   1.032 -0.6898  0.1965 -0.1280
14555TIP3    H165156   1.474   6.068   1.042 -0.7472 -0.4755  0.1265
14555TIP3    H265157   1.589   5.979   1.082  0.1519  0.8453  0.5772
14556TIP3   OH265158   6.623   3.614  15.430 -0.0986  0.0124  0.1259
14556TIP3    H165159   6.651   3.618  15.339 -0.3356 -0.4141  0.0318
14556TIP3    H265160   6.703   3.626  15.481 -0.1653  1.7608 -0.1215
14557TIP3   OH265161   0.582   2.015   3.110 -0.3044  0.3637 -0.2661
14557TIP3    H165162   0.642   2.073   3.062  2.6932 -3.0192 -1.0198
14557TIP3    H265163   0.622   2.005   3.196  0.0840 -1.6499 -0.6412
14558TIP3   OH265164   6.481   3.958   4.011 -0.9649  0.1888 -0.5902
14558TIP3    H165165   6.412   3.964   3.944 -1.1563 -0.5243 -0.4717
14558TIP3    H265166   6.444   4.002   4.087 -0.4772  1.6133 -1.1501
14559TIP3   OH265167   0.754   2.062  17.206  0.4128  0.2609  0.2618
14559TIP3    H165168   0.662   2.037  17.199  0.4337 -0.0593  1.1166
14559TIP3    H265169   0.789   2.048  17.118  0.1474 -1.6354  0.4271
14560TIP3   OH265170   4.314   0.464  13.503 -0.0654  0.3350 -0.1879
14560TIP3    H165171   4.282   0.403  13.569  1.0263 -0.2477 -0.1874
14560TIP3    H265172   4.253   0.538  13.508  0.0472  0.3450  1.5322
14561TIP3   OH265173   5.730   5.588  16.492 -0.4215 -0.1552 -0.2047
14561TIP3    H165174   5.706   5.562  16.581  1.3572  1.8491  0.9520
14561TIP3    H265175   5.816   5.629  16.501 -1.3204  2.5539 -2.3546
14562TIP3   OH265176   4.692   1.400   4.920  0.5079 -0.6490 -0.8811
14562TIP3    H165177   4.633   1.475   4.916 -0.3403 -1.0548  1.9741
14562TIP3    H265178   4.636   1.324   4.905  0.8460 -0.8877 -0.9524
14563TIP3   OH265179   0.992   6.312   1.967 -0.3152  0.0556 -0.0035
14563TIP3    H165180   1.029   6.225   1.984 -0.4957 -0.3333 -1.4729
14563TIP3    H265181   0.952   6.305   1.881  1.2983  2.1245 -1.0136
14564TIP3   OH265182   2.091   5.069   1.619 -0.1387 -0.3338 -0.3928
14564TIP3    H165183   1.998   5.067   1.642 -0.0909  0.9594  0.0188
14564TIP3    H265184   2.117   4.977   1.613 -1.1394 -0.7131  0.7372
14565TIP3   OH265185   4.264   4.985  13.632  0.6640 -0.1705 -0.2251
14565TIP3    H165186   4.218   5.032  13.701 -0.8109 -3.8297  1.5470
14565TIP3    H265187   4.199   4.974  13.563  0.6679 -0.5253 -0.1729
14566TIP3   OH265188   6.569   3.852   1.411 -0.3091 -0.3620 -0.5260
14566TIP3    H165189   6.485   3.843   1.365  0.1264  0.1719 -1.4735
14566TIP3    H265190   6.546   3.860   1.503 -1.3521  0.4090 -0.8382
14567TIP3   OH265191   5.058   0.634  15.371  0.2246 -0.3425  0.3108
14567TIP3    H165192   4.978   0.618  15.421 -0.1300  1.0866  0.2198
14567TIP3    H265193   5.039   0.600  15.283 -1.3652  2.4276 -0.5409
14568TIP3   OH265194   0.168   3.061   3.350 -0.4487 -0.0225 -0.0963
14568TIP3    H165195   0.193   3.067   3.443  0.0435 -0.8373 -0.1650
14568TIP3    H265196   0.249   3.040   3.305 -0.8870 -0.6918 -0.5841
14569TIP3   OH265197   4.474   0.421   4.879 -0.1611  0.7725  0.2075
14569TIP3    H165198   4.458   0.369   4.800  0.4180  0.4267  0.3103
14569TIP3    H265199   4.387   0.435   4.916 -0.2701 -0.9152  0.6682
14570TIP3   OH265200   2.746   1.860  15.779 -0.4405 -0.1647 -0.4970
14570TIP3    H165201   2.818   1.835  15.837 -0.2885  0.6449 -0.3166
14570TIP3    H265202   2.701   1.778  15.760 -0.6069 -0.4409  0.9336
14571TIP3   OH265203   0.592   1.145   4.357  0.2967  0.2909 -0.5329
14571TIP3    H165204   0.576   1.069   4.413  1.5240 -0.2959 -0.9553
14571TIP3    H265205   0.667   1.189   4.397  1.6773 -0.5557 -2.0900
14572TIP3   OH265206   5.011   4.252   2.558  0.3863  0.2333  0.0859
14572TIP3    H165207   4.972   4.187   2.616  1.6476 -0.8440 -0.2205
14572TIP3    H265208   4.949   4.324   2.557 -1.8831 -1.6234 -0.8733
14573TIP3   OH265209   2.561   1.027   2.340 -0.0269 -0.1571 -0.1448
14573TIP3    H165210   2.640   1.076   2.361 -0.3198 -0.6008  2.3106
14573TIP3    H265211   2.492   1.071   2.390 -0.5923 -1.9692  0.7523
14574TIP3   OH265212   2.976   0.236   2.306  0.5246 -0.2561  0.1411
14574TIP3    H165213   2.882   0.251   2.305  0.2993 -1.4286  1.1135
14574TIP3    H265214   3.010   0.288   2.233 -0.9260 -0.1714 -0.4980
14575TIP3   OH265215   0.070   5.411  12.807 -0.2191  0.0537  0.3977
14575TIP3    H165216   0.013   5.463  12.864 -1.1631  1.5171 -1.6955
14575TIP3    H265217   0.104   5.475  12.744  0.9004 -1.4215 -0.5617
14576TIP3   OH265218   5.632   6.237  14.683  0.1441  0.5615  0.0893
14576TIP3    H165219   5.600   6.322  14.653 -2.6770 -0.2366  0.5150
14576TIP3    H265220   5.597   6.174  14.620  2.2120 -0.3452 -0.2416
14577TIP3   OH265221   0.313   4.877   0.369 -0.0285  0.0717  0.0443
14577TIP3    H165222   0.401   4.841   0.367  0.0690  0.2660  0.8513
14577TIP3    H265223   0.285   4.870   0.460 -0.3369  1.2178  0.0609
14578TIP3   OH265224   3.846   2.764  16.980  0.8075  0.1611 -0.3423
14578TIP3    H165225   3.854   2.856  17.003  1.8130  0.2329 -0.9281
14578TIP3    H265226   3.761   2.757  16.937 -0.2359  0.3871  1.5558
14579TIP3   OH265227   5.644   4.531   0.700  0.0685  0.0484 -0.2876
14579TIP3    H165228   5.708   4.589   0.660 -0.2617 -0.2709 -1.3112
14579TIP3    H265229   5.683   4.507   0.785  0.4254  1.3521 -0.0602
14580TIP3   OH265230   5.893   5.404  14.545  0.2646  0.1071 -0.2297
14580TIP3    H165231   5.870   5.423  14.454  0.5513  0.3764 -0.2461
14580TIP3    H265232   5.917   5.489  14.583  0.9744 -0.1277 -0.1389
14581TIP3   OH265233   0.752   5.915  11.521  0.3781 -0.6632 -0.5741
14581TIP3    H165234   0.696   5.992  11.509 -0.5340 -1.4227 -1.2322
14581TIP3    H265235   0.770   5.914  11.615  0.4935  0.4142 -0.5714
14582TIP3   OH265236   0.474   1.647  13.577  0.4418 -0.8859 -0.1487
14582TIP3    H165237   0.448   1.613  13.662 -0.0933 -1.3969 -0.5108
14582TIP3    H265238   0.416   1.604  13.515 -0.7167  1.1827 -0.5776
14583TIP3   OH265239   2.326   2.630   3.231 -0.7174  0.3114 -0.2769
14583TIP3    H165240   2.338   2.694   3.161 -2.0268  1.9159  0.9099
14583TIP3    H265241   2.290   2.553   3.188 -0.1325  0.7317 -1.5619
14584TIP3   OH265242   4.595   3.221  13.819 -0.5098  0.2874 -0.0456
14584TIP3    H165243   4.679   3.193  13.782 -0.0138  0.3494  0.9906
14584TIP3    H265244   4.564   3.290  13.761  1.8613  2.7685  1.4112
14585TIP3   OH265245   4.295   5.336   0.679  0.0617  0.2185  0.2032
14585TIP3    H165246   4.376   5.306   0.721 -1.1717 -0.2680  2.4166
14585TIP3    H265247   4.291   5.430   0.699 -1.2425 -0.2795  2.6301
14586TIP3   OH265248   4.377   1.544  11.733 -0.5454  0.8839 -0.1020
14586TIP3    H165249   4.419   1.459  11.751  0.7220  1.6707  0.8242
14586TIP3    H265250   4.345   1.572  11.819 -0.8274  1.4092 -0.3802
14587TIP3   OH265251   5.718   2.734   3.216 -0.4752  0.0634  0.2778
14587TIP3    H165252   5.719   2.653   3.165  1.9703  1.0108 -1.3819
14587TIP3    H265253   5.644   2.724   3.276 -1.1469 -2.7447 -0.8602
14588TIP3   OH265254   6.370   6.559  13.117 -0.0936  0.1502  0.4197
14588TIP3    H165255   6.296   6.614  13.141 -0.2547  0.3930 -0.6004
14588TIP3    H265256   6.332   6.483  13.073  0.2731  0.6428 -0.8078
14589TIP3   OH265257   3.977   6.684  16.281  0.0128  0.0701  0.1589
14589TIP3    H165258   3.958   6.708  16.372 -0.1489 -1.0230  0.4288
14589TIP3    H265259   3.910   6.620  16.258  0.0392  0.3494 -0.7451
14590TIP3   OH265260   6.178   5.203   0.441 -0.2648  0.3712 -0.0369
14590TIP3    H165261   6.149   5.272   0.383  1.1941  1.3858  0.3827
14590TIP3    H265262   6.273   5.213   0.446 -0.3273  0.4572  2.6396
14591TIP3   OH265263   2.423   5.684  12.584 -0.2909 -0.5448  0.0162
14591TIP3    H165264   2.359   5.711  12.651 -1.0661 -0.8946 -0.5747
14591TIP3    H265265   2.447   5.595  12.609 -1.0580 -0.9092 -0.5173
14592TIP3   OH265266   0.136   0.636   2.163 -0.4901  0.1284  0.8297
14592TIP3    H165267   0.097   0.663   2.246 -0.1152  0.9614  0.7363
14592TIP3    H265268   0.090   0.688   2.097  0.1675  0.4805  0.6419
14593TIP3   OH265269   6.312   5.866   3.194 -0.3917  0.3089 -0.0157
14593TIP3    H165270   6.330   5.777   3.165 -1.3690  0.5555 -1.4923
14593TIP3    H265271   6.380   5.920   3.154 -1.1002  0.5011 -1.0049
14594TIP3   OH265272   6.340   3.365  16.628 -0.0512 -0.6930  0.5651
14594TIP3    H165273   6.290   3.385  16.549  0.0188  0.6324  0.8480
14594TIP3    H265274   6.329   3.270  16.639 -1.6906 -0.5866  0.0867
14595TIP3   OH265275   4.378   3.001   2.105  0.4291 -0.6742 -0.6085
14595TIP3    H165276   4.432   3.009   2.183 -2.0766  1.9745  1.0584
14595TIP3    H265277   4.383   3.087   2.063 -1.0904 -0.9110 -1.3489
14596TIP3   OH265278   2.555   4.834   1.099 -0.2236 -0.8294 -0.2757
14596TIP3    H165279   2.651   4.832   1.099 -0.2017 -0.2675 -0.7600
14596TIP3    H265280   2.529   4.776   1.170  0.4806 -0.8799 -0.0564
14597TIP3   OH265281   5.553   1.453  13.188  0.5047  0.2037 -0.3414
14597TIP3    H165282   5.497   1.376  13.179 -1.1907  1.4719 -1.0704
14597TIP3    H265283   5.618   1.443  13.118  1.3900 -1.3886  0.6473
14598TIP3   OH265284   6.391   5.614   0.931 -0.3224 -0.6273  0.4035
14598TIP3    H165285   6.348   5.697   0.952 -0.6146 -0.7979  0.4874
14598TIP3    H265286   6.421   5.626   0.840 -0.8198 -0.6165  0.2362
14599TIP3   OH265287   2.522   2.032  13.547  0.6149  0.8342  0.4935
14599TIP3    H165288   2.489   1.950  13.510 -3.8082  2.2077  0.8067
14599TIP3    H265289   2.543   2.086  13.471  0.7421  0.3934  0.2116
14600TIP3   OH265290   3.393   2.130  14.814 -0.8685 -0.2166 -0.1268
14600TIP3    H165291   3.403   2.116  14.909 -0.3317  1.4838  0.0980
14600TIP3    H265292   3.307   2.171  14.805 -1.4868 -1.5350 -0.5466
14601TIP3   OH265293   0.489   6.209   5.380 -0.3819 -0.2274  0.0640
14601TIP3    H165294   0.566   6.153   5.391  0.1700  0.5346  0.1857
14601TIP3    H265295   0.524   6.292   5.346 -1.2858 -0.2505 -1.0037
14602TIP3   OH265296   1.301   5.600   0.844  0.0039 -0.1969  0.1430
14602TIP3    H165297   1.252   5.610   0.762  2.2474  0.9798 -1.1744
14602TIP3    H265298   1.389   5.633   0.823  0.6321  0.2889  3.0907
14603TIP3   OH265299   3.294   1.772  16.710 -0.3604 -0.2605 -0.3910
14603TIP3    H165300   3.378   1.816  16.696 -0.3036 -0.2740 -0.0848
14603TIP3    H265301   3.315   1.679  16.706 -0.6891 -0.2897 -2.3671
14604TIP3   OH265302   4.885   0.684   2.227 -0.4212 -0.4866  0.4598
14604TIP3    H165303   4.827   0.612   2.250 -2.8129  1.3144  0.4996
14604TIP3    H265304   4.832   0.763   2.241  1.5860  1.2213 -0.9082
14605TIP3   OH265305   1.823   0.038  12.941  0.2503 -0.0935 -0.0326
14605TIP3    H165306   1.909   0.039  12.982 -0.7129  0.7052  2.0994
14605TIP3    H265307   1.818   0.120  12.892 -0.1628  1.1126  1.9063
14606TIP3   OH265308   1.468   5.354  16.294  0.0487  0.2661 -0.6625
14606TIP3    H165309   1.406   5.425  16.274 -0.3986  0.9702  2.6512
14606TIP3    H265310   1.537   5.396  16.345  1.4872 -1.1825 -1.3246
14607TIP3   OH265311   1.966   4.909   4.194 -0.1733  0.5788 -0.1478
14607TIP3    H165312   1.876   4.891   4.168 -0.6229  1.1986  0.9067
14607TIP3    H265313   2.014   4.829   4.172 -1.3709 -0.5005  0.9797
14608TIP3   OH265314   2.844   5.998  12.230  0.8219  0.6899  0.2731
14608TIP3    H165315   2.870   5.922  12.282 -1.3848  0.5986  1.3611
14608TIP3    H265316   2.850   6.072  12.290  0.1193  0.8919  0.1118
14609TIP3   OH265317   1.839   0.390   3.098  0.4364 -0.2933 -0.6425
14609TIP3    H165318   1.821   0.311   3.047 -0.7032 -2.2853  2.5607
14609TIP3    H265319   1.773   0.452   3.070  0.5545 -0.8847 -2.3424
14610TIP3   OH265320   4.567   6.071  15.644 -0.6354 -0.1533 -0.0012
14610TIP3    H165321   4.623   6.024  15.582 -0.8533 -0.4606  0.0310
14610TIP3    H265322   4.602   6.160  15.646 -0.1887 -0.3254 -0.0297
14611TIP3   OH265323   6.332   6.448   0.679  0.3466  0.1890  0.8902
14611TIP3    H165324   6.368   6.519   0.625 -1.4162 -0.1028 -0.8007
14611TIP3    H265325   6.244   6.433   0.643  0.2476 -2.1041  1.9180
14612TIP3   OH265326   6.374   2.114  13.033 -0.6003 -0.1950 -0.7006
14612TIP3    H165327   6.321   2.048  12.988 -1.6182  0.2496 -0.1945
14612TIP3    H265328   6.394   2.179  12.966 -0.1151 -0.7037 -1.0534
14613TIP3   OH265329   4.751   5.428   2.099 -0.4592  0.0592  0.1520
14613TIP3    H165330   4.719   5.500   2.045  0.4971 -0.2357 -0.8583
14613TIP3    H265331   4.847   5.436   2.096 -0.3627 -0.7339  0.7345
14614TIP3   OH265332   4.142   1.003  17.023  0.0388  0.0539  0.6155
14614TIP3    H165333   4.198   0.937  17.064 -0.1713  1.2358  2.9939
14614TIP3    H265334   4.200   1.078  17.009 -0.5922  0.7928  1.7971
14615TIP3   OH265335   5.359   0.733  12.719  0.5495 -0.7737 -0.6000
14615TIP3    H165336   5.381   0.651  12.676  2.8531 -0.4679 -0.1137
14615TIP3    H265337   5.393   0.724  12.808 -0.7505  0.0557  0.0160
14616TIP3   OH265338   3.043   1.272  15.786 -0.8242 -0.3093  0.4039
14616TIP3    H165339   3.015   1.195  15.736  1.5236 -2.0918  1.6653
14616TIP3    H265340   3.080   1.237  15.866  0.9253  2.1153  0.7651
14617TIP3   OH265341   1.036   3.160   1.046 -0.0085  0.1340  0.0176
14617TIP3    H165342   1.081   3.081   1.016  1.1430  0.7433  0.0941
14617TIP3    H265343   0.987   3.132   1.123  1.6226 -0.1916  0.9809
14618TIP3   OH265344   5.266   0.600  13.554 -0.3104  0.6071  0.2935
14618TIP3    H165345   5.226   0.678  13.515  0.7508  1.3308  0.6119
14618TIP3    H265346   5.288   0.627  13.643  0.5271  0.1146  0.2456
14619TIP3   OH265347   5.555   3.137   0.951  0.0902 -0.6931 -0.8302
14619TIP3    H165348   5.479   3.191   0.969  0.5121 -0.1404 -0.6888
14619TIP3    H265349   5.551   3.066   1.015  0.0658 -0.2894 -0.3855
14620TIP3   OH265350   3.479   0.909   3.209  0.3173 -0.2193  0.0698
14620TIP3    H165351   3.500   0.860   3.129  2.2446 -0.5867  0.7513
14620TIP3    H265352   3.426   0.983   3.178  1.6380  0.0709 -1.6629
14621TIP3   OH265353   4.612   3.128   0.537  0.3535  0.3982 -0.1984
14621TIP3    H165354   4.622   3.127   0.442  0.9723 -2.5022 -0.2131
14621TIP3    H265355   4.662   3.052   0.567 -0.3055  0.8886  2.3962
14622TIP3   OH265356   0.262   1.478  10.671 -0.1617  0.0774 -0.2252
14622TIP3    H165357   0.354   1.498  10.654  0.1809  0.2692  1.6832
14622TIP3    H265358   0.258   1.382  10.671 -0.2504  0.0568 -1.5689
14623TIP3   OH265359   6.346   0.924  15.725 -0.1056  0.3279  0.5960
14623TIP3    H165360   6.345   0.833  15.753 -0.1039  0.4775  1.0993
14623TIP3    H265361   6.374   0.973  15.802  1.7863  0.5750 -0.1951
14624TIP3   OH265362   0.749   4.723   1.615  0.0191  0.4906 -0.1162
14624TIP3    H165363   0.658   4.694   1.623  0.2241 -0.0895  0.1421
14624TIP3    H265364   0.743   4.819   1.619 -0.6902  0.5126 -1.3852
14625TIP3   OH265365   4.823   2.421  13.356  0.9429 -0.0351  0.4084
14625TIP3    H165366   4.914   2.399  13.377  1.1750  2.5391  2.6528
14625TIP3    H265367   4.829   2.486  13.286  0.8502  0.3559  0.7625
14626TIP3   OH265368   1.423   3.860  15.557  0.5109 -0.5182  0.5211
14626TIP3    H165369   1.495   3.923  15.552 -0.1047  0.2434  0.8080
14626TIP3    H265370   1.350   3.905  15.514  0.3963 -1.5692 -0.4110
14627TIP3   OH265371   2.783   3.989  13.457 -0.4028 -0.6183  0.8706
14627TIP3    H165372   2.696   3.948  13.463 -1.3436  1.1394 -0.1075
14627TIP3    H265373   2.827   3.961  13.537 -1.0745 -3.2619  0.4236
14628TIP3   OH265374   3.401   0.244   3.331 -0.4270 -0.0114 -0.0734
14628TIP3    H165375   3.444   0.329   3.321 -0.5971  0.0814 -0.0180
14628TIP3    H265376   3.312   0.258   3.299 -0.1870 -0.4097 -0.9393
14629TIP3   OH265377   5.241   4.676   2.690 -0.0936 -0.2073  0.1590
14629TIP3    H165378   5.159   4.633   2.669  0.0924 -0.7407  0.4888
14629TIP3    H265379   5.220   4.770   2.691 -0.2347 -0.1815 -1.7407
14630TIP3   OH265380   6.568   5.289   3.299  0.2346  0.6370  0.1636
14630TIP3    H165381   6.593   5.360   3.240  0.5837  0.2864 -0.1176
14630TIP3    H265382   6.595   5.209   3.253 -1.7302  0.2064 -0.2993
14631TIP3   OH265383   5.384   5.962  16.520 -0.4072  0.5740 -0.3067
14631TIP3    H165384   5.387   5.870  16.495  0.7894  1.2324 -2.9525
14631TIP3    H265385   5.341   6.005  16.446  1.1313  2.3995 -0.2205
14632TIP3   OH265386   4.971   3.341  13.997 -0.0321 -0.7659  0.5972
14632TIP3    H165387   4.885   3.339  14.037  0.0440 -2.6857  0.7201
14632TIP3    H265388   4.954   3.342  13.903 -0.1649  0.1499  0.6146
14633TIP3   OH265389   3.405   6.730  16.077 -0.2273 -1.1684 -0.1779
14633TIP3    H165390   3.361   6.646  16.093  0.7534 -1.3887  1.5216
14633TIP3    H265391   3.496   6.707  16.059 -0.2314 -0.5321 -1.1269
14634TIP3   OH265392   5.903   2.300   1.246  0.1764  0.1312 -0.7294
14634TIP3    H165393   5.917   2.391   1.220  2.7156 -0.5884 -2.2408
14634TIP3    H265394   5.955   2.290   1.326  1.1874 -0.3512 -1.4328
14635TIP3   OH265395   4.842   0.968   5.716 -0.7147 -0.5769  0.1183
14635TIP3    H165396   4.810   0.969   5.806 -0.0142  0.2078  0.3703
14635TIP3    H265397   4.919   1.024   5.718 -1.2595  0.2431 -1.1802
14636TIP3   OH265398   4.369   1.308  13.451 -0.7322  0.0832 -0.1221
14636TIP3    H165399   4.351   1.283  13.542  0.3022 -1.3982 -0.2866
14636TIP3    H265400   4.390   1.226  13.408  1.4530  1.0768 -1.0695
14637TIP3   OH265401   2.616   4.102  15.155  0.0244  0.0023 -0.1851
14637TIP3    H165402   2.547   4.109  15.088  0.5883  0.3398 -0.7372
14637TIP3    H265403   2.695   4.132  15.111  0.1779  1.4557  1.0034
14638TIP3   OH265404   0.319   0.037   3.477  0.3199  0.2396 -0.4150
14638TIP3    H165405   0.348   0.125   3.501  2.3434 -0.3035 -0.7199
14638TIP3    H265406   0.245   0.052   3.418  0.3252  1.7305 -0.0696
14639TIP3   OH265407   2.048   1.017   1.470 -0.0964 -0.8174  0.4690
14639TIP3    H165408   2.098   1.080   1.522  1.1600 -3.0787  2.1169
14639TIP3    H265409   2.114   0.970   1.419 -0.6624 -2.6583  1.3592
14640TIP3   OH265410   6.125   0.343  11.946  0.4368 -0.4181  0.0316
14640TIP3    H165411   6.076   0.394  11.882  0.4261 -0.6742 -0.1612
14640TIP3    H265412   6.117   0.394  12.027 -0.3502 -0.5783  0.0643
14641TIP3   OH265413   1.218   4.291  16.609  0.1650  0.6282  0.1943
14641TIP3    H165414   1.125   4.304  16.627  0.1837  0.5070  0.3848
14641TIP3    H265415   1.222   4.272  16.516 -0.5752 -4.2661  0.8771
14642TIP3   OH265416   4.834   0.553   1.194  0.1385  0.0719 -0.0511
14642TIP3    H165417   4.825   0.522   1.104  0.7594  0.0248 -0.0972
14642TIP3    H265418   4.782   0.491   1.245  2.2477 -1.7575  0.0039
14643TIP3   OH265419   4.816   3.854  12.089  0.4760  0.2319  0.0602
14643TIP3    H165420   4.889   3.875  12.146  1.7080  0.1735 -1.4406
14643TIP3    H265421   4.846   3.876  12.001 -1.0016 -0.5835 -0.6970
14644TIP3   OH265422   5.169   1.734  15.341 -0.0741  0.1209 -0.0102
14644TIP3    H165423   5.117   1.655  15.340  0.4239 -0.2167  0.2700
14644TIP3    H265424   5.179   1.757  15.249 -1.2655  0.5699 -0.0429
14645TIP3   OH265425   4.978   5.897   0.324 -0.1370 -0.6659  0.1737
14645TIP3    H165426   4.998   5.922   0.234 -0.3081 -1.7244 -0.1735
14645TIP3    H265427   4.898   5.844   0.317 -0.3992 -0.3955  1.0032
14646TIP3   OH265428   2.838   4.638  10.752 -0.3412 -0.2978 -0.3800
14646TIP3    H165429   2.880   4.720  10.729  0.2634 -0.6721 -0.6215
14646TIP3    H265430   2.763   4.664  10.806 -1.5473  0.5824 -2.3559
14647TIP3   OH265431   6.098   4.672  12.465  0.1977 -0.1261 -0.0008
14647TIP3    H165432   6.115   4.578  12.458  1.3558  0.1470 -1.5918
14647TIP3    H265433   6.148   4.700  12.542  2.3356 -0.3514 -1.2387
14648TIP3   OH265434   4.144   1.541   3.824  0.1333 -0.5813  0.6532
14648TIP3    H165435   4.209   1.542   3.754  0.7837 -2.1920  1.1630
14648TIP3    H265436   4.196   1.557   3.904 -0.3000 -0.6058  0.9413
14649TIP3   OH265437   5.897   0.293  14.409  0.2654  0.7658 -0.2897
14649TIP3    H165438   5.841   0.248  14.472 -1.1614  1.0028 -1.3283
14649TIP3    H265439   5.852   0.283  14.325  1.8989  0.8137 -1.2177
14650TIP3   OH265440   6.429   2.848  15.891  0.4126 -0.5392 -0.0753
14650TIP3    H165441   6.494   2.870  15.824 -0.4602  1.3185 -0.3712
14650TIP3    H265442   6.417   2.754  15.883  4.1500 -1.2668  1.0084
14651TIP3   OH265443   3.097   5.681   2.040  0.7738  0.1870 -0.1914
14651TIP3    H165444   3.007   5.650   2.028  0.6239  0.6997 -0.4123
14651TIP3    H265445   3.098   5.717   2.129  0.6436  0.5577 -0.3362
14652TIP3   OH265446   3.976   0.593   1.555  0.7084  0.8422  0.4945
14652TIP3    H165447   3.930   0.675   1.541  0.1781  0.6661  1.1517
14652TIP3    H265448   3.940   0.533   1.490  0.7468  0.9935  0.3355
14653TIP3   OH265449   1.341   2.134   5.186 -0.2524 -0.1427  0.1282
14653TIP3    H165450   1.309   2.128   5.097 -0.4261 -1.2945  0.2514
14653TIP3    H265451   1.436   2.144   5.177 -0.1198 -1.5009 -0.1863
14654TIP3   OH265452   2.614   0.333   1.202 -0.1513  0.5995  0.0500
14654TIP3    H165453   2.648   0.290   1.124 -0.6528 -1.9434  1.1368
14654TIP3    H265454   2.520   0.315   1.201  0.1668 -1.7598  2.4684
14655TIP3   OH265455   0.216   4.196   3.375  0.7097  0.0452 -0.1922
14655TIP3    H165456   0.303   4.232   3.387  0.3386  1.2638 -0.9355
14655TIP3    H265457   0.181   4.242   3.298  0.0691 -1.6751 -1.0007
14656TIP3   OH265458   2.243   3.318  14.016  0.2242  0.2340 -0.7288
14656TIP3    H165459   2.201   3.379  14.078  1.5994 -0.8193  1.3533
14656TIP3    H265460   2.208   3.343  13.931 -1.7253  1.8218  0.4407
14657TIP3   OH265461   1.708   2.079  13.027  0.3868 -0.1926  0.1925
14657TIP3    H165462   1.718   2.174  13.023  0.6164 -0.1707  0.9922
14657TIP3    H265463   1.684   2.053  12.938 -2.7107  0.9646  0.5585
14658TIP3   OH265464   4.889   1.531  16.281  0.1260 -0.1961 -0.2749
14658TIP3    H165465   4.896   1.626  16.293 -1.3201  0.0784 -1.2927
14658TIP3    H265466   4.955   1.511  16.214  1.6308 -0.2240  1.1574
14659TIP3   OH265467   0.085   6.605  13.662 -0.0512 -0.2127  0.3131
14659TIP3    H165468   0.090   6.691  13.704  1.1076  0.0666 -0.3305
14659TIP3    H265469   0.164   6.560  13.692 -0.9492 -1.2936  1.1122
14660TIP3   OH265470   6.590   6.069  15.366  0.3309  0.7175  0.0581
14660TIP3    H165471   6.598   6.041  15.457 -1.8524  0.6214  0.2676
14660TIP3    H265472   6.641   6.004  15.317  0.4741  0.0245  1.0918
14661TIP3   OH265473   6.218   5.216  14.336 -0.0242 -0.0046 -0.0434
14661TIP3    H165474   6.196   5.307  14.315  2.1141  0.5064 -0.2479
14661TIP3    H265475   6.288   5.194  14.276  0.1026 -1.5061  0.6220
14662TIP3   OH265476   5.892   6.085  12.091  0.2116 -0.6519 -0.2899
14662TIP3    H165477   5.898   6.120  12.002  2.6758 -0.8657 -0.2738
14662TIP3    H265478   5.891   5.990  12.080 -2.8202 -0.7360 -0.1589
14663TIP3   OH265479   5.469   3.296  12.757  0.4975 -0.4945  0.1112
14663TIP3    H165480   5.499   3.206  12.766 -0.1835 -0.7828 -0.3269
14663TIP3    H265481   5.443   3.303  12.665 -0.6344 -0.2436  0.4280
14664TIP3   OH265482   4.629   2.722   5.495 -0.1572 -0.5630  0.4538
14664TIP3    H165483   4.538   2.740   5.474  0.1924 -0.5713 -1.2213
14664TIP3    H265484   4.654   2.651   5.435  0.8179 -0.8956  1.2233
14665TIP3   OH265485   2.362   4.499   2.815 -0.1726  0.0422 -0.3150
14665TIP3    H165486   2.403   4.492   2.729  0.9240 -0.2724  0.2175
14665TIP3    H265487   2.363   4.410   2.850  0.5519  0.3677  0.5318
14666TIP3   OH265488   6.621   2.757  15.726  0.2443 -0.3274 -0.5069
14666TIP3    H165489   6.586   2.740  15.638 -0.0869 -1.1555 -0.2239
14666TIP3    H265490   6.716   2.752  15.716  0.2689  0.8072 -1.0553
14667TIP3   OH265491   1.721   4.212   2.217  0.2626 -0.0881 -0.5620
14667TIP3    H165492   1.695   4.158   2.292  0.4061  0.8364  0.1850
14667TIP3    H265493   1.815   4.198   2.208  0.8866  2.0228  1.3940
14668TIP3   OH265494   1.901   5.432   4.458 -0.7941 -0.0493 -0.1205
14668TIP3    H165495   1.901   5.424   4.363  0.4296 -0.5548 -0.0907
14668TIP3    H265496   1.959   5.363   4.488 -0.2895  0.8017  0.9272
14669TIP3   OH265497   2.673   3.605  14.959  0.2139  0.0155 -0.0351
14669TIP3    H165498   2.705   3.673  14.900 -1.9539  1.5617  0.4697
14669TIP3    H265499   2.592   3.575  14.919  0.1251 -0.8811  0.7807
14670TIP3   OH265500   2.394   4.607   0.107 -0.2988  0.6947 -0.3264
14670TIP3    H165501   2.414   4.650   0.024 -0.7891 -0.0280 -0.8278
14670TIP3    H265502   2.299   4.601   0.108 -0.3957  1.9559  0.9443
14671TIP3   OH265503   6.143   2.217   2.729 -0.1702  0.1365  0.1418
14671TIP3    H165504   6.156   2.178   2.815  0.0995 -0.5554 -0.2094
14671TIP3    H265505   6.073   2.165   2.690 -1.3179  1.3591  0.4931
14672TIP3   OH265506   2.710   3.132  14.595  0.4812  0.5417  0.1952
14672TIP3    H165507   2.676   3.052  14.555 -2.3156  0.5520  2.2578
14672TIP3    H265508   2.753   3.103  14.674  0.0435  0.9941  0.6104
14673TIP3   OH265509   0.931   6.057   1.593  0.4943  0.4270 -0.2396
14673TIP3    H165510   0.953   6.080   1.503  0.2457 -0.6108 -0.5687
14673TIP3    H265511   1.001   6.098   1.645  0.2167  1.6876 -0.8121
14674TIP3   OH265512   1.074   0.395  13.561  0.0489 -0.4780  0.3521
14674TIP3    H165513   1.141   0.445  13.513 -0.7585  1.9314  1.5861
14674TIP3    H265514   1.022   0.354  13.492  0.7605  0.3873 -0.7397
14675TIP3   OH265515   0.862   0.564   1.920  0.2063  0.1236 -0.2385
14675TIP3    H165516   0.954   0.584   1.902  0.7498 -0.2705  1.8258
14675TIP3    H265517   0.832   0.636   1.976  0.0131 -0.9534  1.1075
14676TIP3   OH265518   0.179   1.084   1.980 -0.1371  0.1181  0.3061
14676TIP3    H165519   0.263   1.090   1.935 -0.4227  0.6620 -0.1672
14676TIP3    H265520   0.196   1.116   2.068  0.0217  0.8254  0.0262
14677TIP3   OH265521   5.144   6.816  15.381  0.3907  0.3172  0.0423
14677TIP3    H165522   5.084   6.812  15.307  0.6075 -0.7158 -0.0889
14677TIP3    H265523   5.125   6.901  15.422 -0.3102  0.5350 -0.6959
14678TIP3   OH265524   5.476   5.559   1.598  0.0144  0.4984  0.3537
14678TIP3    H165525   5.564   5.532   1.621 -0.5163 -0.2992  1.5468
14678TIP3    H265526   5.478   5.571   1.503  1.2321 -0.1294  0.2917
14679TIP3   OH265527   2.956   3.343  15.171 -0.4751  0.1777  0.1001
14679TIP3    H165528   2.885   3.350  15.107 -0.4245 -1.3228 -0.1484
14679TIP3    H265529   2.914   3.353  15.256 -0.9734 -0.5394 -0.0541
14680TIP3   OH265530   5.377   4.120  11.875  0.7676 -0.1890 -1.0462
14680TIP3    H165531   5.392   4.215  11.882 -0.4295  0.1234 -2.2973
14680TIP3    H265532   5.299   4.112  11.821 -0.8934 -1.8454  1.4245
14681TIP3   OH265533   3.288   5.246   1.781  0.1884  0.4340 -0.1027
14681TIP3    H165534   3.294   5.330   1.826  0.6766 -0.1196  0.8936
14681TIP3    H265535   3.196   5.240   1.754  0.3053  1.5938 -0.8273
14682TIP3   OH265536   2.571   5.046  16.744  0.1883  0.0238 -0.3026
14682TIP3    H165537   2.482   5.056  16.777  0.0143  0.0618 -0.7800
14682TIP3    H265538   2.615   4.991  16.809  0.2754  1.3187  0.7718
14683TIP3   OH265539   0.613   1.952   3.372  0.2716 -0.8196 -0.1622
14683TIP3    H165540   0.563   1.871   3.372 -0.3604 -0.4415  0.4383
14683TIP3    H265541   0.555   2.017   3.412  0.2771  0.2465 -1.7869
14684TIP3   OH265542   1.046   4.916   1.529 -0.4227  0.7184  0.0242
14684TIP3    H165543   1.088   4.831   1.514  0.4062  1.2317 -0.6469
14684TIP3    H265544   1.064   4.966   1.449  0.1092  1.9357  0.8765
14685TIP3   OH265545   2.135   2.006  12.475  0.4318 -0.0518 -0.0402
14685TIP3    H165546   2.161   1.922  12.437 -1.7547 -1.4313  1.2699
14685TIP3    H265547   2.054   2.030  12.429  0.7202  1.0614 -0.0035
14686TIP3   OH265548   2.124   4.825   3.479  0.0294 -0.3297  0.1446
14686TIP3    H165549   2.065   4.751   3.497  0.2470 -0.6019 -0.2535
14686TIP3    H265550   2.075   4.880   3.418 -1.1810  1.1839  2.3422
14687TIP3   OH265551   0.554   4.629   2.605  0.2181  0.1275  0.0601
14687TIP3    H165552   0.589   4.659   2.521  0.3124  1.3318  0.5139
14687TIP3    H265553   0.459   4.641   2.597  0.1028 -0.8864 -0.2920
14688TIP3   OH265554   1.197   3.733  12.908 -0.2658 -0.0802 -0.3710
14688TIP3    H165555   1.127   3.797  12.922  0.4253  0.3051  1.5226
14688TIP3    H265556   1.272   3.785  12.882  0.3772 -0.0364  1.4455
14689TIP3   OH265557   2.362   1.711   2.739 -0.7453  0.5566 -0.7373
14689TIP3    H165558   2.325   1.623   2.727  1.3477 -0.4443 -0.2555
14689TIP3    H265559   2.438   1.713   2.681 -0.6808  2.0053 -0.6225
14690TIP3   OH265560   4.204   2.615   4.407  0.2113  0.5083 -0.6285
14690TIP3    H165561   4.249   2.531   4.410  0.7558  0.8012 -0.5070
14690TIP3    H265562   4.239   2.664   4.481  0.3582  1.0757 -1.0691
14691TIP3   OH265563   4.200   3.414  13.726 -0.3422 -0.1987  0.4021
14691TIP3    H165564   4.166   3.449  13.644  0.8143 -0.7740 -0.3643
14691TIP3    H265565   4.193   3.487  13.788  0.9999  1.0859 -0.8521
14692TIP3   OH265566   4.503   5.844   6.064  0.1345 -0.0819  0.3476
14692TIP3    H165567   4.531   5.806   5.981  0.6023 -0.1411  0.5276
14692TIP3    H265568   4.468   5.771   6.114  0.1942 -0.1119  0.3446
14693TIP3   OH265569   0.014   0.480   3.183  0.1168  0.2562  0.2335
14693TIP3    H165570  -0.067   0.433   3.165 -0.0358  0.8573 -0.7341
14693TIP3    H265571  -0.014   0.568   3.209  0.4473  0.4517 -0.0509
14694TIP3   OH265572   5.023   6.253   5.355 -0.6590  0.2478  0.5339
14694TIP3    H165573   5.029   6.270   5.261  1.2300  1.4151  0.8151
14694TIP3    H265574   4.982   6.332   5.391 -0.7363  0.0998  0.7776
14695TIP3   OH265575   5.054   6.396  13.576 -0.3108 -0.3924 -0.3538
14695TIP3    H165576   4.992   6.465  13.596  0.0929 -0.3379  0.7766
14695TIP3    H265577   5.119   6.437  13.519  0.2557  0.3466  0.7881
14696TIP3   OH265578   3.973   2.277   1.078 -0.2598  0.3198  0.2573
14696TIP3    H165579   3.912   2.236   1.140  3.4114 -0.2000  4.0235
14696TIP3    H265580   4.006   2.204   1.025 -0.1221 -0.1139  0.9196
14697TIP3   OH265581   0.610   3.497   4.100 -0.0132 -0.4913  0.1946
14697TIP3    H165582   0.565   3.470   4.019 -2.3785 -0.3810  1.3862
14697TIP3    H265583   0.539   3.522   4.159  1.6571 -0.3994  2.2650
14698TIP3   OH265584   4.380   3.397  11.406 -0.2412 -0.0632  0.6060
14698TIP3    H165585   4.303   3.378  11.354 -0.0931  0.7079  0.0894
14698TIP3    H265586   4.454   3.387  11.346 -0.1326  1.6741  0.4138
14699TIP3   OH265587   3.183   6.498  16.739 -0.4494  0.3487  0.1415
14699TIP3    H165588   3.174   6.522  16.646  0.1570 -0.0892 -0.0354
14699TIP3    H265589   3.183   6.581  16.785 -0.3787  0.5901 -0.2857
14700TIP3   OH265590   5.761   1.530  14.988 -0.0917 -0.3693 -0.0001
14700TIP3    H165591   5.811   1.609  15.006 -0.9913  0.0658  0.6960
14700TIP3    H265592   5.794   1.466  15.051  2.1471 -1.2859 -1.9411
14701TIP3   OH265593   2.715   4.546  16.134  0.0987  0.1328 -0.2450
14701TIP3    H165594   2.728   4.641  16.132 -0.1649  0.1661 -0.6396
14701TIP3    H265595   2.621   4.535  16.121 -0.4116 -0.0942  2.9589
14702TIP3   OH265596   2.337   4.298   0.724  0.3615 -0.1395 -0.4796
14702TIP3    H165597   2.408   4.362   0.720 -0.7209  1.1224  0.0322
14702TIP3    H265598   2.280   4.329   0.794 -1.1609 -0.6551 -1.4514
14703TIP3   OH265599   5.493   5.400   3.119  0.0707 -0.3156 -0.3438
14703TIP3    H165600   5.558   5.407   3.189  0.1906  1.3313 -0.5693
14703TIP3    H265601   5.413   5.438   3.156 -0.9840 -2.7555  0.0978
14704TIP3   OH265602   3.757   6.485   5.531  0.3388 -0.3239  0.2044
14704TIP3    H165603   3.686   6.438   5.574  1.3439 -1.7099  0.4165
14704TIP3    H265604   3.837   6.448   5.568  1.2625 -1.4075 -2.6103
14705TIP3   OH265605   0.629   5.650  12.661  0.0996 -0.1030 -0.2555
14705TIP3    H165606   0.667   5.736  12.640  1.2859 -0.1593  1.4911
14705TIP3    H265607   0.545   5.671  12.702  0.4134  0.2403  0.2255
14706TIP3   OH265608   2.870   4.818   4.918 -0.6046  0.2182  0.1021
14706TIP3    H165609   2.939   4.757   4.893 -0.9716  0.6264 -2.0946
14706TIP3    H265610   2.797   4.762   4.947 -0.7078 -0.3936 -1.2786
14707TIP3   OH265611   2.584   3.003  13.149 -0.1990 -0.2524 -0.1134
14707TIP3    H165612   2.606   2.914  13.121  1.2051  0.0373  0.0049
14707TIP3    H265613   2.668   3.050  13.148 -0.9446  1.1283 -0.3843
14708TIP3   OH265614   1.511   4.198   5.010  0.2765  0.2126 -0.5671
14708TIP3    H165615   1.583   4.174   5.068  0.8419  1.2558 -0.8037
14708TIP3    H265616   1.521   4.140   4.934  0.0989 -0.5105 -0.0449
14709TIP3   OH265617   0.894   1.896  14.853  0.7342  0.0945 -0.5754
14709TIP3    H165618   0.806   1.881  14.887  0.9712  1.6348  0.8566
14709TIP3    H265619   0.890   1.864  14.763 -1.2675  0.0917 -0.5420
14710TIP3   OH265620   5.355   3.740   5.506 -0.7247 -0.1183  0.6625
14710TIP3    H165621   5.318   3.768   5.422 -0.9556  1.6002  1.3043
14710TIP3    H265622   5.283   3.697   5.551 -0.6056 -1.0300  0.0177
14711TIP3   OH265623   6.126   3.253   4.948 -0.6335  0.6049 -0.0084
14711TIP3    H165624   6.100   3.291   5.031  3.2856 -1.1368  2.3072
14711TIP3    H265625   6.105   3.160   4.956 -2.2827  0.7279 -2.0121
14712TIP3   OH265626   5.210   1.026  16.915  0.6525  0.3572  0.4424
14712TIP3    H165627   5.205   1.082  16.992 -1.9766  0.6108  0.1777
14712TIP3    H265628   5.194   0.938  16.948  0.9860  0.2658  0.3652
14713TIP3   OH265629   1.975   6.349   3.142  0.2279  0.4802  0.4911
14713TIP3    H165630   1.983   6.271   3.197 -0.5909  0.0938  0.0783
14713TIP3    H265631   1.957   6.420   3.203  1.8964  0.5396  0.9696
14714TIP3   OH265632   4.490   1.781  11.631  0.5339  0.4177 -1.0455
14714TIP3    H165633   4.436   1.709  11.666 -0.3099  1.4010 -0.2561
14714TIP3    H265634   4.427   1.837  11.586  1.1196  0.8685 -1.3000
14715TIP3   OH265635   6.240   1.211  13.365  0.2993 -0.3449 -0.0159
14715TIP3    H165636   6.332   1.191  13.383  0.8991  2.1676 -0.0001
14715TIP3    H265637   6.242   1.268  13.288 -1.4329 -1.6649 -1.1503
14716TIP3   OH265638   5.111   2.442  16.490  0.3981  0.1053  0.4116
14716TIP3    H165639   5.064   2.525  16.491 -1.1264 -0.6585  3.1696
14716TIP3    H265640   5.050   2.379  16.528  2.8618 -1.4319  2.1140
14717TIP3   OH265641   2.703   5.369   1.701  0.1443 -0.5702 -0.3272
14717TIP3    H165642   2.781   5.425   1.696 -0.2924 -0.0623 -2.4701
14717TIP3    H265643   2.735   5.281   1.684  0.1555 -0.1959 -2.5715
14718TIP3   OH265644   3.444   0.395  14.791  0.1398  0.1906 -0.1045
14718TIP3    H165645   3.357   0.399  14.752  0.1987 -0.8617 -0.3650
14718TIP3    H265646   3.504   0.395  14.717  0.3048 -0.3656  0.0208
14719TIP3   OH265647   5.587   5.870   5.875 -0.3482 -0.0274 -0.5709
14719TIP3    H165648   5.575   5.935   5.944 -0.8550 -0.2634 -0.4323
14719TIP3    H265649   5.571   5.786   5.918  1.1162 -0.3255 -0.5522
14720TIP3   OH265650   4.177   5.307   0.374 -0.1339  0.5432 -0.4307
14720TIP3    H165651   4.153   5.215   0.368  0.3356  0.4158 -0.3787
14720TIP3    H265652   4.227   5.324   0.295  1.1419  0.3442  0.3195
14721TIP3   OH265653   3.028   1.908  12.459 -0.2806  0.0705 -0.3884
14721TIP3    H165654   3.064   1.923  12.371 -0.8307 -0.0982 -0.6528
14721TIP3    H265655   2.946   1.957  12.459 -0.7517 -0.6959 -0.3106
14722TIP3   OH265656   2.094   4.085   5.810  0.7799  0.6045  0.1307
14722TIP3    H165657   2.101   4.179   5.794  2.6336  1.1480  3.1696
14722TIP3    H265658   2.164   4.047   5.756  0.8223  1.1309 -0.1942
14723TIP3   OH265659   3.040   6.755   3.779  0.3268  0.1230 -0.6524
14723TIP3    H165660   3.018   6.668   3.815  1.1309 -0.2655 -1.0702
14723TIP3    H265661   3.026   6.815   3.852 -1.8964 -0.0930 -0.8185
14724TIP3   OH265662   2.232   1.767   2.147  0.0331 -0.2432  0.3385
14724TIP3    H165663   2.203   1.858   2.152  0.0327 -0.2877  1.1935
14724TIP3    H265664   2.321   1.773   2.113 -0.1044  0.0456  0.0148
14725TIP3   OH265665   5.179   5.629   4.139 -0.1320 -0.0810  0.3128
14725TIP3    H165666   5.201   5.722   4.138  1.9533 -0.5154  0.7459
14725TIP3    H265667   5.129   5.615   4.059  0.7692  1.1480 -0.4936
14726TIP3   OH265668   0.274   4.394  12.463  0.2061 -0.2808 -0.1776
14726TIP3    H165669   0.229   4.439  12.535  1.7935  0.6500  0.2811
14726TIP3    H265670   0.229   4.423  12.384 -0.5850 -0.1135  0.3201
14727TIP3   OH265671   4.381   0.054  13.265  0.2092 -0.4690 -0.7031
14727TIP3    H165672   4.431   0.083  13.342  0.5058 -1.8854 -0.3447
14727TIP3    H265673   4.313  -0.003  13.301 -1.1279  0.7015 -1.2845
14728TIP3   OH265674   6.353   1.259   1.947  0.0485 -0.0589  1.3261
14728TIP3    H165675   6.442   1.291   1.932 -0.7155  1.4675 -0.5172
14728TIP3    H265676   6.360   1.201   2.022  2.3659  1.0604  2.0785
14729TIP3   OH265677   4.385   1.670  17.129 -0.4697 -0.1466  0.0003
14729TIP3    H165678   4.307   1.615  17.126 -0.2835 -0.3777 -0.7324
14729TIP3    H265679   4.411   1.670  17.221 -1.3578 -0.0278  0.2623
14730TIP3   OH265680   5.770   6.480   1.276  0.1388 -1.1492 -0.0325
14730TIP3    H165681   5.787   6.491   1.182 -1.0495 -0.3930 -0.1681
14730TIP3    H265682   5.857   6.469   1.314  1.2208  3.6207 -0.5470
14731TIP3   OH265683   1.188   6.283   3.762 -0.1459 -0.1676  0.2294
14731TIP3    H165684   1.264   6.226   3.773 -0.5465 -0.5218  1.2231
14731TIP3    H265685   1.167   6.312   3.851  0.2383  1.7864 -0.2700
14732TIP3   OH265686   3.545   3.244   4.350  0.6993 -0.1906 -0.2270
14732TIP3    H165687   3.640   3.242   4.357  0.7319 -0.2194 -0.6486
14732TIP3    H265688   3.514   3.183   4.417  1.0294 -1.3793 -1.1499
14733TIP3   OH265689   3.515   1.688  15.942  0.4649 -0.2918 -0.0160
14733TIP3    H165690   3.537   1.639  15.862  0.8008 -0.3822  0.1279
14733TIP3    H265691   3.529   1.625  16.013  0.3954 -0.1403  0.1315
14734TIP3   OH265692   3.440   0.722  14.434 -0.0719 -0.1682 -0.4521
14734TIP3    H165693   3.493   0.643  14.439  0.1958  0.0699  0.8457
14734TIP3    H265694   3.410   0.737  14.524  0.3027  1.4886 -0.5731
14735TIP3   OH265695   0.791   2.624   2.345  0.2503 -0.4049  0.3664
14735TIP3    H165696   0.817   2.574   2.422 -0.2096 -0.4670  0.4876
14735TIP3    H265697   0.710   2.582   2.316 -1.3161  1.4786  1.6871
14736TIP3   OH265698   0.553   1.472  16.640 -0.5475 -0.1872 -0.1399
14736TIP3    H165699   0.574   1.564  16.657  2.0792 -0.6774 -0.3732
14736TIP3    H265700   0.559   1.463  16.545  2.5708 -1.2030  0.0230
14737TIP3   OH265701   1.570   1.258  14.897 -0.4317 -0.1341 -0.4355
14737TIP3    H165702   1.640   1.312  14.860 -0.0549 -1.2216 -1.3606
14737TIP3    H265703   1.490   1.291  14.855 -0.3480  0.3873 -0.1995
14738TIP3   OH265704   5.219   1.015  11.654 -0.3143 -0.6445  0.1433
14738TIP3    H165705   5.168   0.950  11.605 -0.4259 -0.9546  0.6597
14738TIP3    H265706   5.283   1.047  11.591 -1.4998  0.1830 -0.6887
14739TIP3   OH265707   1.165   0.183   2.668  0.0396  0.2328  0.0843
14739TIP3    H165708   1.070   0.196   2.668 -0.0401 -0.2892  0.8447
14739TIP3    H265709   1.200   0.268   2.641 -0.6352  0.4512 -0.1507
14740TIP3   OH265710   5.381   1.631  14.783  0.0551  0.1300  0.5901
14740TIP3    H165711   5.386   1.722  14.755  1.1339  0.0896  0.6122
14740TIP3    H265712   5.298   1.625  14.831  0.0544  1.1399  0.7333
14741TIP3   OH265713   6.447   0.593   4.508  0.1456  0.0526  0.0651
14741TIP3    H165714   6.484   0.671   4.549 -0.6206  0.1204  0.6591
14741TIP3    H265715   6.522   0.536   4.492  0.5672  0.4015  0.7545
14742TIP3   OH265716   1.514   3.420   3.441 -0.0305 -0.4573  0.0986
14742TIP3    H165717   1.559   3.389   3.363  0.5961 -2.1033  1.0644
14742TIP3    H265718   1.583   3.459   3.495 -0.3696  0.1969  0.0704
14743TIP3   OH265719   2.727   4.755  13.164 -0.1324 -0.4811  0.3530
14743TIP3    H165720   2.639   4.725  13.187 -1.4662  1.7637 -1.3889
14743TIP3    H265721   2.739   4.726  13.074  1.6604 -2.2136  1.0988
14744TIP3   OH265722   5.641   5.758  16.310  0.0443  0.4737 -0.3609
14744TIP3    H165723   5.670   5.845  16.335  0.3855 -0.4646  3.0125
14744TIP3    H265724   5.671   5.701  16.381 -3.4175 -1.7892 -0.4538
14745TIP3   OH265725   4.115   0.664  13.553 -0.5362 -0.4165 -0.0487
14745TIP3    H165726   4.026   0.630  13.543 -0.2346 -1.7967  1.5415
14745TIP3    H265727   4.117   0.703  13.640  0.5616 -0.9292  0.1814
14746TIP3   OH265728   6.060   4.637  13.445  0.6093 -0.0347 -1.0343
14746TIP3    H165729   6.097   4.721  13.417  0.2107  1.0490  1.4412
14746TIP3    H265730   5.968   4.656  13.461  0.4989 -0.9827 -0.5338
14747TIP3   OH265731   2.467   1.537  10.235  0.1175  0.3513 -0.4600
14747TIP3    H165732   2.554   1.573  10.251 -0.3854  0.5158  2.4452
14747TIP3    H265733   2.408   1.591  10.288 -1.1406 -2.2983  1.0617
14748TIP3   OH265734   3.942   4.307  14.451  0.3258 -0.2723  0.0604
14748TIP3    H165735   3.940   4.358  14.370 -1.1529  0.7864  0.7225
14748TIP3    H265736   3.853   4.273  14.461  0.4537 -0.2958  1.2998
14749TIP3   OH265737   3.292   0.791  10.607  0.9031 -0.3402  0.1360
14749TIP3    H165738   3.381   0.786  10.644  0.4792  2.6591  1.8485
14749TIP3    H265739   3.234   0.772  10.680  0.0124 -2.4733 -1.0141
14750TIP3   OH265740   0.714   2.131   5.103 -0.2095  0.4959 -0.5185
14750TIP3    H165741   0.628   2.103   5.073  0.2395 -0.2070 -1.1685
14750TIP3    H265742   0.720   2.098   5.193 -0.4640  0.2206 -0.6010
14751TIP3   OH265743   5.004   4.001  11.936 -0.2036 -0.3020  0.1167
14751TIP3    H165744   4.994   4.096  11.933  0.3458 -0.1764  1.5634
14751TIP3    H265745   5.052   3.980  11.856  1.8162  0.9649  0.9131
14752TIP3   OH265746   6.494   3.316   3.732  0.5925  0.1437 -0.5431
14752TIP3    H165747   6.443   3.338   3.654  0.3814 -0.6402 -0.6409
14752TIP3    H265748   6.444   3.351   3.805  1.7534  2.6208 -0.8443
14753TIP3   OH265749   6.663   2.135  10.545  0.3357  0.0368  0.0097
14753TIP3    H165750   6.750   2.133  10.506 -0.2750  1.0019 -1.4834
14753TIP3    H265751   6.603   2.137  10.470 -0.8999  1.4784  0.9745
14754TIP3   OH265752   3.863   4.898   4.103 -0.4446  0.1698 -0.1260
14754TIP3    H165753   3.858   4.805   4.079 -0.2678  0.0788  0.1811
14754TIP3    H265754   3.781   4.935   4.072 -0.2332  0.0538 -0.8634
14755TIP3   OH265755   6.817   6.792   1.933  0.1773  0.3644  0.9253
14755TIP3    H165756   6.855   6.797   2.020  2.2543  2.1415  0.0005
14755TIP3    H265757   6.891   6.803   1.873 -0.9773 -1.9808 -1.1438
14756TIP3   OH265758   3.088   4.419  14.743 -0.9330 -0.5457 -0.7629
14756TIP3    H165759   3.117   4.337  14.783 -2.2588 -0.5321  0.3075
14756TIP3    H265760   3.029   4.458  14.807  0.0807  1.5460 -1.0183
14757TIP3   OH265761   2.294   6.269  13.009 -0.5872 -0.2054  0.0724
14757TIP3    H165762   2.268   6.321  13.085 -1.7149 -0.3336 -0.2066
14757TIP3    H265763   2.331   6.332  12.947 -1.1061  0.1398  0.1081
14758TIP3   OH265764   0.915   0.714  14.724  0.7156 -0.0381  0.6674
14758TIP3    H165765   0.961   0.751  14.800  1.6370 -0.1009  0.1662
14758TIP3    H265766   0.972   0.737  14.649 -0.2128  0.1007 -0.0153
14759TIP3   OH265767   5.559   2.406  15.158 -0.0758  0.6282 -0.0634
14759TIP3    H165768   5.613   2.373  15.230  0.2343  1.2271 -0.0164
14759TIP3    H265769   5.535   2.328  15.108  0.0074  0.2451  0.4801
14760TIP3   OH265770   6.814   0.828  15.830 -0.3793  0.1939 -0.2001
14760TIP3    H165771   6.885   0.777  15.870 -0.5376 -1.3649 -1.7538
14760TIP3    H265772   6.854   0.866  15.752 -1.0140 -0.0157 -0.6390
14761TIP3   OH265773   0.208   1.180   4.809 -0.2407  0.3166 -0.3755
14761TIP3    H165774   0.247   1.225   4.735  0.5072 -0.4227 -0.4451
14761TIP3    H265775   0.277   1.177   4.876 -1.2651  2.0371  0.8514
14762TIP3   OH265776   6.038   1.451   3.952 -0.0260 -0.1194  0.1417
14762TIP3    H165777   5.974   1.383   3.972 -0.4809  0.2248 -0.1227
14762TIP3    H265778   6.016   1.479   3.863 -0.8273  1.4437  0.7990
14763TIP3   OH265779   1.632   1.905  12.743 -0.4848 -0.5984 -0.1388
14763TIP3    H165780   1.681   1.878  12.665 -0.3304  0.2063 -0.3269
14763TIP3    H265781   1.642   1.831  12.804  1.5428 -0.2136  0.0875
14764TIP3   OH265782   2.180   4.842  12.870 -0.2932  0.0252  0.1307
14764TIP3    H165783   2.164   4.814  12.960 -1.4428 -0.9909 -0.3578
14764TIP3    H265784   2.098   4.825  12.824  0.7232 -0.9192 -1.4500
14765TIP3   OH265785   2.704   4.946  12.074  0.0138 -0.3198 -0.0622
14765TIP3    H165786   2.731   5.026  12.117  0.4911 -0.1805 -0.6147
14765TIP3    H265787   2.727   4.959  11.982 -0.0921 -1.0067 -0.1920
14766TIP3   OH265788   0.757   6.244  16.218 -0.4195 -0.1832 -0.8048
14766TIP3    H165789   0.825   6.203  16.166 -1.7923 -2.7735 -0.7242
14766TIP3    H265790   0.804   6.290  16.289  1.2837  0.4136 -2.2507
14767TIP3   OH265791   0.587   5.173  14.272  0.4690  0.2224  0.0015
14767TIP3    H165792   0.592   5.154  14.366 -1.2594 -0.8142 -0.0769
14767TIP3    H265793   0.633   5.099  14.231  0.5095  0.2461  0.0044
14768TIP3   OH265794   3.374   4.069  12.697  0.1915  0.3280  0.0478
14768TIP3    H165795   3.327   3.989  12.717 -1.3400  1.6209  2.0335
14768TIP3    H265796   3.338   4.097  12.612  1.2790 -1.3780 -1.0375
14769TIP3   OH265797   4.753   2.607   4.042 -0.1701 -0.2220  0.0607
14769TIP3    H165798   4.804   2.534   4.077 -0.4752 -0.4882 -0.0398
14769TIP3    H265799   4.818   2.670   4.011  0.2205 -1.9860 -3.1529
14770TIP3   OH265800   2.153   3.309  17.100  0.7447  0.4763  0.3400
14770TIP3    H165801   2.144   3.273  17.188 -1.3298 -2.5156 -0.9218
14770TIP3    H265802   2.094   3.385  17.099 -1.9809 -1.4783  0.6814
14771TIP3   OH265803   4.279   5.752   4.452 -0.7154  0.5001  0.2776
14771TIP3    H165804   4.321   5.720   4.372 -0.4493 -0.1968  0.6825
14771TIP3    H265805   4.303   5.844   4.456  0.1871  0.2878  0.1102
14772TIP3   OH265806   1.944   2.504  11.905 -0.3407  0.0031 -0.3156
14772TIP3    H165807   1.983   2.449  11.972 -1.8756  0.3668  0.9211
14772TIP3    H265808   1.961   2.457  11.823  1.3653 -0.5531  0.3114
14773TIP3   OH265809   3.693   1.623  16.845 -0.1142  0.1313  0.0964
14773TIP3    H165810   3.747   1.573  16.784 -1.0569 -0.6883 -0.1066
14773TIP3    H265811   3.753   1.685  16.886  0.8414 -0.3396 -0.5575
14774TIP3   OH265812   0.497   0.050   2.027 -0.0298 -0.0980  0.2812
14774TIP3    H165813   0.564   0.113   2.002 -0.0815  0.5102  1.5877
14774TIP3    H265814   0.439   0.099   2.086  0.0152 -1.3962  1.4547
14775TIP3   OH265815   2.315   3.626   5.551 -0.1880  0.1337  0.1084
14775TIP3    H165816   2.309   3.690   5.479 -1.3447  0.1265  0.1705
14775TIP3    H265817   2.408   3.622   5.572 -0.1282  2.3705  0.6102
14776TIP3   OH265818   3.675   1.661  15.502  0.2945 -0.2651 -0.2791
14776TIP3    H165819   3.712   1.574  15.514 -0.9102 -0.4445  2.8925
14776TIP3    H265820   3.750   1.720  15.499  1.0400 -0.9881  2.3151
14777TIP3   OH265821   0.924   0.714  12.062  0.5640  0.2287 -0.7527
14777TIP3    H165822   0.845   0.700  12.114  0.9886 -3.6317 -0.8939
14777TIP3    H265823   0.997   0.696  12.123  1.3179  1.6248 -1.1880
14778TIP3   OH265824   5.224   4.764  15.063  0.1540  0.3173  0.7454
14778TIP3    H165825   5.179   4.700  15.119  1.0878  1.6744  3.1974
14778TIP3    H265826   5.308   4.780  15.107  0.4687  2.3163 -0.4457
14779TIP3   OH265827   0.630   1.969  14.684 -0.1291  0.0038 -0.0669
14779TIP3    H165828   0.649   2.026  14.759  2.6768  2.2523 -2.2502
14779TIP3    H265829   0.557   2.012  14.640 -0.4630 -0.2088  0.2688
14780TIP3   OH265830   4.470   5.893   4.974  0.0817 -0.0518  0.8604
14780TIP3    H165831   4.423   5.810   4.962 -0.6725  0.4950 -0.0082
14780TIP3    H265832   4.436   5.928   5.057 -3.4886  1.8566 -1.1780
14781TIP3   OH265833   2.959   6.760   4.411 -0.3108  0.3243  0.0639
14781TIP3    H165834   2.894   6.788   4.475  1.1690  0.1404  1.7246
14781TIP3    H265835   2.979   6.670   4.436 -0.5531 -0.1573 -1.4120
14782TIP3   OH265836   4.931   6.298   1.492 -0.2829  0.1597 -0.4603
14782TIP3    H165837   4.882   6.338   1.564  0.7714  0.9476 -0.1546
14782TIP3    H265838   4.868   6.290   1.421 -0.7061  1.6986 -0.2800
14783TIP3   OH265839   3.716   5.223  13.966  0.1867 -0.0288  0.0893
14783TIP3    H165840   3.763   5.306  13.956  1.3667 -0.5109  1.3021
14783TIP3    H265841   3.631   5.249  14.002 -0.4615  0.8397 -1.9449
14784TIP3   OH265842   4.907   1.588   4.805  0.5710  0.0121  0.4517
14784TIP3    H165843   4.940   1.513   4.853  0.2012 -0.4698 -0.0330
14784TIP3    H265844   4.829   1.616   4.853  0.6687  0.0427  0.5916
14785TIP3   OH265845   0.422   2.737   2.421 -0.0396  0.1088  0.3446
14785TIP3    H165846   0.425   2.646   2.453 -2.8951 -0.1713  0.0874
14785TIP3    H265847   0.360   2.780   2.479  0.3831  1.6109 -0.2811
14786TIP3   OH265848   1.444   2.425   5.538  0.3631 -0.0642 -0.6861
14786TIP3    H165849   1.428   2.519   5.551  0.6263 -0.2794  1.5008
14786TIP3    H265850   1.538   2.418   5.527  0.9637 -0.3437  3.1549
14787TIP3   OH265851   1.975   6.719   2.886  0.2168  0.6948 -0.0819
14787TIP3    H165852   1.918   6.677   2.822  1.8086  0.5965 -1.4896
14787TIP3    H265853   1.942   6.808   2.893 -0.7565  0.3432 -0.0441
14788TIP3   OH265854   1.856   3.214  15.208 -0.2579  0.1188  0.1813
14788TIP3    H165855   1.808   3.153  15.265 -2.8932  0.8352 -1.1201
14788TIP3    H265856   1.845   3.299  15.251  0.0780  0.2672 -0.0251
14789TIP3   OH265857   1.840   1.560   5.238  0.0534 -0.6281 -0.0333
14789TIP3    H165858   1.883   1.503   5.302  2.2875  1.9968  1.0143
14789TIP3    H265859   1.874   1.648   5.257 -2.0328  0.8725 -2.4980
14790TIP3   OH265860   2.625   6.787  15.552  0.0599 -0.1297  0.0042
14790TIP3    H165861   2.655   6.696  15.547  0.0571 -0.1578  0.4248
14790TIP3    H265862   2.538   6.786  15.513  0.6735 -0.0110 -1.4193
14791TIP3   OH265863   0.967   6.275   2.966  0.2750 -0.1222  0.8229
14791TIP3    H165864   0.899   6.339   2.942 -1.8671 -1.8304  1.9998
14791TIP3    H265865   0.969   6.277   3.061 -1.0860 -2.8833  1.0233
14792TIP3   OH265866   3.067   1.765  11.367 -0.1096 -0.2754  0.3348
14792TIP3    H165867   3.098   1.855  11.364  0.6633 -0.5425 -0.8876
14792TIP3    H265868   2.973   1.771  11.380 -0.0002  0.6849  0.7212
14793TIP3   OH265869   3.736   0.456  11.224  0.2484  0.6760 -0.0692
14793TIP3    H165870   3.787   0.401  11.164  0.6684 -0.0252  0.9000
14793TIP3    H265871   3.689   0.516  11.167 -0.0025 -0.5019 -1.1554
14794TIP3   OH265872   2.346   5.994   2.460  0.3693 -0.4338 -0.2832
14794TIP3    H165873   2.298   5.912   2.456  1.8618 -1.4022  0.6679
14794TIP3    H265874   2.333   6.034   2.374 -0.2877 -1.7139 -0.7984
14795TIP3   OH265875   0.516   1.620   1.771 -0.0064 -0.4652 -0.1755
14795TIP3    H165876   0.486   1.711   1.771 -0.7650 -0.7078 -0.6231
14795TIP3    H265877   0.557   1.608   1.857  2.1133  0.9342 -0.9289
14796TIP3   OH265878   3.906   4.934   0.653  0.1269  0.2096  0.6123
14796TIP3    H165879   3.985   4.982   0.679  1.4897 -0.2848 -2.2110
14796TIP3    H265880   3.938   4.868   0.592 -2.4449 -0.3496 -0.2132
14797TIP3   OH265881   4.779   0.183   5.155  0.3114 -0.2572  0.1602
14797TIP3    H165882   4.686   0.174   5.135  0.6018 -0.6014 -1.1449
14797TIP3    H265883   4.822   0.184   5.069  1.5698 -0.8035  0.7536
14798TIP3   OH265884   5.211   0.535  12.457  0.4493 -0.4629 -0.3032
14798TIP3    H165885   5.140   0.476  12.431  0.8375 -0.6100 -1.0682
14798TIP3    H265886   5.213   0.603  12.390  1.3793 -0.7644 -0.6036
14799TIP3   OH265887   3.875   4.601   1.376  0.1412  0.1771 -0.5274
14799TIP3    H165888   3.945   4.638   1.321  0.4447  1.8929  0.9237
14799TIP3    H265889   3.819   4.676   1.397 -1.6411 -1.0008 -0.8903
14800TIP3   OH265890   3.365   5.037  15.231  0.6676 -0.6567  0.4775
14800TIP3    H165891   3.342   5.117  15.183 -1.8436 -0.1295  2.3408
14800TIP3    H265892   3.364   4.968  15.165  0.1535  0.4353 -0.6939
14801TIP3   OH265893   0.519   4.968   4.760  0.1388 -0.1451  0.1267
14801TIP3    H165894   0.477   5.035   4.814 -1.2592 -1.2459  0.4750
14801TIP3    H265895   0.545   5.014   4.680  0.5774  1.1167  0.9743
14802TIP3   OH265896   2.810   6.295  12.620  0.0773  0.4414 -0.0632
14802TIP3    H165897   2.782   6.204  12.613 -1.0148  0.7757 -0.1970
14802TIP3    H265898   2.730   6.346  12.604  0.3068  1.4041  1.6713
14803TIP3   OH265899   3.163   0.910   5.159  0.7851 -0.0850 -0.0089
14803TIP3    H165900   3.118   0.964   5.094  0.4437 -0.4748 -0.1031
14803TIP3    H265901   3.230   0.968   5.197 -1.2760  1.2699  1.8025
14804TIP3   OH265902   2.154   0.459  15.162  0.2869  0.3890 -0.6669
14804TIP3    H165903   2.063   0.431  15.162  0.1803  0.7273 -0.6628
14804TIP3    H265904   2.179   0.459  15.070  0.7298 -1.1134 -0.5613
14805TIP3   OH265905   1.308   0.082  12.461  0.4143  0.1867  0.5803
14805TIP3    H165906   1.250   0.009  12.439 -0.4839  0.4182  2.0283
14805TIP3    H265907   1.387   0.040  12.495 -0.1045 -0.1532  1.4206
14806TIP3   OH265908   5.914   5.345   3.529  0.3929 -0.2342 -0.3019
14806TIP3    H165909   5.981   5.413   3.525 -0.5389  0.6678 -2.5970
14806TIP3    H265910   5.840   5.386   3.574 -0.5102  0.7064 -2.4922
14807TIP3   OH265911   0.797   0.610  16.688 -0.0745 -0.4480 -0.2724
14807TIP3    H165912   0.885   0.573  16.693  0.0064 -0.6822 -2.5220
14807TIP3    H265913   0.810   0.697  16.650 -0.7399 -0.0267  0.4265
14808TIP3   OH265914   3.052   1.212  13.310  0.0593 -0.6787  0.1335
14808TIP3    H165915   2.966   1.235  13.275  0.9163  0.5925 -1.2702
14808TIP3    H265916   3.090   1.296  13.337  1.3082 -1.0554 -0.3848
14809TIP3   OH265917   2.919   0.935  12.450 -0.1781 -0.0820  0.4425
14809TIP3    H165918   2.995   0.909  12.502 -0.5189 -2.1115  0.0391
14809TIP3    H265919   2.884   0.852  12.417 -1.2393  0.9712 -1.2377
14810TIP3   OH265920   6.577   1.010  12.543  0.4860 -0.4009  0.2297
14810TIP3    H165921   6.651   1.068  12.566 -1.2147  1.8204  0.4752
14810TIP3    H265922   6.582   0.939  12.607  2.0907 -0.0308  0.5662
14811TIP3   OH265923   6.687   3.139  10.520  0.5369 -0.2556 -0.1248
14811TIP3    H165924   6.732   3.193  10.584 -2.2238  1.3162  0.6773
14811TIP3    H265925   6.734   3.056  10.520  3.3061  1.2083  0.6023
14812TIP3   OH265926   1.787   1.544   0.994 -0.5177 -1.2552  0.2987
14812TIP3    H165927   1.834   1.463   0.977  0.0867 -0.9734  0.5871
14812TIP3    H265928   1.818   1.572   1.081 -0.4390 -0.5320  0.0425
14813TIP3   OH265929   4.161   2.697   2.200  0.4106 -0.0333 -0.6656
14813TIP3    H165930   4.072   2.665   2.215  0.0814 -1.4622 -4.6500
14813TIP3    H265931   4.216   2.619   2.203  1.5406  0.7642  1.1794
14814TIP3   OH265932   1.859   5.275   3.073  0.0268  0.1354 -0.4487
14814TIP3    H165933   1.954   5.273   3.083 -0.0337 -1.1797  0.0617
14814TIP3    H265934   1.839   5.199   3.019 -0.6750  0.8952 -1.2962
14815TIP3   OH265935   6.457   5.697  13.712  0.4985 -0.6095  0.0613
14815TIP3    H165936   6.458   5.672  13.804 -0.1561 -1.1525 -0.0716
14815TIP3    H265937   6.407   5.628  13.668 -0.1766  0.2089 -0.5244
14816TIP3   OH265938   1.648   2.086  10.652  0.0847 -0.4353  0.9177
14816TIP3    H165939   1.582   2.041  10.600  0.5248 -2.2414  1.8116
14816TIP3    H265940   1.730   2.042  10.630  0.6937  0.5209  1.2075
14817TIP3   OH265941   5.544   0.687  13.575  0.1999 -1.2609 -0.3723
14817TIP3    H165942   5.547   0.761  13.635  0.1269 -0.8965 -0.8184
14817TIP3    H265943   5.454   0.687  13.542 -0.5375 -2.9671  1.3901
14818TIP3   OH265944   5.028   3.005   1.816  0.3203 -0.2387 -0.1597
14818TIP3    H165945   4.993   2.916   1.813 -0.8948  0.1709  0.9645
14818TIP3    H265946   5.100   3.005   1.752  0.1891 -1.9464 -0.3471
14819TIP3   OH265947   6.634   1.368   4.453 -0.7777 -0.5649 -0.7607
14819TIP3    H165948   6.551   1.319   4.453  0.5981 -3.0468 -0.3722
14819TIP3    H265949   6.669   1.356   4.541  0.2865 -0.0718 -1.1032
14820TIP3   OH265950   4.697   3.364  16.829  0.4282  0.1526  0.4298
14820TIP3    H165951   4.693   3.445  16.778  2.0139 -0.2866 -0.4598
14820TIP3    H265952   4.782   3.326  16.807  0.8337 -0.4742  2.8031
14821TIP3   OH265953   4.863   3.263  16.322  0.4106  0.0914  0.0150
14821TIP3    H165954   4.767   3.258  16.315  0.1689  2.3212  0.6931
14821TIP3    H265955   4.890   3.177  16.354 -1.4531 -0.3542  0.5048
14822TIP3   OH265956   5.688   3.587   1.934  0.3461  0.0049 -0.1164
14822TIP3    H165957   5.766   3.637   1.909  0.1724  0.5278  0.3695
14822TIP3    H265958   5.661   3.624   2.018  0.3821 -1.1101  0.4008
14823TIP3   OH265959   4.973   5.128  12.519  0.4693 -0.4122  0.0910
14823TIP3    H165960   5.068   5.121  12.510  0.3727 -0.5381 -0.9582
14823TIP3    H265961   4.958   5.130  12.614  1.5440  0.0429  0.2634
14824TIP3   OH265962   4.123   5.039  11.902  0.8103  0.3891 -0.1430
14824TIP3    H165963   4.148   5.113  11.957  0.6882  1.0645 -0.9956
14824TIP3    H265964   4.128   5.071  11.812  1.7256 -0.9094 -0.5957
14825TIP3   OH265965   5.626   2.803  17.041  0.2885 -0.0139 -0.0999
14825TIP3    H165966   5.635   2.860  17.118  0.1984  0.6092 -0.5412
14825TIP3    H265967   5.673   2.723  17.065  0.6021  0.3251  0.4546
14826TIP3   OH265968   2.812   1.496  14.089 -0.2339 -0.4105  0.1873
14826TIP3    H165969   2.882   1.511  14.026  0.1700  0.0007  0.7351
14826TIP3    H265970   2.800   1.580  14.133 -1.6950 -0.2153 -0.5176
14827TIP3   OH265971   2.757   0.525   1.768  0.6442 -0.1253  0.0614
14827TIP3    H165972   2.678   0.549   1.816 -0.2517 -1.2111 -0.8231
14827TIP3    H265973   2.740   0.437   1.735  2.6421 -0.8127  0.7143
14828TIP3   OH265974   3.992   3.543  16.452 -0.0924 -1.2233 -0.1384
14828TIP3    H165975   4.009   3.450  16.441  0.3563 -1.0616 -0.8723
14828TIP3    H265976   4.062   3.587  16.403 -0.1708 -0.4949  0.3705
14829TIP3   OH265977   3.600   3.886  15.280  0.1038 -0.0650 -0.1614
14829TIP3    H165978   3.602   3.832  15.201 -0.9019 -0.7220  0.2411
14829TIP3    H265979   3.637   3.830  15.349 -0.2534  0.0257  0.1060
14830TIP3   OH265980   2.034   2.885  14.575  0.2376  0.2494  0.0545
14830TIP3    H165981   2.093   2.952  14.543 -1.0014  0.4511 -2.0055
14830TIP3    H265982   1.946   2.920  14.557 -0.6567  0.5043  4.0632
14831TIP3   OH265983   1.035   4.995   6.017 -0.4098  0.1086  0.0637
14831TIP3    H165984   0.989   5.040   5.946 -1.2317 -0.3636  0.2910
14831TIP3    H265985   0.975   4.999   6.091  0.4082  0.5236  0.7279
14832TIP3   OH265986   5.413   0.230  13.759 -0.1899  0.8475  0.6557
14832TIP3    H165987   5.395   0.311  13.807 -1.4710  0.1513  1.3977
14832TIP3    H265988   5.349   0.167  13.793  2.4435 -1.2908  2.0284
14833TIP3   OH265989   3.370   0.082   4.271 -0.2291  0.3782 -0.0172
14833TIP3    H165990   3.387   0.025   4.346  0.1478  0.0779 -0.3253
14833TIP3    H265991   3.406   0.035   4.196 -0.5596  0.6959 -0.3831
14834TIP3   OH265992   0.441   1.007   1.925  0.1900  0.1180 -0.3847
14834TIP3    H165993   0.464   1.063   1.999 -1.2420  0.9239 -0.5086
14834TIP3    H265994   0.411   0.925   1.964  1.6432 -0.3384 -0.1776
14835TIP3   OH265995   0.147   0.918  13.441 -0.3129  0.3961  0.1012
14835TIP3    H165996   0.191   0.945  13.522 -0.1160 -0.6055  0.3376
14835TIP3    H265997   0.076   0.861  13.469  0.4243 -0.8517 -0.4641
14836TIP3   OH265998   5.882   0.891  11.210 -0.6359  0.9642  0.1038
14836TIP3    H165999   5.800   0.861  11.171  0.3595 -1.4462 -0.3235
14836TIP3    H266000   5.892   0.836  11.288  0.5772  1.2183  0.1420
14837TIP3   OH266001   0.025   4.153  14.639 -0.1087 -0.5074  0.2862
14837TIP3    H166002   0.027   4.095  14.715 -2.1505 -2.2529 -0.8889
14837TIP3    H266003  -0.059   4.199  14.646  0.0052 -0.1470 -0.5331
14838TIP3   OH266004   5.988   5.160   6.094  0.0244  0.1805  0.3622
14838TIP3    H166005   5.970   5.238   6.042  1.5586  0.4173  0.1452
14838TIP3    H266006   6.084   5.157   6.101 -0.1144  0.2979  3.4176
14839TIP3   OH266007   2.701   1.530   5.952 -0.4696  0.3466 -1.1937
14839TIP3    H166008   2.692   1.434   5.950  1.9630  0.0522 -3.0216
14839TIP3    H266009   2.701   1.552   6.045  1.1441 -1.7636 -0.6038
14840TIP3   OH266010   0.138   6.241   5.110  0.4706 -0.3065  0.2982
14840TIP3    H166011   0.070   6.176   5.129  0.3352  0.1413  1.4462
14840TIP3    H266012   0.171   6.266   5.196 -0.9192  2.6762  0.1114
14841TIP3   OH266013   4.899   3.977   5.065  0.4315  0.0644 -0.2147
14841TIP3    H166014   4.808   3.995   5.045  0.2528  0.7976  1.1543
14841TIP3    H266015   4.945   3.986   4.981 -0.9820 -2.1636 -1.3206
14842TIP3   OH266016   1.231   5.312   0.716 -0.6284  0.7089  0.3377
14842TIP3    H166017   1.311   5.283   0.671 -0.5321 -1.5681  1.7978
14842TIP3    H266018   1.166   5.321   0.647  0.5533  1.3628 -0.7235
14843TIP3   OH266019   5.015   3.969   3.194 -0.1367 -0.0137 -0.3584
14843TIP3    H166020   4.998   3.919   3.274  1.6922  0.2874  0.2542
14843TIP3    H266021   5.110   3.979   3.192 -0.1687  0.2216 -2.4401
14844TIP3   OH266022   0.080   5.988  14.393 -0.0449  0.2492  0.2957
14844TIP3    H166023   0.127   5.905  14.402  1.1925  0.9400  0.4877
14844TIP3    H266024   0.133   6.039  14.331 -0.0953  1.3599  1.1303
14845TIP3   OH266025   3.622   0.649  11.566 -0.3611  0.1592  0.4525
14845TIP3    H166026   3.561   0.656  11.640 -1.4121  1.1326 -0.4661
14845TIP3    H266027   3.600   0.565  11.525 -1.4070  0.6767 -0.1039
14846TIP3   OH266028   1.554   0.188  16.718  0.1626  0.1253 -0.0711
14846TIP3    H166029   1.478   0.196  16.776  1.1396 -1.8203  1.6088
14846TIP3    H266030   1.617   0.251  16.751 -0.2383  0.8890 -0.7197
14847TIP3   OH266031   0.532   6.473  13.627 -0.1920  0.2086  0.0561
14847TIP3    H166032   0.559   6.382  13.631  0.1965  0.3557  2.0960
14847TIP3    H266033   0.607   6.522  13.661 -0.5492  1.2442 -0.6001
14848TIP3   OH266034   3.791   2.689  14.878 -0.5671 -0.5171 -0.0226
14848TIP3    H166035   3.716   2.744  14.853  0.6430  1.9610  1.4338
14848TIP3    H266036   3.778   2.672  14.971  1.0807  0.8002  0.5064
14849TIP3   OH266037   6.389   5.395  14.501 -0.4184  0.2538 -0.3491
14849TIP3    H166038   6.356   5.382  14.590  0.6232  0.0933  0.0192
14849TIP3    H266039   6.388   5.308  14.461  0.3950  0.0968 -0.0393
14850TIP3   OH266040   3.144   3.885   2.923  0.0998 -0.1344  0.8707
14850TIP3    H166041   3.226   3.840   2.902 -0.2896 -0.6735  0.4615
14850TIP3    H266042   3.080   3.814   2.930 -0.7411  0.4264 -0.7369
14851TIP3   OH266043   4.277   4.932  16.441 -0.5493  0.1686 -0.3781
14851TIP3    H166044   4.341   4.992  16.404 -1.4286 -0.2693 -2.7338
14851TIP3    H266045   4.250   4.876  16.369 -4.6270  1.2221  0.0333
14852TIP3   OH266046   4.845   4.501  16.891  0.3210 -0.0639  0.3660
14852TIP3    H166047   4.936   4.508  16.862  0.4139  0.0372  0.6756
14852TIP3    H266048   4.819   4.412  16.870  0.0202  0.3369 -1.0852
14853TIP3   OH266049   3.432   0.856  12.100  0.2392  0.1699 -0.2575
14853TIP3    H166050   3.351   0.843  12.150  0.3468 -1.4093 -0.4569
14853TIP3    H266051   3.433   0.950  12.081 -1.9649  0.1108 -0.9786
14854TIP3   OH266052   4.313   6.712  11.236 -0.1895 -0.1468  0.5271
14854TIP3    H166053   4.353   6.797  11.256 -0.1294 -0.1131  0.2623
14854TIP3    H266054   4.338   6.694  11.146 -1.1742  0.1035  0.1923
14855TIP3   OH266055   3.183   6.428  14.043 -0.1951  0.0033  0.1725
14855TIP3    H166056   3.173   6.406  13.950 -0.0302  2.5195 -0.5154
14855TIP3    H266057   3.218   6.348  14.082  1.7639 -0.5188 -2.3327
14856TIP3   OH266058   3.730   3.489  10.818  0.0748 -1.0026  0.3125
14856TIP3    H166059   3.780   3.554  10.767  1.0711 -1.9223  0.0586
14856TIP3    H266060   3.639   3.517  10.811  0.5211  0.6064  0.5843
14857TIP3   OH266061   3.217   5.880  14.103  0.3765 -0.7789  0.0826
14857TIP3    H166062   3.127   5.913  14.108 -0.2418 -2.4003  0.3792
14857TIP3    H266063   3.271   5.953  14.133 -0.8207  0.2780 -0.2372
14858TIP3   OH266064   5.660   3.927   4.611 -0.0288 -0.1292  0.0125
14858TIP3    H166065   5.745   3.956   4.578 -0.8320  0.8261 -1.3131
14858TIP3    H266066   5.646   3.842   4.568 -0.5146  0.5373 -1.1962
14859TIP3   OH266067   1.181   3.131   3.697 -0.6441  0.2021  0.2835
14859TIP3    H166068   1.222   3.214   3.674 -0.6127 -0.2000 -1.2353
14859TIP3    H266069   1.125   3.151   3.772 -1.7484  1.9142 -0.9454
14860TIP3   OH266070   5.533   1.035  13.030  0.2921  0.4117  0.3063
14860TIP3    H166071   5.500   0.951  12.997 -1.3660  0.5625  1.4726
14860TIP3    H266072   5.626   1.019  13.046  0.1648 -0.9762 -0.2037
14861TIP3   OH266073   3.518   2.213  12.006  0.4245  0.0082 -0.5857
14861TIP3    H166074   3.577   2.159  12.059  1.5116  1.2509 -0.4536
14861TIP3    H266075   3.574   2.286  11.977 -1.2539  1.7195  0.2669
14862TIP3   OH266076   1.516   0.857  11.125 -0.3422 -0.2393  0.0224
14862TIP3    H166077   1.505   0.937  11.176 -2.5065 -1.2535  1.2614
14862TIP3    H266078   1.563   0.885  11.046  0.9387  1.8082  1.4156
14863TIP3   OH266079   2.693   2.734  14.106 -0.2647  0.0950 -0.1780
14863TIP3    H166080   2.611   2.738  14.155 -0.8841  1.9225 -1.2549
14863TIP3    H266081   2.666   2.737  14.014  1.0030  0.9248 -0.5460
14864TIP3   OH266082   1.319   2.578   4.694 -0.0204 -0.3889 -0.6532
14864TIP3    H166083   1.407   2.565   4.728  0.1434  0.9575 -0.5174
14864TIP3    H266084   1.277   2.637   4.756 -0.7763 -0.4315 -1.1077
14865TIP3   OH266085   4.585   4.090   5.324  0.2851 -0.3461  0.6835
14865TIP3    H166086   4.629   4.157   5.375 -1.6732  1.2602  0.3845
14865TIP3    H266087   4.585   4.012   5.381  1.1104  0.3964  1.7273
14866TIP3   OH266088   4.578   0.372   4.486  0.0839 -0.0342 -0.0524
14866TIP3    H166089   4.589   0.428   4.409  2.4223 -1.1947 -0.6414
14866TIP3    H266090   4.667   0.353   4.515 -0.6701 -2.1837  1.0523
14867TIP3   OH266091   6.414   5.871   5.404 -0.2280  0.2411 -0.4349
14867TIP3    H166092   6.371   5.848   5.486  0.8867  0.3084  0.1893
14867TIP3    H266093   6.393   5.963   5.391  1.0449  0.7334  0.7357
14868TIP3   OH266094   6.081   4.255   4.506  0.2838  0.4293 -0.2109
14868TIP3    H166095   6.016   4.272   4.437  1.6714  0.3458 -1.5847
14868TIP3    H266096   6.052   4.309   4.580 -0.6391  1.3590 -1.2151
14869TIP3   OH266097   3.987   0.030   2.980  0.1758  0.1905  0.1436
14869TIP3    H166098   3.901   0.022   2.940 -0.6502  1.5646  1.5457
14869TIP3    H266099   4.027   0.106   2.938  1.5673 -1.5531 -1.8944
14870TIP3   OH266100   2.895   0.315  16.589 -0.0874  0.1190  0.3719
14870TIP3    H166101   2.826   0.278  16.534 -0.9729 -0.3102  1.7189
14870TIP3    H266102   2.848   0.355  16.662  1.1033 -1.2694  1.9810
14871TIP3   OH266103   5.238   4.028  10.878  0.4019  0.2792 -0.2807
14871TIP3    H166104   5.193   3.976  10.812  1.0208  0.2215 -0.6717
14871TIP3    H266105   5.170   4.052  10.940 -0.0933 -0.1066 -0.6603
14872TIP3   OH266106   6.657   6.614   5.646 -0.8368 -1.2052 -0.8262
14872TIP3    H166107   6.592   6.683   5.634 -1.3937 -1.7169 -0.8766
14872TIP3    H266108   6.690   6.596   5.558  0.7302  0.3086 -0.5774
14873TIP3   OH266109   6.256   3.387  12.553  0.0537 -0.4887  0.2299
14873TIP3    H166110   6.338   3.371  12.600 -0.8023 -1.2313  1.5610
14873TIP3    H266111   6.189   3.381  12.621 -1.2226 -1.2599 -1.0495
14874TIP3   OH266112   2.713   3.391   4.680  0.3429 -0.2535 -0.5508
14874TIP3    H166113   2.619   3.388   4.660  0.5247 -0.1316 -1.4401
14874TIP3    H266114   2.748   3.310   4.644 -0.0557 -2.3697  3.3290
14875TIP3   OH266115   0.822   0.842   3.107 -0.2164  0.0758  0.2925
14875TIP3    H166116   0.761   0.878   3.172 -0.7052 -0.7867  0.3365
14875TIP3    H266117   0.904   0.829   3.155  0.7207  3.1817 -0.2592
14876TIP3   OH266118   6.579   5.753  14.259 -0.5847  0.0864 -0.0706
14876TIP3    H166119   6.496   5.797  14.280  0.0265  1.3687 -0.2900
14876TIP3    H266120   6.614   5.801  14.184  0.0720 -0.8305 -0.3685
14877TIP3   OH266121   1.392   5.492  13.190  0.1001  0.6782  0.3092
14877TIP3    H166122   1.405   5.509  13.283 -2.4599 -0.1842  0.9207
14877TIP3    H266123   1.344   5.569  13.158 -0.1076  0.4241  0.0005
14878TIP3   OH266124   1.647   1.191   3.920 -0.1837  0.6537 -0.7034
14878TIP3    H166125   1.694   1.117   3.881  0.4679  0.5200  0.3026
14878TIP3    H266126   1.679   1.195   4.010 -0.7248  1.7355 -0.5434
14879TIP3   OH266127   5.263   1.190   1.262  0.3686 -0.3650  0.3380
14879TIP3    H166128   5.238   1.248   1.191  0.9609 -0.0247  0.3955
14879TIP3    H266129   5.355   1.171   1.246  0.3139 -0.8764  0.6065
14880TIP3   OH266130   3.634   0.376  11.486  0.1568  0.6701  0.0679
14880TIP3    H166131   3.555   0.377  11.432  0.1936  0.4348  0.0071
14880TIP3    H266132   3.703   0.409  11.429  0.2934 -0.0438 -0.1873
14881TIP3   OH266133   3.210   6.276  15.374 -0.2491  0.0249 -0.3925
14881TIP3    H166134   3.124   6.288  15.413  0.0591 -0.7087  0.5288
14881TIP3    H266135   3.196   6.215  15.302 -0.4746 -0.2262 -0.1375
14882TIP3   OH266136   1.491   1.813   3.284 -0.4069 -0.1933  0.0180
14882TIP3    H166137   1.503   1.884   3.221 -0.1609 -0.4862 -0.2633
14882TIP3    H266138   1.468   1.737   3.231 -0.9738 -0.2571  0.3425
14883TIP3   OH266139   3.073   3.333  12.179  0.1739  0.6920 -0.6817
14883TIP3    H166140   3.029   3.316  12.262  1.5713 -2.2352 -0.4135
14883TIP3    H266141   3.003   3.357  12.119 -1.3387 -0.4494  0.5470
14884TIP3   OH266142   4.604   2.576   0.611 -0.9286  0.4408  0.1410
14884TIP3    H166143   4.574   2.519   0.682 -1.0316  0.4387  0.0954
14884TIP3    H266144   4.682   2.618   0.646  0.7112 -1.6962 -0.7534
14885TIP3   OH266145   4.873   2.362   4.144  0.6108 -0.4081 -0.0996
14885TIP3    H166146   4.855   2.270   4.123  0.1586 -1.0702  2.6676
14885TIP3    H266147   4.943   2.358   4.209 -0.4001  1.0520  1.1692
14886TIP3   OH266148   0.539   4.988   5.994  0.0903  0.6378 -0.0440
14886TIP3    H166149   0.483   5.036   5.932  1.1666  1.2257 -0.5803
14886TIP3    H266150   0.501   4.900   5.995  0.7121  0.2671 -2.4744
14887TIP3   OH266151   0.206   1.590   3.089 -0.4609 -0.4570  0.2036
14887TIP3    H166152   0.199   1.534   3.166  2.1638 -1.9099 -0.4487
14887TIP3    H266153   0.275   1.653   3.111  0.8269 -1.3370 -1.1107
14888TIP3   OH266154   5.783   6.214   3.341  0.3420 -0.0655  0.0991
14888TIP3    H166155   5.697   6.238   3.307  0.7211  0.6364 -0.3917
14888TIP3    H266156   5.765   6.147   3.407 -0.3942 -1.8675 -1.8061
14889TIP3   OH266157   2.350   3.670  13.560  0.3528  0.0056 -0.5364
14889TIP3    H166158   2.286   3.698  13.625  0.5049 -0.8336 -0.0091
14889TIP3    H266159   2.355   3.575  13.569  0.5072 -0.1146 -1.6623
14890TIP3   OH266160   0.130   1.792   0.396  0.2355 -0.2135  0.3921
14890TIP3    H166161   0.054   1.817   0.448 -2.0567 -1.0041 -2.2866
14890TIP3    H266162   0.184   1.870   0.392 -0.7829  0.5974  1.8421
14891TIP3   OH266163   0.690   4.352   1.053 -0.1505  0.2205  0.5068
14891TIP3    H166164   0.726   4.280   1.106  1.4554  1.9923  1.9858
14891TIP3    H266165   0.597   4.354   1.075 -0.0221 -0.7763  1.2182
14892TIP3   OH266166   0.917   5.192   0.300  0.5974  0.8173  0.7510
14892TIP3    H166167   0.946   5.167   0.212  2.4713 -0.6044  1.6987
14892TIP3    H266168   0.972   5.140   0.359 -3.4784 -1.6749  2.8100
14893TIP3   OH266169   6.151   2.624   5.135 -0.2186 -0.3502 -0.3345
14893TIP3    H166170   6.094   2.699   5.149 -0.7426 -1.1490  2.6051
14893TIP3    H266171   6.212   2.652   5.067 -0.3905  2.7141  0.6226
14894TIP3   OH266172   5.952   4.964   5.482  0.5278  0.5595  0.3091
14894TIP3    H166173   5.926   4.928   5.567  0.4658  2.0728  0.9644
14894TIP3    H266174   5.996   4.892   5.438 -0.3867 -0.5719  1.1894
14895TIP3   OH266175   6.040   5.094   0.640 -0.6510  0.9998  0.0158
14895TIP3    H166176   6.081   5.015   0.675 -1.5864  1.4087  2.1732
14895TIP3    H266177   6.099   5.122   0.569  1.3307  0.0889  1.2222
14896TIP3   OH266178   4.861   3.840  10.595 -0.3453 -0.0016  0.7102
14896TIP3    H166179   4.902   3.877  10.517 -1.2546  0.5376  0.4765
14896TIP3    H266180   4.808   3.911  10.631 -1.1140 -0.6919  0.9744
14897TIP3   OH266181   4.095   6.292   1.450 -0.3772 -0.5037  0.2105
14897TIP3    H166182   4.088   6.271   1.544 -1.4948  0.9995  0.5055
14897TIP3    H266183   4.100   6.206   1.407 -0.9569 -1.2613  1.5680
14898TIP3   OH266184   3.394   0.679   2.159  0.0310 -0.8949  0.5482
14898TIP3    H166185   3.342   0.742   2.209  1.3179 -0.2690  1.1690
14898TIP3    H266186   3.331   0.614   2.128 -1.2961  0.5453  0.1266
14899TIP3   OH266187   3.789   5.927  11.863  0.5489 -0.4281 -0.2539
14899TIP3    H166188   3.742   5.932  11.779  0.1243  1.2713  0.0520
14899TIP3    H266189   3.743   5.989  11.920  0.6187 -1.7896  1.3729
14900TIP3   OH266190   5.053   6.469  12.864 -0.3306 -0.6187  0.0222
14900TIP3    H166191   5.037   6.466  12.770 -0.0437  0.1419 -0.0600
14900TIP3    H266192   5.085   6.382  12.886 -0.0152 -0.6803 -0.6572
14901TIP3   OH266193   1.330   5.387   1.915  0.0873 -0.1948  0.4465
14901TIP3    H166194   1.309   5.394   1.822  0.6222 -0.7750  0.2710
14901TIP3    H266195   1.360   5.297   1.926  2.1094  0.4576  0.7345
14902TIP3   OH266196   5.751   5.654   1.951 -0.2719 -0.1102 -0.6132
14902TIP3    H166197   5.772   5.585   1.888  1.6026 -2.0056  1.8812
14902TIP3    H266198   5.670   5.625   1.992  0.0157 -0.3401 -0.2074
14903TIP3   OH266199   3.470   0.906   0.507 -0.1929  0.1357 -0.1009
14903TIP3    H166200   3.565   0.898   0.507 -0.1721 -0.1908 -2.5208
14903TIP3    H266201   3.439   0.818   0.532  0.0854  0.5584  1.9037
14904TIP3   OH266202   0.302   3.285  14.990 -0.2261 -0.2148 -0.6390
14904TIP3    H166203   0.396   3.280  15.004  0.0747  2.1386 -1.3115
14904TIP3    H266204   0.265   3.297  15.078  0.3791  1.3476 -0.5698
14905TIP3   OH266205   1.558   1.042   2.703 -0.4241  0.0788  0.0581
14905TIP3    H166206   1.529   0.956   2.673 -1.0562 -0.3817  1.8508
14905TIP3    H266207   1.596   1.025   2.790  1.2058  1.3403 -0.3606
14906TIP3   OH266208   6.517   3.478  16.063  0.0436 -0.0986 -0.2316
14906TIP3    H166209   6.496   3.416  15.993  0.8304  0.9337 -1.4186
14906TIP3    H266210   6.535   3.560  16.017  1.1280  0.4658  1.1442
14907TIP3   OH266211   2.176   0.093   4.581  0.7914 -0.4435 -0.2759
14907TIP3    H166212   2.101   0.131   4.627  0.8461 -1.3611  0.6056
14907TIP3    H266213   2.145   0.082   4.491 -0.2233 -0.9719  0.1102
14908TIP3   OH266214   4.840   4.693   0.525 -0.0059  0.1554 -0.3243
14908TIP3    H166215   4.932   4.717   0.540 -0.3545  0.7939  0.9189
14908TIP3    H266216   4.808   4.758   0.462 -0.0074  0.8926  0.4170
14909TIP3   OH266217   5.374   4.889  15.279 -0.2515 -0.2956 -0.0479
14909TIP3    H166218   5.459   4.923  15.308  0.9925 -2.6743 -0.6278
14909TIP3    H266219   5.337   4.849  15.357  0.0526 -0.9292 -0.2253
14910TIP3   OH266220   5.389   5.334   4.919 -0.3231  0.7542  0.5757
14910TIP3    H166221   5.407   5.407   4.978  1.0310  0.6683  0.3050
14910TIP3    H266222   5.475   5.301   4.895 -0.8895 -0.1902 -0.2380
14911TIP3   OH266223   3.559   0.852  16.021  0.1776 -0.4265 -0.5326
14911TIP3    H166224   3.629   0.797  16.055  0.1051 -1.0837 -1.4120
14911TIP3    H266225   3.539   0.815  15.935 -3.2617 -2.1427  0.8263
14912TIP3   OH266226   1.974   0.499   0.883  0.2918 -0.2620 -0.0446
14912TIP3    H166227   1.883   0.476   0.867  0.6655  0.1540 -3.5321
14912TIP3    H266228   2.017   0.417   0.905 -0.8020 -0.5273  1.2057
14913TIP3   OH266229   2.354   4.319  16.359  0.2215  0.2334  0.6046
14913TIP3    H166230   2.448   4.333  16.346 -0.2454  1.9663 -1.2905
14913TIP3    H266231   2.337   4.352  16.447  1.8263 -2.8166  2.2136
14914TIP3   OH266232   3.379   2.618   0.626  0.2607  0.2230 -0.1719
14914TIP3    H166233   3.463   2.612   0.671  0.4571 -1.0469 -0.6574
14914TIP3    H266234   3.346   2.528   0.627 -1.1240  0.7133  0.0697
14915TIP3   OH266235   1.214   2.417  16.888 -0.0818 -0.3339 -0.1858
14915TIP3    H166236   1.255   2.431  16.974 -0.1697 -0.8848 -0.0505
14915TIP3    H266237   1.277   2.455  16.826 -0.1453  0.3130  0.1337
14916TIP3   OH266238   1.315   0.032   1.646  0.0171 -0.3228  0.0055
14916TIP3    H166239   1.301   0.104   1.707 -3.0547 -0.6505 -0.1764
14916TIP3    H266240   1.407   0.009   1.658  0.3932  1.8000  2.0415
14917TIP3   OH266241   3.857   0.475  16.832  0.7107 -0.0091 -0.5403
14917TIP3    H166242   3.940   0.475  16.784  0.5949  1.5066 -0.7799
14917TIP3    H266243   3.791   0.496  16.766  0.7700  4.2309  0.5006
14918TIP3   OH266244   1.290   5.023  11.988 -0.0686 -0.2203 -0.1503
14918TIP3    H166245   1.268   4.992  11.900 -0.8363  1.5527 -0.6284
14918TIP3    H266246   1.321   5.113  11.975 -0.4780  0.1816  1.4092
14919TIP3   OH266247   4.708   4.075  12.216  0.0965  0.5856 -0.0259
14919TIP3    H166248   4.675   4.048  12.302 -0.4338 -0.7314 -0.6026
14919TIP3    H266249   4.702   3.995  12.163  1.5193  1.0739 -0.9641
14920TIP3   OH266250   6.295   4.158   5.565 -0.0172  0.3776 -0.0782
14920TIP3    H166251   6.355   4.157   5.640 -0.1914 -0.3030  0.0565
14920TIP3    H266252   6.244   4.078   5.574 -0.6089  0.7059 -0.4739
14921TIP3   OH266253   2.341   3.235   5.685 -0.3760  0.1681 -0.8258
14921TIP3    H166254   2.407   3.270   5.745 -1.4132 -0.0391  0.4926
14921TIP3    H266255   2.385   3.162   5.641  0.3802  0.2452 -0.2252
14922TIP3   OH266256   4.380   0.179  14.404  0.2947  0.4079 -0.2436
14922TIP3    H166257   4.321   0.232  14.456 -1.0642 -0.8165 -0.4707
14922TIP3    H266258   4.346   0.090  14.411  0.5006  0.0746 -2.5730
14923TIP3   OH266259   4.145   1.804   5.768 -0.8009  0.7859  0.3783
14923TIP3    H166260   4.079   1.857   5.723  0.1326  0.8351 -0.9766
14923TIP3    H266261   4.168   1.856   5.845 -1.9385  1.0101  0.5896
14924TIP3   OH266262   5.160   2.017  12.392  0.2011 -0.0705  0.1617
14924TIP3    H166263   5.211   1.963  12.331 -1.5022 -0.5053 -0.9480
14924TIP3    H266264   5.174   1.976  12.478  1.8406 -0.0429 -0.0610
14925TIP3   OH266265   3.499   2.208  11.536 -0.2537  0.7570  0.1263
14925TIP3    H166266   3.478   2.233  11.445  1.6211 -0.3886 -0.6826
14925TIP3    H266267   3.550   2.128  11.527  1.8356  1.7690  2.0503
14926TIP3   OH266268   3.475   3.266  15.173  0.4013 -0.1281 -0.0395
14926TIP3    H166269   3.446   3.328  15.107  0.2981  0.0980  0.2155
14926TIP3    H266270   3.415   3.192  15.164  0.8841 -0.4510 -0.7336
14927TIP3   OH266271   3.658   5.271   4.816 -0.1107 -0.0440  0.3385
14927TIP3    H166272   3.741   5.318   4.829 -0.4321  1.7670 -3.1893
14927TIP3    H266273   3.683   5.179   4.818  2.3899  0.4324 -2.1344
14928TIP3   OH266274   4.030   1.547  13.365  0.0727  0.0802 -0.1382
14928TIP3    H166275   4.033   1.542  13.270 -1.3667  1.0392 -0.2695
14928TIP3    H266276   4.031   1.456  13.394 -0.3495 -0.2473 -1.1228
14929TIP3   OH266277   3.643   5.023  11.657 -0.0097 -0.2060  0.0759
14929TIP3    H166278   3.709   5.004  11.724  1.1326  2.4241 -0.1761
14929TIP3    H266279   3.563   5.037  11.706  0.3214 -0.4129  0.6921
14930TIP3   OH266280   0.634   0.312  14.958  0.1853  0.1813 -0.3060
14930TIP3    H166281   0.657   0.237  15.012  0.1317  0.3803 -0.0070
14930TIP3    H266282   0.569   0.278  14.896  1.1552 -0.3405 -1.0510
14931TIP3   OH266283   0.765   3.974   2.359 -0.0293 -0.1337  0.4818
14931TIP3    H166284   0.727   3.944   2.441  0.3879 -0.1320  0.6786
14931TIP3    H266285   0.858   3.949   2.364  0.2600  0.8964  0.5197
14932TIP3   OH266286   1.955   0.080  16.736 -0.5700  0.1443 -0.2029
14932TIP3    H166287   1.893   0.079  16.662  1.5332 -3.6097 -2.2322
14932TIP3    H266288   1.919   0.015  16.797  0.0269 -0.1999 -0.2098
14933TIP3   OH266289   0.272   0.756   5.774 -0.1610 -0.0875  0.0859
14933TIP3    H166290   0.306   0.681   5.823 -1.2824  0.4391  1.7616
14933TIP3    H266291   0.178   0.755   5.790 -0.4783  0.5331 -1.5380
14934TIP3   OH266292   0.630   6.133   3.725  0.0212 -0.0057  0.4232
14934TIP3    H166293   0.576   6.211   3.719 -0.8835 -0.6823 -0.6646
14934TIP3    H266294   0.720   6.165   3.724 -0.3424  1.0762  1.1862
14935TIP3   OH266295   1.637   2.473  13.800  0.2881 -0.7535  0.2444
14935TIP3    H166296   1.653   2.533  13.873  2.2208  0.9589 -1.4463
14935TIP3    H266297   1.545   2.488  13.777  0.5635  1.1914  0.2429
14936TIP3   OH266298   3.932   0.857   1.939 -0.3343 -0.0682 -0.0770
14936TIP3    H166299   3.876   0.936   1.938  0.0528  0.2143  0.1907
14936TIP3    H266300   3.887   0.795   1.882  0.6019  1.1853 -2.2971
14937TIP3   OH266301   4.189   5.710   6.291 -0.2585  0.3181  0.5822
14937TIP3    H166302   4.194   5.704   6.386 -1.2291  0.6894  0.6647
14937TIP3    H266303   4.280   5.725   6.263 -0.1762  1.8530  1.5676
14938TIP3   OH266304   0.005   5.303   1.804  0.2010 -0.7387  0.5099
14938TIP3    H166305   0.034   5.259   1.724  1.2075 -1.4814  1.2558
14938TIP3    H266306   0.086   5.335   1.844 -0.3172 -0.1682  1.1179
14939TIP3   OH266307   5.821   3.721   3.583  0.0816  0.0657 -0.1708
14939TIP3    H166308   5.740   3.687   3.619 -0.4361  0.9420 -0.4962
14939TIP3    H266309   5.885   3.711   3.654 -0.4459 -0.0652  0.2929
14940TIP3   OH266310   0.276   3.694  13.234  0.3495  0.1322  0.3287
14940TIP3    H166311   0.228   3.612  13.243  0.3983  0.1314  0.5989
14940TIP3    H266312   0.288   3.705  13.140 -1.2115  0.7382  0.1836
14941TIP3   OH266313   1.884   0.769  15.726  0.9103  0.3475  0.7695
14941TIP3    H166314   1.978   0.762  15.705  0.6844 -1.9635  0.2788
14941TIP3    H266315   1.867   0.695  15.784 -0.9233 -0.1776 -0.3698
14942TIP3   OH266316   3.149   0.274   3.536  0.6767 -0.0607  0.6063
14942TIP3    H166317   3.111   0.361   3.523 -0.9827 -0.8184  0.2004
14942TIP3    H266318   3.236   0.280   3.496  0.4506  1.2995  0.2716
14943TIP3   OH266319   2.904   3.846   1.017 -0.2152 -0.0636 -0.1935
14943TIP3    H166320   2.939   3.759   1.001  0.4277  0.0671  0.4572
14943TIP3    H266321   2.836   3.833   1.083 -2.1280 -0.4524 -2.1317
14944TIP3   OH266322   2.811   4.518  15.464  0.4190 -0.0703  0.2934
14944TIP3    H166323   2.820   4.595  15.408 -1.1482 -1.2683 -1.8056
14944TIP3    H266324   2.822   4.550  15.553 -0.0549  2.5399 -0.5150
14945TIP3   OH266325   5.163   5.271  13.549  0.5855 -0.0718  0.1964
14945TIP3    H166326   5.141   5.355  13.590  0.6573  0.6278 -1.1304
14945TIP3    H266327   5.079   5.226  13.540  0.4911  0.0347  0.5291
14946TIP3   OH266328   5.708   4.532   5.492  0.6090 -0.4922  0.5009
14946TIP3    H166329   5.632   4.482   5.461  0.0403  0.3373  0.5101
14946TIP3    H266330   5.676   4.622   5.499  1.8644  0.0503 -0.4198
14947TIP3   OH266331   0.293   2.192   5.946 -0.2361  0.1964  0.0838
14947TIP3    H166332   0.363   2.153   5.892 -2.5869 -2.1822 -1.5025
14947TIP3    H266333   0.295   2.142   6.027 -1.9323 -2.0955 -1.1634
14948TIP3   OH266334   2.752   4.541  14.568  0.4358 -0.4696 -0.0916
14948TIP3    H166335   2.817   4.526  14.499  0.7192  1.5010 -0.3068
14948TIP3    H266336   2.701   4.615  14.537 -0.7118 -0.7880  0.9542
14949TIP3   OH266337   1.684   0.857  13.661  0.1393  0.2274 -0.2925
14949TIP3    H166338   1.660   0.779  13.711  0.3951  0.9587  0.9948
14949TIP3    H266339   1.614   0.920  13.679  0.3328  0.5683 -0.6985
14950TIP3   OH266340   0.154   4.201  11.528  0.3701 -0.3106 -0.1052
14950TIP3    H166341   0.233   4.236  11.569  0.6460  0.4399 -1.2459
14950TIP3    H266342   0.148   4.246  11.444 -0.8149 -0.9744 -0.4016
14951TIP3   OH266343   4.565   5.654   0.273  0.0317 -0.3436  0.4064
14951TIP3    H166344   4.592   5.618   0.358  0.8161  0.4789  0.5204
14951TIP3    H266345   4.584   5.747   0.279 -0.7494 -0.1240 -0.3585
14952TIP3   OH266346   2.149   6.675   6.080  0.3891 -0.5338  0.5247
14952TIP3    H166347   2.154   6.617   6.156  1.2744 -1.9260 -0.5203
14952TIP3    H266348   2.064   6.656   6.040  1.3892 -2.5506 -0.8189
14953TIP3   OH266349   6.623   2.035  11.548  0.2670  0.3713 -0.3153
14953TIP3    H166350   6.558   1.965  11.542  1.3721 -0.6329 -1.1281
14953TIP3    H266351   6.571   2.115  11.562 -0.9561 -0.7105  1.6907
14954TIP3   OH266352   2.897   3.893   5.379  0.2982 -0.5369  0.2077
14954TIP3    H166353   2.953   3.818   5.358  0.0412 -0.4158 -1.0288
14954TIP3    H266354   2.895   3.944   5.297 -0.7209  0.0423  0.5781
14955TIP3   OH266355   2.292   6.523  16.078 -0.3868  0.1882  0.0390
14955TIP3    H166356   2.307   6.577  16.001  1.3916 -0.2655  0.0198
14955TIP3    H266357   2.309   6.434  16.048 -0.0063 -0.0268  0.8533
14956TIP3   OH266358   5.323   6.035   1.545  0.3596  0.5059 -0.0190
14956TIP3    H166359   5.306   5.981   1.622  0.1116  0.1075 -0.3491
14956TIP3    H266360   5.382   6.103   1.576 -1.7947  1.9347  1.1615
14957TIP3   OH266361   2.058   2.900   2.993  0.7523 -0.5241 -0.1864
14957TIP3    H166362   1.986   2.931   2.939 -0.0960  2.0492  2.1753
14957TIP3    H266363   2.133   2.953   2.967  1.2128 -1.5625 -1.0279
14958TIP3   OH266364   5.049   3.644   0.172 -0.4222  0.0169  0.3871
14958TIP3    H166365   5.021   3.618   0.260  0.7550 -1.8405  0.2691
14958TIP3    H266366   5.141   3.617   0.167 -0.6570 -0.5789 -1.6378
14959TIP3   OH266367   1.403   4.258   3.924 -0.3089 -0.4669  0.5440
14959TIP3    H166368   1.388   4.247   3.830 -1.0796  0.1455  0.5883
14959TIP3    H266369   1.435   4.172   3.953 -0.7246 -0.8624 -0.1472
14960TIP3   OH266370   6.680   3.478   2.820 -0.8125 -0.2240 -0.5809
14960TIP3    H166371   6.587   3.475   2.801 -0.9273  1.5062 -0.4833
14960TIP3    H266372   6.719   3.518   2.741 -0.4656  1.0545  0.1953
14961TIP3   OH266373   2.140   4.826  11.689 -0.6183 -0.0416  0.0704
14961TIP3    H166374   2.138   4.854  11.780  0.6080  0.1732  0.0467
14961TIP3    H266375   2.118   4.732  11.691 -0.0983 -0.1522  0.6406
14962TIP3   OH266376   0.928   6.276  12.494 -0.0313  0.3369  0.1601
14962TIP3    H166377   1.016   6.302  12.467 -0.1121 -0.8253 -1.4221
14962TIP3    H266378   0.942   6.215  12.567  0.4751  0.2781  0.0179
14963TIP3   OH266379   6.270   0.330  13.047  0.4301  0.3345  0.1208
14963TIP3    H166380   6.301   0.368  12.965  1.4853  0.9290  0.7785
14963TIP3    H266381   6.336   0.264  13.070 -0.3797 -0.5482 -0.0035
14964TIP3   OH266382   4.801   3.982   4.682  0.3392 -0.1464 -0.5465
14964TIP3    H166383   4.774   3.890   4.689  1.3723 -0.3756  0.9054
14964TIP3    H266384   4.765   4.011   4.598 -0.7353 -1.6225 -0.6456
14965TIP3   OH266385   3.588   5.986  15.381  0.0234  0.1587  0.1753
14965TIP3    H166386   3.653   5.918  15.400 -0.0151  0.4489  1.3810
14965TIP3    H266387   3.637   6.068  15.385  0.0532  0.2349 -1.2089
14966TIP3   OH266388   0.280   0.995   4.143  0.5186  0.1185 -0.0460
14966TIP3    H166389   0.296   1.013   4.050 -1.2528 -0.6698 -0.5437
14966TIP3    H266390   0.193   0.957   4.145  1.2214 -1.5586  1.7469
14967TIP3   OH266391   3.151   6.810  15.911 -0.5024  0.3749 -0.4968
14967TIP3    H166392   3.183   6.789  15.824  0.8244  1.4354 -0.2892
14967TIP3    H266393   3.223   6.787  15.970 -0.7095  1.2993  0.1417
14968TIP3   OH266394   5.153   6.473   3.098  0.0957  0.3549 -0.4084
14968TIP3    H166395   5.119   6.540   3.158 -1.2708 -1.2168  0.6694
14968TIP3    H266396   5.093   6.476   3.023  1.6744  2.1671 -1.7047
14969TIP3   OH266397   2.932   0.670  11.626 -0.4920 -0.0162  0.4069
14969TIP3    H166398   3.000   0.675  11.559  0.3728 -0.0781  1.2539
14969TIP3    H266399   2.894   0.582  11.615  0.1622 -0.3133  0.4929
14970TIP3   OH266400   1.805   4.680  11.835  0.1127  0.4727 -0.1509
14970TIP3    H166401   1.844   4.637  11.759 -1.3011 -0.4323 -0.4144
14970TIP3    H266402   1.793   4.610  11.899 -3.1215  0.1128 -0.9412
14971TIP3   OH266403   2.704   3.460   0.889  0.1830 -0.1288 -0.0869
14971TIP3    H166404   2.711   3.554   0.872  0.7976  0.2968  2.2168
14971TIP3    H266405   2.620   3.436   0.851 -0.9214  1.7992  0.9438
14972TIP3   OH266406   2.812   1.514   1.875  0.1654 -0.5352 -0.1439
14972TIP3    H166407   2.738   1.560   1.916  0.4067 -0.9579  0.8030
14972TIP3    H266408   2.878   1.582   1.863 -0.0963 -0.3037 -0.3101
14973TIP3   OH266409   3.911   0.335   0.656 -0.1048  0.0957  0.3682
14973TIP3    H166410   3.917   0.426   0.682 -0.6424  0.5129 -0.8739
14973TIP3    H266411   3.837   0.300   0.705  0.9598 -0.0874  1.9127
14974TIP3   OH266412   5.819   3.492  12.573  0.0785 -0.3757 -0.0151
14974TIP3    H166413   5.909   3.477  12.602  0.5767  0.7598 -0.8876
14974TIP3    H266414   5.770   3.509  12.654  0.1706 -2.9329  0.6889
14975TIP3   OH266415   6.504   5.414  13.961 -0.1317  0.0933  0.0555
14975TIP3    H166416   6.537   5.502  13.944 -1.3443  0.3157 -1.3133
14975TIP3    H266417   6.425   5.427  14.013 -0.4107 -0.1708 -0.2961
14976TIP3   OH266418   2.256   3.064  11.194  0.2111 -0.3240  0.4505
14976TIP3    H166419   2.215   3.020  11.120 -0.9870  0.3641  0.6828
14976TIP3    H266420   2.295   3.143  11.156 -0.0834 -0.1605  0.4826
14977TIP3   OH266421   4.907   0.922   0.480 -0.0452 -1.0709  0.2249
14977TIP3    H166422   4.924   0.849   0.540  0.4381 -0.8958  0.3111
14977TIP3    H266423   4.830   0.965   0.516 -0.5911 -1.7853 -0.0683
14978TIP3   OH266424   6.303   3.198   5.292 -0.0306 -0.5825  0.3612
14978TIP3    H166425   6.256   3.220   5.372 -2.6725  0.9947 -1.4622
14978TIP3    H266426   6.332   3.108   5.305 -2.8821 -1.3795  1.9865
14979TIP3   OH266427   2.546   0.829   2.749 -0.3165  0.0511 -0.5352
14979TIP3    H166428   2.624   0.797   2.704  0.0238  0.1805 -0.0525
14979TIP3    H266429   2.478   0.765   2.729  0.2217 -0.7052 -0.0077
14980TIP3   OH266430   1.267   2.247   5.771  1.1485 -0.3379  0.0589
14980TIP3    H166431   1.251   2.228   5.679  0.8390  0.1761  0.0029
14980TIP3    H266432   1.362   2.259   5.777  1.0649  0.6956 -0.4077
14981TIP3   OH266433   3.465   2.092  17.006  0.1423  0.0212  0.0239
14981TIP3    H166434   3.410   2.096  17.085 -1.5285  2.2749 -1.1393
14981TIP3    H266435   3.450   2.175  16.962  1.9156 -0.7004 -2.1461
14982TIP3   OH266436   6.542   0.213   1.831  0.1593 -0.3236  0.2844
14982TIP3    H166437   6.493   0.181   1.907  2.5701  0.8487  2.4648
14982TIP3    H266438   6.483   0.278   1.791 -1.4440 -1.4631  0.6893
14983TIP3   OH266439   3.302   4.893  13.588 -0.2830 -0.0617  0.1481
14983TIP3    H166440   3.365   4.833  13.629 -1.1203 -0.9265  0.2055
14983TIP3    H266441   3.239   4.835  13.544 -0.3467  0.8116 -0.9663
14984TIP3   OH266442   6.734   6.405   0.249  0.0081 -0.5060  0.1244
14984TIP3    H166443   6.801   6.362   0.301  1.2509  1.7155  0.4948
14984TIP3    H266444   6.781   6.436   0.171  0.1242  3.0600  1.4041
14985TIP3   OH266445   3.385   6.787  12.273 -0.3522  0.3564  0.1002
14985TIP3    H166446   3.421   6.724  12.335 -0.6546  1.8419  1.8766
14985TIP3    H266447   3.389   6.743  12.188  3.0354 -0.5914  0.6133
14986TIP3   OH266448   2.080   4.052  13.725  0.1119 -0.2654  0.4795
14986TIP3    H166449   2.164   4.075  13.764  0.4971 -0.4690 -0.2090
14986TIP3    H266450   2.089   3.959  13.703  0.1532 -0.0089 -0.6710
14987TIP3   OH266451   2.590   6.806   3.435  0.1039  0.6851  0.4044
14987TIP3    H166452   2.612   6.715   3.415 -0.0047  0.4149  1.4913
14987TIP3    H266453   2.504   6.820   3.394  0.5145  0.5829 -0.5256
14988TIP3   OH266454   4.319   2.786  12.960  0.2110 -0.0170  0.4228
14988TIP3    H166455   4.373   2.863  12.943  2.2215 -1.4367 -0.1342
14988TIP3    H266456   4.264   2.777  12.882  1.9746 -0.6488 -0.8342
14989TIP3   OH266457   2.841   6.085  17.173  0.6927 -0.4978  0.7473
14989TIP3    H166458   2.916   6.129  17.214 -0.4393  0.7904  1.5293
14989TIP3    H266459   2.768   6.147  17.184 -0.1269 -0.9651 -1.4769
14990TIP3   OH266460   0.102   6.068  15.503  0.3835  0.1260  0.7596
14990TIP3    H166461   0.083   5.982  15.464 -1.3973  1.7381 -2.3293
14990TIP3    H266462   0.028   6.085  15.561  0.2141 -0.0104  0.5869
14991TIP3   OH266463   3.449   3.466  14.260 -0.6567 -0.0353  0.1925
14991TIP3    H166464   3.523   3.485  14.202 -0.4017  0.9498  0.8007
14991TIP3    H266465   3.372   3.479  14.205 -0.4828  2.4127  0.3880
14992TIP3   OH266466   3.572   0.243   4.849  0.3128  0.6949 -0.3222
14992TIP3    H166467   3.506   0.274   4.787 -1.1020 -0.9682  0.2430
14992TIP3    H266468   3.603   0.161   4.812 -1.2692 -0.8469  1.4943
14993TIP3   OH266469   2.149   6.482   2.712 -0.6606  0.0214  0.0907
14993TIP3    H166470   2.192   6.428   2.777 -1.2991 -0.5325  0.0586
14993TIP3    H266471   2.057   6.456   2.715 -0.8735  0.6882 -0.3347
14994TIP3   OH266472   6.539   4.595  16.697 -0.0322 -0.2894 -0.4276
14994TIP3    H166473   6.456   4.583  16.744  0.7338 -0.6913  0.8944
14994TIP3    H266474   6.599   4.535  16.741  0.8819 -0.2427 -1.5806
14995TIP3   OH266475   5.951   3.562   3.775 -0.0899 -0.0616 -0.0043
14995TIP3    H166476   5.903   3.528   3.851  1.1122 -0.3471  0.6676
14995TIP3    H266477   5.961   3.486   3.718  0.3235 -0.2292  0.2802
14996TIP3   OH266478   1.918   5.676   0.476  0.0505  0.2410  0.1068
14996TIP3    H166479   1.963   5.659   0.558 -0.7055  0.8283  0.6646
14996TIP3    H266480   1.890   5.768   0.483 -3.3251 -0.6958  0.8776
14997TIP3   OH266481   5.283   0.502  14.210 -0.4153 -0.1562 -0.2066
14997TIP3    H166482   5.286   0.415  14.170 -0.8173 -0.5923  0.6699
14997TIP3    H266483   5.329   0.492  14.293  0.7387  0.8226 -0.7009
14998TIP3   OH266484   2.426   5.982   1.602  0.1607 -0.0151  0.6430
14998TIP3    H166485   2.432   5.940   1.516  0.9175 -1.5613  1.4206
14998TIP3    H266486   2.461   5.917   1.663  0.8921  1.5522  1.9653
14999TIP3   OH266487   0.593   0.948   4.561  0.3084  0.0489  0.0687
14999TIP3    H166488   0.647   1.003   4.618 -0.4788 -0.6009  1.5013
14999TIP3    H266489   0.604   0.859   4.596 -2.0173 -0.0400  0.7565
15000TIP3   OH266490   3.357   4.473   0.245 -0.4396  0.0556 -0.4215
15000TIP3    H166491   3.452   4.480   0.248 -0.5150  1.1279 -0.4529
15000TIP3    H266492   3.337   4.450   0.154 -0.2761  0.8673 -0.6654
15001TIP3   OH266493   2.049   5.169   4.698 -0.6413 -0.5789 -0.1825
15001TIP3    H166494   2.068   5.255   4.660 -1.3370  0.1801  1.1158
15001TIP3    H266495   2.092   5.171   4.784 -3.3485 -0.2281  1.2487
15002TIP3   OH266496   2.110   6.020   1.533 -0.4896 -0.0540 -0.4641
15002TIP3    H166497   2.152   5.961   1.595 -0.3526 -0.2484 -0.7409
15002TIP3    H266498   2.019   5.989   1.527 -0.9525  0.9334  0.8479
15003TIP3   OH266499   5.085   6.386   5.115 -0.6030  0.0303  0.0385
15003TIP3    H166500   5.006   6.434   5.141  0.1340  2.0937 -1.1982
15003TIP3    H266501   5.157   6.439   5.148  0.2888 -1.2075  0.1512
15004TIP3   OH266502   1.027   0.260   5.236 -0.2864 -0.1068  0.2798
15004TIP3    H166503   1.088   0.273   5.309 -2.4533 -1.7848  2.5855
15004TIP3    H266504   0.980   0.343   5.229 -0.5889 -0.1724  1.3674
15005TIP3   OH266505   2.677   1.041   1.293 -0.3422 -0.3555 -0.1520
15005TIP3    H166506   2.651   0.952   1.271 -1.4525 -0.4629  1.4320
15005TIP3    H266507   2.769   1.047   1.265 -0.6649 -1.4989 -1.5882
15006TIP3   OH266508   0.950   1.497   6.820 -0.8418  0.4684  0.1404
15006TIP3    H166509   0.904   1.420   6.788  1.2042 -0.9156  0.3545
15006TIP3    H266510   0.908   1.570   6.775  0.2924 -1.1460 -3.9555
15007TIP3   OH266511   4.594   6.200  16.699  0.1889  0.8578  0.5043
15007TIP3    H166512   4.662   6.201  16.632  0.5032  3.0304  0.8051
15007TIP3    H266513   4.514   6.222  16.651  0.1720  1.0483  0.6231
15008TIP3   OH266514   4.804   4.652  11.450  0.0943  0.0092  0.0202
15008TIP3    H166515   4.732   4.714  11.450  0.2063  0.1846 -1.5547
15008TIP3    H266516   4.850   4.669  11.368  1.9796 -0.0541  1.0221
15009TIP3   OH266517   5.112   5.980  14.996  0.4950 -0.3474  0.0128
15009TIP3    H166518   5.086   6.055  14.942 -0.9424 -1.5333 -1.0353
15009TIP3    H266519   5.031   5.952  15.039  1.2166 -0.6840  1.2266
15010TIP3   OH266520   4.932   0.687  12.057 -0.1389 -0.6770  0.4280
15010TIP3    H166521   4.868   0.635  12.106 -0.4725 -1.5581 -0.9143
15010TIP3    H266522   4.961   0.630  11.986 -0.0926  0.7768 -0.7652
15011TIP3   OH266523   3.023   3.810  11.628  0.2042 -1.0380  0.3787
15011TIP3    H166524   3.061   3.731  11.668  0.0232 -0.6283  1.3956
15011TIP3    H266525   2.935   3.783  11.601  0.6332 -1.5568 -0.5440
15012TIP3   OH266526   3.521   6.083  15.805 -0.1958 -0.4062 -1.1250
15012TIP3    H166527   3.467   6.087  15.883  1.3734  0.5860 -0.0307
15012TIP3    H266528   3.459   6.069  15.733 -1.6297 -1.6736  0.3048
15013TIP3   OH266529   0.858   2.248  10.695 -0.6092 -0.3230 -0.6922
15013TIP3    H166530   0.888   2.321  10.642  1.0803 -1.3617 -1.2470
15013TIP3    H266531   0.938   2.200  10.717 -1.4677 -1.0023  1.1847
15014TIP3   OH266532   3.695   2.106   6.850  0.3623  0.4276  0.6743
15014TIP3    H166533   3.645   2.027   6.830 -1.3215  1.0522  2.1715
15014TIP3    H266534   3.745   2.124   6.770 -2.3824  0.1744 -1.2369
15015TIP3   OH266535   3.113   0.491   6.034  0.0292 -0.0099  0.3817
15015TIP3    H166536   3.070   0.501   5.949 -0.0760 -0.7289  0.3436
15015TIP3    H266537   3.056   0.431   6.082  1.1374 -1.2355  0.2159
15016TIP3   OH266538   5.176   3.685  10.976 -0.0567  0.2124 -0.5793
15016TIP3    H166539   5.184   3.599  10.936 -1.7370  0.2211 -1.0110
15016TIP3    H266540   5.119   3.734  10.917 -0.5014  1.0590  0.5103
15017TIP3   OH266541   3.404   4.562   0.700 -0.3177  0.1395  0.1029
15017TIP3    H166542   3.369   4.621   0.634 -1.3226 -1.6914 -1.1018
15017TIP3    H266543   3.341   4.566   0.772 -2.0692 -1.6124 -1.2158
15018TIP3   OH266544   0.393   5.615  14.652 -0.1900 -0.5520  0.1442
15018TIP3    H166545   0.401   5.654  14.739 -0.7926  0.8163 -0.3695
15018TIP3    H266546   0.446   5.535  14.656  1.4710  0.5195  1.1626
15019TIP3   OH266547   5.919   3.133  16.463 -0.0518  0.3102 -0.9402
15019TIP3    H166548   6.010   3.141  16.434  0.0989 -2.2749 -1.4157
15019TIP3    H266549   5.887   3.223  16.466  2.8275  1.4395  0.3052
15020TIP3   OH266550   3.714   4.611   5.720  0.6965  0.1510 -0.7321
15020TIP3    H166551   3.743   4.572   5.637  0.8798 -0.7543 -0.2554
15020TIP3    H266552   3.637   4.559   5.745  1.7046 -0.8026  0.5631
15021TIP3   OH266553   4.164   3.733  16.655  0.1719 -0.2397 -0.1914
15021TIP3    H166554   4.091   3.680  16.622  0.8232 -2.2024  1.3028
15021TIP3    H266555   4.229   3.730  16.584 -0.2608 -0.4903 -0.5881
15022TIP3   OH266556   0.027   3.107  14.582 -0.3569  0.2541 -0.2141
15022TIP3    H166557   0.038   3.175  14.649 -0.7019 -0.8245  0.9831
15022TIP3    H266558   0.028   3.025  14.631 -0.0942 -0.6100 -1.6070
15023TIP3   OH266559   4.308   0.123   3.263 -0.0950 -0.1616  0.6367
15023TIP3    H166560   4.340   0.085   3.182 -0.7180 -0.9673  0.7509
15023TIP3    H266561   4.386   0.152   3.309  0.1945  1.5782 -0.8370
15024TIP3   OH266562   3.911   1.275  16.523 -0.1867  0.7314  0.0665
15024TIP3    H166563   3.822   1.288  16.555 -0.8856  0.3503 -1.6065
15024TIP3    H266564   3.935   1.187  16.552 -1.0694  0.1191 -1.0009
15025TIP3   OH266565   1.970   6.284   2.499 -0.1582  0.5628  0.0826
15025TIP3    H166566   2.028   6.322   2.433  0.4389  2.5390  1.6523
15025TIP3    H266567   1.881   6.299   2.466  0.1471  0.7799 -0.6415
15026TIP3   OH266568   1.992   1.698   2.659 -0.1625  0.2736  0.3542
15026TIP3    H166569   1.949   1.784   2.669 -0.4573  0.2024 -0.2625
15026TIP3    H266570   2.067   1.715   2.602  0.5480  0.3641  1.2932
15027TIP3   OH266571   1.933   0.908   4.186 -0.0284 -0.0702 -0.5428
15027TIP3    H166572   1.947   0.941   4.274 -1.8591  0.3405 -0.3876
15027TIP3    H266573   2.001   0.841   4.175  1.3704  1.1174  0.4865
15028TIP3   OH266574   4.646   3.243   2.993 -0.7012 -0.1426  0.0723
15028TIP3    H166575   4.659   3.232   3.087 -0.7569  1.6750  0.3149
15028TIP3    H266576   4.727   3.211   2.954  1.1172  2.8691  1.0424
15029TIP3   OH266577   6.315   6.603  15.108  0.5478 -0.0437 -0.2573
15029TIP3    H166578   6.384   6.570  15.165  1.7155  0.7367 -1.1645
15029TIP3    H266579   6.315   6.698  15.122 -0.1869 -0.0072 -0.4430
15030TIP3   OH266580   3.853   1.643   3.939  0.2963 -0.3905  0.5260
15030TIP3    H166581   3.861   1.686   3.853 -1.1688  0.0160  0.5538
15030TIP3    H266582   3.758   1.638   3.954  0.5323  0.1065  2.4082
15031TIP3   OH266583   4.393   4.381   5.425 -0.0138  0.3574  0.3289
15031TIP3    H166584   4.477   4.347   5.455  0.4988  1.5072  0.2450
15031TIP3    H266585   4.415   4.447   5.359 -1.0665 -0.9954 -1.4919
15032TIP3   OH266586   1.193   5.183  15.142 -0.3138  0.1568 -0.4451
15032TIP3    H166587   1.259   5.156  15.078  0.7436  0.3997  0.5162
15032TIP3    H266588   1.109   5.167  15.098  0.3812  1.0129 -2.1646
15033TIP3   OH266589   5.755   5.258  12.870 -0.1404  0.4782 -0.0550
15033TIP3    H166590   5.671   5.214  12.857  0.7408 -1.6226  0.8522
15033TIP3    H266591   5.804   5.243  12.789 -0.0126  0.1794  0.0764
15034TIP3   OH266592   6.699   5.759   5.580 -0.4998  0.0880 -1.0704
15034TIP3    H166593   6.675   5.723   5.666  0.0197 -0.1168 -1.0086
15034TIP3    H266594   6.675   5.851   5.586 -0.7106  0.0194 -0.7951
15035TIP3   OH266595   3.120   1.120   4.192  0.1688 -0.5834  0.1282
15035TIP3    H166596   3.080   1.086   4.111 -1.7584 -0.5218  0.9972
15035TIP3    H266597   3.131   1.213   4.175  1.9674 -0.9250 -0.8774
15036TIP3   OH266598   6.752   4.983   4.437  0.2337 -0.0712  0.3068
15036TIP3    H166599   6.793   5.038   4.504 -1.5801 -0.9697  2.2685
15036TIP3    H266600   6.802   4.901   4.440  0.0686 -0.1625  0.6940
15037TIP3   OH266601   3.997   6.356  14.916  0.1394 -0.0547  0.2991
15037TIP3    H166602   4.050   6.344  14.995  1.1218  2.0517  0.0438
15037TIP3    H266603   3.954   6.441  14.929  1.3719  1.0038 -1.9256
15038TIP3   OH266604   1.424   0.043  16.472 -0.1621 -0.0365 -0.3591
15038TIP3    H166605   1.478   0.045  16.394  0.8399  0.1110  0.3230
15038TIP3    H266606   1.485   0.058  16.544 -1.1019  0.0726  0.4350
15039TIP3   OH266607   0.008   0.107  12.366 -0.1130  0.1772  0.0070
15039TIP3    H166608  -0.060   0.072  12.308  0.7467 -0.6257 -0.5481
15039TIP3    H266609   0.006   0.201  12.351 -0.0202 -0.0033 -1.2029
15040TIP3   OH266610   4.531   1.154   5.786  0.3327 -0.4865 -0.1928
15040TIP3    H166611   4.465   1.145   5.717  0.8225 -1.3881 -0.5745
15040TIP3    H266612   4.601   1.205   5.745  0.1854 -0.1483 -0.0248
15041TIP3   OH266613   2.651   6.270  13.776  0.2188 -0.1611 -0.2209
15041TIP3    H166614   2.722   6.205  13.774  0.4445  0.0383  0.9485
15041TIP3    H266615   2.609   6.261  13.690  3.1702  1.4110 -2.0088
15042TIP3   OH266616   5.000   6.023  16.531  0.4852 -0.2060  0.3487
15042TIP3    H166617   4.989   6.093  16.595  0.4359  0.9869 -0.9135
15042TIP3    H266618   5.003   5.943  16.583 -0.8208  0.5904  1.7451
15043TIP3   OH266619   0.039   0.442  11.031  0.0212  0.3253  0.1372
15043TIP3    H166620  -0.021   0.371  11.057 -1.0728  0.8745 -0.7727
15043TIP3    H266621   0.109   0.397  10.984  1.0502 -0.4706  2.3110
15044TIP3   OH266622   3.148   1.198  11.242  0.0124 -0.0287 -0.2103
15044TIP3    H166623   3.106   1.280  11.217 -0.0073 -0.5375 -2.0249
15044TIP3    H266624   3.198   1.173  11.164 -0.4369 -2.0105  0.0819
15045TIP3   OH266625   1.909   0.860   0.286 -0.0955  0.0731  0.1792
15045TIP3    H166626   1.863   0.777   0.278 -0.2370  0.1214  0.4563
15045TIP3    H266627   1.902   0.882   0.379 -0.0286  0.3762  0.1131
15046TIP3   OH266628   1.537   2.838  11.531 -0.4659  0.1501 -0.1539
15046TIP3    H166629   1.569   2.774  11.467  1.3977  0.7903  0.0910
15046TIP3    H266630   1.444   2.846  11.511 -0.3311 -1.1130 -1.5117
15047TIP3   OH266631   4.770   0.864  16.376  0.0162  0.5906 -0.1377
15047TIP3    H166632   4.804   0.870  16.287 -0.2996 -0.0270 -0.3025
15047TIP3    H266633   4.825   0.797  16.418  2.8695  3.6005  1.3846
15048TIP3   OH266634   2.350   4.930   2.500 -0.1014  0.2361 -0.1054
15048TIP3    H166635   2.296   4.851   2.503  0.8683 -0.4100  1.6434
15048TIP3    H266636   2.343   4.960   2.409 -0.9716 -1.5197 -0.6643
15049TIP3   OH266637   4.996   2.459   3.458  0.3964 -0.0756 -0.0607
15049TIP3    H166638   5.071   2.493   3.507 -0.1397  0.0614  0.6847
15049TIP3    H266639   4.995   2.365   3.477 -0.7083  0.2165  1.4566
15050TIP3   OH266640   5.092   4.895   4.115  0.1658  0.2718  0.4990
15050TIP3    H166641   5.171   4.852   4.082 -0.8334 -2.4150  1.3322
15050TIP3    H266642   5.105   4.988   4.096  2.9977 -0.2228 -0.3942
15051TIP3   OH266643   4.333   1.071   3.842 -0.0153 -0.3760 -0.9922
15051TIP3    H166644   4.332   1.081   3.937  1.0335 -0.0976 -0.9898
15051TIP3    H266645   4.266   1.006   3.823 -0.4423 -0.2074 -0.0922
15052TIP3   OH266646   6.668   3.025   3.154  0.4973  0.0508 -0.4764
15052TIP3    H166647   6.579   2.991   3.160  0.8301 -1.4700 -2.7752
15052TIP3    H266648   6.663   3.093   3.086  0.8843  0.7973  0.2240
15053TIP3   OH266649   0.485   4.762  11.178 -0.2288  0.5398  0.4911
15053TIP3    H166650   0.448   4.687  11.225  1.4943  0.0648  1.1716
15053TIP3    H266651   0.491   4.732  11.087  1.5911 -0.6992  0.9480
15054TIP3   OH266652   2.522   5.940  15.525  1.0088  0.7568  0.3375
15054TIP3    H166653   2.483   5.876  15.466  1.1766  1.3351 -0.4113
15054TIP3    H266654   2.535   6.018  15.471  2.9815  0.6733  0.5930
15055TIP3   OH266655   4.402   2.590   2.348 -0.2371 -0.4330 -0.4883
15055TIP3    H166656   4.464   2.591   2.420 -0.2990  1.6664 -0.3923
15055TIP3    H266657   4.403   2.500   2.316 -0.6228 -1.5942  2.4469
15056TIP3   OH266658   4.884   0.839  14.716 -0.0023  0.0558 -0.1157
15056TIP3    H166659   4.825   0.839  14.791  0.6807  0.3327  0.4370
15056TIP3    H266660   4.866   0.923  14.673 -0.9746 -0.4619 -0.7425
15057TIP3   OH266661   1.936   3.027   1.304  0.2322 -0.0209  0.4323
15057TIP3    H166662   1.870   3.045   1.371 -0.1293  1.3651 -0.2563
15057TIP3    H266663   1.890   2.975   1.238  0.6252 -1.5095  1.2688
15058TIP3   OH266664   0.212   2.278   0.600  0.6136 -0.1095 -0.0042
15058TIP3    H166665   0.140   2.339   0.614  0.5304 -0.4160  0.9172
15058TIP3    H266666   0.282   2.332   0.561  0.1524  0.3335 -0.2243
15059TIP3   OH266667   0.671   1.721  11.354 -0.1961 -0.2112  0.2210
15059TIP3    H166668   0.643   1.812  11.365 -1.0127 -0.5429  0.9984
15059TIP3    H266669   0.762   1.727  11.325  0.1755  0.8472  1.4897
15060TIP3   OH266670   2.427   5.726  11.290  0.0606 -0.6736 -0.2243
15060TIP3    H166671   2.462   5.789  11.226  1.1378 -1.5732 -0.5647
15060TIP3    H266672   2.463   5.755  11.373 -0.7973  0.1090 -0.1105
15061TIP3   OH266673   1.257   6.144  13.987  0.5798 -0.0988  0.5541
15061TIP3    H166674   1.329   6.175  14.041  0.4204  0.5320  0.4167
15061TIP3    H266675   1.201   6.221  13.975  1.1542  0.0772 -1.3621
15062TIP3   OH266676   6.657   4.513  13.739  0.0130  0.3520 -0.1631
15062TIP3    H166677   6.625   4.423  13.742  0.5606  0.1489  2.2537
15062TIP3    H266678   6.719   4.514  13.666 -2.5202 -0.2288 -2.4883
15063TIP3   OH266679   6.160   2.208  15.860 -0.4760 -0.3774  0.6513
15063TIP3    H166680   6.248   2.238  15.882  0.0234 -1.1340 -0.2589
15063TIP3    H266681   6.112   2.289  15.842  0.3281 -0.0077  0.0951
15064TIP3   OH266682   3.449   5.545   3.605 -0.3362  0.2106  0.5869
15064TIP3    H166683   3.497   5.478   3.654 -1.3441 -1.9463 -1.2183
15064TIP3    H266684   3.509   5.570   3.535 -0.1590  0.8754  0.9630
15065TIP3   OH266685   5.746   2.811  14.728  0.0865  0.1809  0.7863
15065TIP3    H166686   5.668   2.815  14.673 -1.4225  0.5537  2.8594
15065TIP3    H266687   5.819   2.826  14.667 -1.3465 -0.9375 -1.3412
15066TIP3   OH266688   3.854   1.957   0.181 -0.4222 -0.1198  0.3979
15066TIP3    H166689   3.838   1.981   0.089  1.0286 -1.8225 -0.3420
15066TIP3    H266690   3.948   1.945   0.187 -0.3399  1.0989  2.4521
15067TIP3   OH266691   1.214   4.153   2.683  0.4894 -0.5264  0.3637
15067TIP3    H166692   1.304   4.133   2.708  0.3359  0.1600  1.5942
15067TIP3    H266693   1.205   4.247   2.700 -0.7062 -0.7500  1.1243
15068TIP3   OH266694   6.491   2.007   0.823 -0.4907  0.5536 -0.0472
15068TIP3    H166695   6.564   1.957   0.860 -2.1127  0.2455  3.1765
15068TIP3    H266696   6.528   2.052   0.747  2.4823 -1.1355  0.2436
15069TIP3   OH266697   3.492   1.164   4.260  0.1146  0.6087  0.0054
15069TIP3    H166698   3.487   1.172   4.355  0.6192  0.9442  0.0070
15069TIP3    H266699   3.585   1.166   4.240  0.1767 -1.7530 -0.3147
15070TIP3   OH266700   5.536   3.328  11.368  0.4762 -0.0151 -0.2957
15070TIP3    H166701   5.498   3.379  11.296  1.0193  0.8602  0.0157
15070TIP3    H266702   5.534   3.237  11.338  0.1327  0.2722 -1.1579
15071TIP3   OH266703   6.608   4.207  15.558  0.1577 -0.0420  0.0556
15071TIP3    H166704   6.600   4.301  15.541 -2.0120  0.3180  2.4365
15071TIP3    H266705   6.698   4.197  15.590  1.3998  0.6252 -2.9010
15072TIP3   OH266706   2.133   4.641   0.105 -0.8182  0.0573 -0.2190
15072TIP3    H166707   2.099   4.727   0.081 -1.2928 -0.2581 -0.7017
15072TIP3    H266708   2.095   4.581   0.040 -1.6241 -0.7323  0.9358
15073TIP3   OH266709   0.470   1.504   2.282  0.0010  0.4177  0.1129
15073TIP3    H166710   0.420   1.475   2.358 -0.2975  0.7383  0.0389
15073TIP3    H266711   0.561   1.506   2.313 -0.3784  3.1694  1.3066
15074TIP3   OH266712   3.460   4.770  15.942  0.7417  0.2387 -0.7486
15074TIP3    H166713   3.484   4.860  15.966  1.1907 -0.0567 -0.0674
15074TIP3    H266714   3.521   4.748  15.871 -0.1360  0.8714 -1.7254
15075TIP3   OH266715   5.239   3.453  12.500  0.3026 -0.0746  0.0488
15075TIP3    H166716   5.313   3.399  12.471  0.7177  0.7803 -0.5148
15075TIP3    H266717   5.182   3.460  12.424  0.2155  0.2285  0.1400
15076TIP3   OH266718   2.096   0.056  11.898 -0.1365  0.3992  0.7690
15076TIP3    H166719   2.083  -0.016  11.960  1.0569 -1.3488 -0.8743
15076TIP3    H266720   2.041   0.034  11.823  1.2259  0.4522 -0.2988
15077TIP3   OH266721   2.748   0.697   4.926  0.0657  0.2113 -0.5573
15077TIP3    H166722   2.697   0.648   4.861  0.8321  0.3630 -1.2872
15077TIP3    H266723   2.755   0.637   5.001 -1.6110  0.3863 -0.2209
15078TIP3   OH266724   3.020   2.402  13.490  0.5025 -0.2653  0.6351
15078TIP3    H166725   3.106   2.365  13.509  0.6593 -0.4131 -0.3186
15078TIP3    H266726   3.025   2.492  13.523  0.8549 -0.4157  1.0007
15079TIP3   OH266727   6.485   3.450   3.350 -0.5504  0.3769 -0.0320
15079TIP3    H166728   6.498   3.492   3.435 -1.4831 -0.2087  0.4137
15079TIP3    H266729   6.561   3.392   3.340 -0.4836  0.3804  0.4527
15080TIP3   OH266730   1.871   3.961  11.302 -0.4762 -0.7062 -0.2423
15080TIP3    H166731   1.840   4.005  11.381  0.3063  0.4439 -0.5630
15080TIP3    H266732   1.833   3.872  11.308 -1.7173 -0.1517  0.6258
15081TIP3   OH266733   5.383   5.679  12.347 -0.1118 -0.0513  0.3805
15081TIP3    H166734   5.358   5.672  12.255  0.2356  0.8641  0.2001
15081TIP3    H266735   5.357   5.596  12.386 -0.4726 -0.3580 -0.4957
15082TIP3   OH266736   2.589   6.245  15.409 -0.2481  0.3961 -0.4960
15082TIP3    H166737   2.509   6.298  15.418 -0.0804  0.7433 -1.0030
15082TIP3    H266738   2.608   6.216  15.498  0.2159  2.0234 -0.0230
15083TIP3   OH266739   5.622   4.383   1.642  1.5543  0.5100  0.3014
15083TIP3    H166740   5.576   4.319   1.696 -0.4344 -1.0220 -2.8654
15083TIP3    H266741   5.562   4.458   1.638  1.2431  0.2352 -0.4464
15084TIP3   OH266742   5.308   4.718   3.295 -0.2576  0.2790 -0.3740
15084TIP3    H166743   5.282   4.737   3.204  1.0090 -0.5591 -0.9440
15084TIP3    H266744   5.393   4.675   3.287 -0.3245 -0.2115  1.2020
15085TIP3   OH266745   5.809   4.378  13.340  0.1163  0.6177  0.7918
15085TIP3    H166746   5.814   4.290  13.304 -0.7989  0.5462  0.8076
15085TIP3    H266747   5.750   4.424  13.280 -0.7153  0.7518  1.6895
15086TIP3   OH266748   5.591   6.162  15.188  0.4824  0.3508  0.5885
15086TIP3    H166749   5.560   6.193  15.273 -0.4644  2.0167 -0.2810
15086TIP3    H266750   5.668   6.110  15.207 -0.7484 -0.8807  2.6024
15087TIP3   OH266751   6.308   4.140  11.541  0.5755 -0.0167  0.0239
15087TIP3    H166752   6.310   4.093  11.624  0.3921 -0.1691 -0.0596
15087TIP3    H266753   6.237   4.100  11.491 -0.6532  1.3742  0.5649
15088TIP3   OH266754   1.595   5.815  16.289 -0.1875  0.1221  0.2701
15088TIP3    H166755   1.686   5.797  16.311 -1.0850 -1.8235  2.8353
15088TIP3    H266756   1.573   5.748  16.224  0.1816  0.5753 -0.3303
15089TIP3   OH266757   3.396   3.122   0.051  0.3669 -0.2725  0.0203
15089TIP3    H166758   3.312   3.132   0.006  0.4801  0.8195  0.0172
15089TIP3    H266759   3.377   3.064   0.125  0.0917 -1.7426 -1.1702
15090TIP3   OH266760   5.046   2.625  13.893 -0.3546 -0.4563  0.3488
15090TIP3    H166761   5.013   2.541  13.924 -1.4044  0.1165  0.8289
15090TIP3    H266762   5.109   2.652  13.960  0.1705 -0.9567  0.0712
15091TIP3   OH266763   0.454   1.927  13.641  0.2970  0.3010  0.6936
15091TIP3    H166764   0.466   1.917  13.735 -0.0420  0.3451  0.7445
15091TIP3    H266765   0.475   1.840  13.605  0.9974  0.4478  0.7455
15092TIP3   OH266766   0.258   5.985   2.239 -0.4257  0.0802 -0.4409
15092TIP3    H166767   0.271   6.078   2.224 -1.0885  0.0783 -1.1215
15092TIP3    H266768   0.324   5.942   2.185  1.1882  0.1530  1.3541
15093TIP3   OH266769   3.774   4.954   3.805  0.0270 -0.0630 -0.1332
15093TIP3    H166770   3.821   5.036   3.791  0.9505 -0.3213  1.3233
15093TIP3    H266771   3.692   4.980   3.847 -0.4911  0.2454 -1.2856
15094TIP3   OH266772   1.815   4.975   6.159  0.4822 -0.0394  0.4240
15094TIP3    H166773   1.861   5.050   6.121  0.1047  0.2084  0.4466
15094TIP3    H266774   1.769   5.012   6.235 -0.0489 -0.2047  0.1880
15095TIP3   OH266775   6.115   1.426  15.774  0.5717 -0.8054  0.0462
15095TIP3    H166776   6.175   1.407  15.847 -1.3725 -0.8502  1.7356
15095TIP3    H266777   6.112   1.521  15.769  2.7866 -0.7529 -1.8795
15096TIP3   OH266778   1.230   6.435  15.805 -0.2245 -0.0792 -0.3382
15096TIP3    H166779   1.182   6.514  15.778 -3.9929 -1.4167  1.7441
15096TIP3    H266780   1.237   6.383  15.725  2.2204  2.0913 -1.7263
15097TIP3   OH266781   3.781   3.813   4.241  0.4050  1.0525  0.0184
15097TIP3    H166782   3.768   3.889   4.297  0.5534  0.9730  0.1615
15097TIP3    H266783   3.731   3.743   4.284  0.3279  1.0502 -0.0738
15098TIP3   OH266784   5.232   1.735  12.966 -0.4507 -0.8730  0.0051
15098TIP3    H166785   5.304   1.727  13.028  1.1956  1.3782 -1.4504
15098TIP3    H266786   5.245   1.661  12.906  1.3507  0.0537 -0.8323
15099TIP3   OH266787   2.607   2.373  14.832 -0.1126  0.0128  0.1863
15099TIP3    H166788   2.627   2.280  14.827  0.6258  0.1595  0.2663
15099TIP3    H266789   2.685   2.416  14.798 -1.3009  0.5655 -2.0741
15100TIP3   OH266790   4.236   0.936   0.720  0.1919  0.1446 -0.5451
15100TIP3    H166791   4.270   0.976   0.639 -1.5845 -0.5600 -1.6863
15100TIP3    H266792   4.290   0.974   0.789  1.0475  1.6235 -1.9500
15101TIP3   OH266793   4.419   6.198   5.775 -0.6309  0.2020  0.5230
15101TIP3    H166794   4.334   6.228   5.742 -0.5682 -0.4225 -0.2447
15101TIP3    H266795   4.408   6.105   5.789  0.3602 -0.2161 -1.1270
15102TIP3   OH266796   6.231   1.283   4.027 -0.1703  1.0389 -0.1261
15102TIP3    H166797   6.171   1.357   4.031 -0.3958  0.8883 -0.6499
15102TIP3    H266798   6.317   1.321   4.045 -0.0533  1.7173 -1.9289
15103TIP3   OH266799   1.438   1.401   4.277 -0.1414  0.3382  0.1688
15103TIP3    H166800   1.431   1.452   4.358  0.2391  1.8670 -0.7003
15103TIP3    H266801   1.470   1.465   4.212  0.1617 -0.9882 -1.0344
15104TIP3   OH266802   5.674   1.444   4.452 -0.9066 -0.0050 -0.3202
15104TIP3    H166803   5.645   1.357   4.424 -1.3408  0.0428 -0.0427
15104TIP3    H266804   5.673   1.439   4.548  1.4202 -0.4583 -0.2615
15105TIP3   OH266805   1.347   3.857  11.464 -0.5469 -1.2573  0.0182
15105TIP3    H166806   1.357   3.815  11.549  0.6180 -1.6092 -0.2737
15105TIP3    H266807   1.269   3.912  11.473 -1.4000 -2.5538  0.7770
15106TIP3   OH266808   2.889   4.191  16.010 -0.4864 -1.1459 -0.3794
15106TIP3    H166809   2.838   4.111  16.000 -1.4831 -0.5939  0.1179
15106TIP3    H266810   2.879   4.236  15.926 -1.4814 -0.6795 -0.0278
15107TIP3   OH266811   3.342   0.420   5.234 -0.3296  0.0968 -0.3325
15107TIP3    H166812   3.269   0.368   5.200 -0.3886 -0.3145  0.3970
15107TIP3    H266813   3.380   0.462   5.157  0.0880 -1.4978 -1.0542
15108TIP3   OH266814   1.462   1.394   2.018 -0.0279  0.2824  0.4846
15108TIP3    H166815   1.389   1.332   2.016  1.8930 -2.1824 -2.5733
15108TIP3    H266816   1.540   1.339   2.027  1.7665  2.2435 -1.7996
15109TIP3   OH266817   5.529   3.146  16.077  0.1052  0.2504 -0.2751
15109TIP3    H166818   5.468   3.073  16.068 -1.1723  1.2433  0.1345
15109TIP3    H266819   5.547   3.173  15.986  0.8971 -0.7880 -0.4507
15110TIP3   OH266820   0.372   1.179  11.308 -0.2594  0.4277  0.2936
15110TIP3    H166821   0.397   1.180  11.401 -0.9389  0.1824  0.4892
15110TIP3    H266822   0.344   1.269  11.290  1.1443  0.8232 -0.0516
15111TIP3   OH266823   5.115   4.953   2.193 -0.6052 -0.2351  0.6061
15111TIP3    H166824   5.103   5.046   2.173 -0.8869 -0.5494 -0.8097
15111TIP3    H266825   5.045   4.932   2.254 -1.5414  0.1255 -0.3166
15112TIP3   OH266826   3.738   4.488   3.424  0.0482  0.2554  0.4768
15112TIP3    H166827   3.664   4.549   3.425 -0.4737 -0.3581  1.0443
15112TIP3    H266828   3.735   4.448   3.337 -1.2284 -0.8336  0.9727
15113TIP3   OH266829   6.745   3.961  12.785  0.3786  0.0984  0.2658
15113TIP3    H166830   6.764   3.871  12.756 -1.4304  0.0899 -1.0929
15113TIP3    H266831   6.730   3.953  12.879  2.8285 -0.5193  0.6776
15114TIP3   OH266832   1.099   1.664   3.105  0.1426  0.6960 -0.4281
15114TIP3    H166833   1.138   1.592   3.154  0.0199  1.0975  0.2645
15114TIP3    H266834   1.019   1.627   3.067  0.6912  0.1396 -1.0677
15115TIP3   OH266835   0.545   4.115  16.630  0.4380  0.0998 -0.4809
15115TIP3    H166836   0.470   4.159  16.590  0.2921  0.4655  0.1779
15115TIP3    H266837   0.515   4.092  16.718  0.8029 -0.5501 -0.5206
15116TIP3   OH266838   2.130   5.720   5.700 -0.3534  0.2196 -0.3369
15116TIP3    H166839   2.073   5.649   5.670  0.3428 -0.5697  0.1568
15116TIP3    H266840   2.072   5.777   5.750 -0.8178 -0.2788 -0.2932
15117TIP3   OH266841   5.116   5.003  14.451 -0.7889  0.4372  0.5020
15117TIP3    H166842   5.137   4.917  14.415 -2.3795  0.8185 -1.5269
15117TIP3    H266843   5.039   4.988  14.506 -1.7531  0.6915 -0.7385
15118TIP3   OH266844   0.874   5.583   4.516 -0.5834  0.0993 -0.4708
15118TIP3    H166845   0.825   5.543   4.444 -0.5735  1.1598 -1.0973
15118TIP3    H266846   0.828   5.665   4.533  1.1973  1.3503 -1.3856
15119TIP3   OH266847   6.128   4.392  16.578  0.1571  0.0016 -0.1995
15119TIP3    H166848   6.060   4.416  16.641  1.7912 -0.2242  1.7588
15119TIP3    H266849   6.168   4.313  16.614  1.5350  0.1953 -1.2122
15120TIP3   OH266850   3.941   3.655  13.139 -0.2946 -0.0067 -0.0943
15120TIP3    H166851   3.920   3.563  13.155 -0.9996 -0.2153 -2.0335
15120TIP3    H266852   3.861   3.693  13.102 -0.1341  1.4973  0.9782
15121TIP3   OH266853   4.120   3.452  15.918  0.1255 -0.2903  0.1757
15121TIP3    H166854   4.139   3.473  15.826 -2.7679 -1.4072 -0.8086
15121TIP3    H266855   4.157   3.365  15.930  0.2324 -0.2793 -0.0547
15122TIP3   OH266856   3.666   5.477  16.851 -0.3662 -0.1478  0.3283
15122TIP3    H166857   3.613   5.547  16.890 -0.4978  0.4110 -0.8190
15122TIP3    H266858   3.696   5.513  16.768 -0.5766 -1.5105 -0.3636
15123TIP3   OH266859   4.008   4.104  14.767 -0.3609  0.2200 -0.5320
15123TIP3    H166860   3.939   4.059  14.719 -0.9672  1.0410 -0.4546
15123TIP3    H266861   3.973   4.191  14.784  0.0532  0.1352  0.9160
15124TIP3   OH266862   3.477   0.516   3.313 -0.0605 -0.5717  0.3747
15124TIP3    H166863   3.474   0.557   3.227 -1.2337 -2.1236 -0.3768
15124TIP3    H266864   3.566   0.531   3.344  1.0681 -1.8231 -2.0448
15125TIP3   OH266865   0.563   5.214   1.839 -0.0876  0.1306 -0.4299
15125TIP3    H166866   0.649   5.254   1.847 -0.6618  1.4692 -0.5633
15125TIP3    H266867   0.539   5.225   1.747 -0.3596 -0.3323 -0.4196
15126TIP3   OH266868   0.203   6.464   1.556  0.3791 -0.2766 -0.0426
15126TIP3    H166869   0.258   6.509   1.492 -0.0124  0.9804  0.4806
15126TIP3    H266870   0.121   6.447   1.510 -0.3697  1.7455  0.4495
15127TIP3   OH266871   5.183   0.275   2.681 -0.0508 -0.6497 -0.3733
15127TIP3    H166872   5.225   0.190   2.666  0.5828 -0.2843 -0.6827
15127TIP3    H266873   5.122   0.258   2.753  1.3182 -0.9675  0.7574
15128TIP3   OH266874   2.363   1.618  13.906  0.9851  0.0084 -0.1558
15128TIP3    H166875   2.370   1.699  13.856 -1.0964  0.7870  0.7218
15128TIP3    H266876   2.407   1.636  13.989  1.0896  0.0230 -0.2143
15129TIP3   OH266877   2.032   6.251  17.019  0.0744  0.5029  0.7574
15129TIP3    H166878   2.053   6.202  16.940  0.8285 -0.2828  1.4275
15129TIP3    H266879   2.002   6.185  17.081  0.4624  0.9686  1.4548
15130TIP3   OH266880   5.968   2.850   3.930  0.0774  0.1165  0.5218
15130TIP3    H166881   6.062   2.846   3.948 -0.0417  0.4160  1.2187
15130TIP3    H266882   5.928   2.873   4.013 -0.8762 -2.5132  0.8922
15131TIP3   OH266883   6.698   2.743  16.009  0.6393 -0.3084  0.7232
15131TIP3    H166884   6.658   2.769  15.926 -0.5425  0.4085  1.4974
15131TIP3    H266885   6.755   2.669  15.986  0.3465 -0.1139 -0.7181
15132TIP3   OH266886   5.987   2.793   5.559  0.0930  0.1549 -0.1481
15132TIP3    H166887   5.907   2.741   5.561 -1.8544  2.9194  0.5059
15132TIP3    H266888   6.057   2.732   5.582 -1.7856 -2.3752 -0.7481
15133TIP3   OH266889   4.470   6.381   1.233 -0.0566 -0.0748  0.6724
15133TIP3    H166890   4.390   6.415   1.193 -0.0587 -0.0567  0.6925
15133TIP3    H266891   4.541   6.416   1.178 -0.0380  0.2648  0.9095
15134TIP3   OH266892   6.281   6.154   5.807 -0.1394  0.3233  0.7349
15134TIP3    H166893   6.279   6.248   5.792 -1.1921  0.5417  2.0884
15134TIP3    H266894   6.262   6.143   5.900  1.1203 -1.1814  0.8738
15135TIP3   OH266895   2.239   4.972  14.079 -0.2709  0.3285 -0.2029
15135TIP3    H166896   2.243   4.886  14.038 -0.3341 -0.7874  1.9656
15135TIP3    H266897   2.330   4.993  14.100 -0.4818 -0.9045  2.3782
15136TIP3   OH266898   4.045   6.302   5.478  0.2909 -0.9901 -0.3528
15136TIP3    H166899   4.118   6.359   5.503 -0.8073  1.4423 -2.2780
15136TIP3    H266900   4.081   6.214   5.484  3.2333  0.0611 -0.6655
15137TIP3   OH266901   4.376   3.362  14.109  0.3243 -0.2949  0.2113
15137TIP3    H166902   4.387   3.279  14.064 -1.3138  0.5893 -2.0158
15137TIP3    H266903   4.419   3.426  14.052 -0.0361  0.6125  0.9393
15138TIP3   OH266904   0.266   0.471  13.895 -0.1611 -0.2508  0.4345
15138TIP3    H166905   0.344   0.525  13.904 -0.5866  0.2285  1.3746
15138TIP3    H266906   0.228   0.497  13.811  0.4539 -0.1868  0.1710
15139TIP3   OH266907   2.283   6.293  12.352 -0.2143  0.4344 -0.0914
15139TIP3    H166908   2.271   6.221  12.413 -0.0758  0.1231 -0.4310
15139TIP3    H266909   2.328   6.254  12.277  1.8982  1.3120  0.6323
15140TIP3   OH266910   1.499   0.104  12.807  0.1007  0.1091 -0.3611
15140TIP3    H166911   1.557   0.168  12.848  0.5026  1.2878 -2.6055
15140TIP3    H266912   1.417   0.151  12.793  0.4817  0.3077 -2.2643
15141TIP3   OH266913   1.241   5.586   2.539 -0.3802  0.1621  0.2074
15141TIP3    H166914   1.163   5.617   2.585 -1.8570 -2.2004 -0.5110
15141TIP3    H266915   1.215   5.584   2.447  1.1334  0.9486 -0.2678
15142TIP3   OH266916   5.697   4.084   0.959  0.2011  0.5757 -0.2134
15142TIP3    H166917   5.670   4.157   0.903 -1.4273  0.5231  0.4595
15142TIP3    H266918   5.792   4.092   0.964  0.3036  1.1544 -2.1828
15143TIP3   OH266919   5.171   0.987   5.755 -0.2897 -0.2441  0.5313
15143TIP3    H166920   5.250   1.009   5.706 -1.8043  2.9271 -0.8123
15143TIP3    H266921   5.166   1.055   5.822 -3.0357  1.1976 -0.9779
15144TIP3   OH266922   3.902   4.453   1.742 -0.6504 -0.3211 -0.8923
15144TIP3    H166923   3.929   4.418   1.657  0.5755 -0.4197 -0.4898
15144TIP3    H266924   3.953   4.404   1.806  1.6075  2.4652 -0.3150
15145TIP3   OH266925   4.144   5.490  16.051  0.1749  0.2883 -0.0290
15145TIP3    H166926   4.153   5.395  16.056 -2.7121 -0.0306  1.1698
15145TIP3    H266927   4.121   5.507  15.959 -1.0724 -0.4389  0.1142
15146TIP3   OH266928   5.333   5.262  16.784 -0.0328 -0.6130 -0.1582
15146TIP3    H166929   5.412   5.294  16.740  0.3268 -0.1077  0.8135
15146TIP3    H266930   5.360   5.181  16.826  0.8669  0.9808  2.6217
15147TIP3   OH266931   5.900   2.757  12.494 -0.0293 -0.4046  0.1131
15147TIP3    H166932   5.954   2.699  12.548  0.4373 -0.5116 -0.4596
15147TIP3    H266933   5.958   2.785  12.424  0.6216  2.7991  1.7169
15148TIP3   OH266934   6.552   5.525   5.498  0.4433 -0.0145  0.0633
15148TIP3    H166935   6.560   5.455   5.563 -0.6381 -0.4636 -0.2581
15148TIP3    H266936   6.591   5.602   5.540  0.6525 -0.5358  0.8514
15149TIP3   OH266937   5.381   3.311   1.277  0.1246 -0.4612 -0.6912
15149TIP3    H166938   5.365   3.328   1.184  1.3052 -2.0227 -1.2169
15149TIP3    H266939   5.477   3.308   1.284  0.0619  0.0983  0.6834
15150TIP3   OH266940   3.509   1.887  11.531  0.5086  0.0229  0.1295
15150TIP3    H166941   3.574   1.889  11.602  2.2784  0.0615 -1.4234
15150TIP3    H266942   3.443   1.825  11.562 -0.2050  1.9899  2.9458
15151TIP3   OH266943   4.655   5.659  14.496 -0.5795  0.5681 -0.2295
15151TIP3    H166944   4.658   5.733  14.557 -1.5094 -0.2011  0.7997
15151TIP3    H266945   4.586   5.602  14.531  1.0351 -1.4739 -0.2110
15152TIP3   OH266946   0.879   4.728  15.049 -0.6928 -0.1602 -0.2189
15152TIP3    H166947   0.904   4.681  14.970 -1.1649 -1.9031  0.6188
15152TIP3    H266948   0.816   4.794  15.019 -0.1166 -0.1256 -1.4130
15153TIP3   OH266949   0.689   4.990   4.303  0.5470  0.3500  0.1033
15153TIP3    H166950   0.750   5.042   4.251 -0.0080  0.3646 -0.5458
15153TIP3    H266951   0.623   4.960   4.240 -0.7120  1.2252  0.9545
15154TIP3   OH266952   1.450   0.138   2.632  0.4074 -0.3556  0.1016
15154TIP3    H166953   1.359   0.109   2.623  0.6669 -1.3152  0.3877
15154TIP3    H266954   1.449   0.202   2.702 -0.1928  0.3443 -0.5342
15155TIP3   OH266955   6.352   5.490   4.167  0.0931  0.0025 -0.4652
15155TIP3    H166956   6.331   5.451   4.252 -0.7814 -0.4526 -0.8836
15155TIP3    H266957   6.327   5.424   4.103  1.6707 -0.0677 -1.0617
15156TIP3   OH266958   3.111   5.429   0.566 -0.6147  0.0883  0.3604
15156TIP3    H166959   3.043   5.382   0.613 -1.1971  1.5769  1.0516
15156TIP3    H266960   3.163   5.472   0.634 -1.2006  1.9155 -0.2951
15157TIP3   OH266961   1.680   5.268   1.832  0.0403  0.3832  0.1347
15157TIP3    H166962   1.734   5.196   1.798 -0.0426  0.7978 -0.9309
15157TIP3    H266963   1.624   5.227   1.898 -0.3402 -0.6430 -0.7891
15158TIP3   OH266964   0.581   1.908   5.830 -0.5571 -0.2275 -0.0271
15158TIP3    H166965   0.551   1.978   5.772 -1.1247 -1.2881 -1.0662
15158TIP3    H266966   0.667   1.936   5.860 -0.0440  0.1701 -1.7566
15159TIP3   OH266967   6.675   1.228  16.445 -0.4032 -0.7577 -0.3031
15159TIP3    H166968   6.761   1.202  16.412  1.6534  2.7777  1.6186
15159TIP3    H266969   6.660   1.171  16.520 -0.0790 -1.8269 -1.0237
15160TIP3   OH266970   5.950   4.574   1.171  0.0877  0.2138 -0.4302
15160TIP3    H166971   6.038   4.611   1.173  0.0516  0.2942  1.3055
15160TIP3    H266972   5.894   4.643   1.204 -0.8562  0.5763 -2.5877
15161TIP3   OH266973   0.962   3.998   4.446  1.0046 -0.4983 -0.2083
15161TIP3    H166974   0.961   4.012   4.352  2.7160 -0.7410 -0.2888
15161TIP3    H266975   1.036   3.940   4.461  1.8859  0.9450  1.4520
15162TIP3   OH266976   5.407   1.823  15.973 -0.1458  0.0214  0.4167
15162TIP3    H166977   5.325   1.865  15.998 -0.1261  1.3309 -1.5146
15162TIP3    H266978   5.476   1.877  16.012 -0.1667  0.6439 -0.3814
15163TIP3   OH266979   3.753   0.368   5.003 -0.2000 -0.2136  0.2638
15163TIP3    H166980   3.801   0.285   4.999  0.3011  0.0593  0.4799
15163TIP3    H266981   3.667   0.348   4.968  0.0291 -0.7490 -0.0063
15164TIP3   OH266982   0.496   4.322   2.647  0.5088 -0.0918  0.1119
15164TIP3    H166983   0.417   4.374   2.663  0.1483 -0.8764  1.0171
15164TIP3    H266984   0.471   4.263   2.576  1.2055  1.5077 -1.5494
15165TIP3   OH266985   2.198   6.775  11.092 -0.6958  0.4177 -0.6853
15165TIP3    H166986   2.293   6.791  11.087 -0.6887  1.7203  1.7651
15165TIP3    H266987   2.191   6.691  11.138 -0.6473  1.2169  0.8786
15166TIP3   OH266988   2.290   2.335  10.582 -0.1229 -0.2727  0.5101
15166TIP3    H166989   2.380   2.337  10.613  0.9395 -0.2797 -2.2868
15166TIP3    H266990   2.298   2.330  10.486 -3.0958  0.9231  0.1095
15167TIP3   OH266991   4.259   1.192  14.388 -0.2879  0.7305 -0.5710
15167TIP3    H166992   4.306   1.238  14.458  0.9815 -1.8839  0.4102
15167TIP3    H266993   4.168   1.191  14.418 -0.0586  1.1964  0.1750
15168TIP3   OH266994   6.162   1.235   5.315 -0.1971  0.4125 -0.1998
15168TIP3    H166995   6.072   1.212   5.338 -0.6668  1.6298 -0.7086
15168TIP3    H266996   6.155   1.275   5.228  0.6875  1.3768  0.1448
15169TIP3   OH266997   4.348   5.207   1.751 -0.2642 -0.3573  0.0697
15169TIP3    H166998   4.373   5.122   1.787  1.7878 -0.4208 -1.3899
15169TIP3    H266999   4.404   5.270   1.797 -2.7139  0.4829  2.1607
15170TIP3   OH267000   3.783   6.537  13.758  0.6683 -0.1218 -0.0109
15170TIP3    H167001   3.749   6.626  13.753  0.7329 -0.1418 -1.0726
15170TIP3    H267002   3.726   6.486  13.701 -1.0662 -1.3634  2.6215
15171TIP3   OH267003   1.320   3.897   1.335  0.1129 -0.3900 -0.1740
15171TIP3    H167004   1.312   3.932   1.424 -1.6483  0.0175 -0.4406
15171TIP3    H267005   1.325   3.802   1.347 -0.5740 -0.3677  0.3614
15172TIP3   OH267006   2.742   3.540   3.444  0.4531 -0.0850  0.1685
15172TIP3    H167007   2.666   3.593   3.468 -1.2139 -2.6727  0.9386
15172TIP3    H267008   2.817   3.594   3.470 -1.1528  1.5705  1.6723
15173TIP3   OH267009   0.172   1.009   5.540  0.2178 -0.2628  0.0192
15173TIP3    H167010   0.223   0.934   5.510  1.5852  0.6820 -0.1023
15173TIP3    H267011   0.089   1.002   5.492  0.8616 -0.9197 -1.0473
15174TIP3   OH267012   3.257   1.928   2.270 -0.2108 -0.2701  0.5715
15174TIP3    H167013   3.172   1.956   2.305 -0.7758 -2.5027  1.1995
15174TIP3    H267014   3.261   1.834   2.290  0.9756 -0.9599 -2.3540
15175TIP3   OH267015   1.575   3.041   1.011 -0.6898 -0.2025 -0.5428
15175TIP3    H167016   1.536   3.126   1.034 -1.8478 -0.9264  0.2815
15175TIP3    H267017   1.519   3.007   0.941 -0.8227 -0.6961 -0.2063
15176TIP3   OH267018   2.324   0.605   3.747  0.1092 -0.5942 -0.3225
15176TIP3    H167019   2.351   0.519   3.781  0.3857 -0.5452 -0.4180
15176TIP3    H267020   2.388   0.625   3.678 -0.6298 -0.8401 -1.0965
15177TIP3   OH267021   6.291   2.114  16.560 -0.2145  0.0003 -0.0664
15177TIP3    H167022   6.218   2.071  16.605 -1.5536  0.6535 -1.5272
15177TIP3    H267023   6.369   2.068  16.591 -1.2620 -0.9481  1.2816
15178TIP3   OH267024   5.420   3.210   5.314  0.7531 -0.2557 -0.3400
15178TIP3    H167025   5.443   3.288   5.264  0.2485 -0.5578 -1.0670
15178TIP3    H267026   5.458   3.224   5.401  1.8021  0.2008 -0.8582
15179TIP3   OH267027   6.062   2.200   4.563 -0.1420 -0.6155  0.0176
15179TIP3    H167028   6.006   2.172   4.635 -1.1388  1.9631  0.3468
15179TIP3    H267029   6.035   2.146   4.489 -1.9162 -0.5576  0.5838
15180TIP3   OH267030   6.517   5.488  13.110 -0.4397 -0.2118 -0.7680
15180TIP3    H167031   6.553   5.483  13.199  0.7734 -4.4440 -1.2751
15180TIP3    H267032   6.423   5.493  13.123 -0.3452 -1.6774  0.8356
15181TIP3   OH267033   3.962   3.043  14.543  0.4733 -0.0293  0.0545
15181TIP3    H167034   4.034   3.092  14.583  0.9291 -0.3295 -0.3996
15181TIP3    H267035   4.001   2.997  14.469  0.1149 -1.3426  0.6537
15182TIP3   OH267036   4.692   1.627  14.149  0.8282  0.1081  0.3244
15182TIP3    H167037   4.686   1.567  14.075  3.6401 -2.1926  1.7848
15182TIP3    H267038   4.651   1.580  14.221 -0.4474  1.6645  0.6720
15183TIP3   OH267039   1.163   5.316  12.941 -0.1522 -0.0908  0.4252
15183TIP3    H167040   1.097   5.384  12.946  1.4265  1.4818  1.0912
15183TIP3    H267041   1.114   5.235  12.934 -2.1184  1.1623 -1.6516
15184TIP3   OH267042   5.989   1.106   2.040 -0.3047 -0.1027  0.5606
15184TIP3    H167043   6.019   1.189   2.076  0.0511 -0.9346  2.3238
15184TIP3    H267044   6.066   1.049   2.045 -0.7010 -0.7037 -0.0561
15185TIP3   OH267045   3.189   6.629   5.097 -0.5076 -0.0854  0.2388
15185TIP3    H167046   3.214   6.717   5.067  0.3515  0.3467  2.1003
15185TIP3    H267047   3.144   6.591   5.021  2.4109  0.4973 -1.9986
15186TIP3   OH267048   1.410   1.761   1.721 -0.1288  0.0589  0.0661
15186TIP3    H167049   1.362   1.844   1.720  1.3264  1.0113  1.8109
15186TIP3    H267050   1.408   1.734   1.813  2.2405 -0.0471  0.1422
15187TIP3   OH267051   1.237   1.094  16.997  0.2182 -0.4056 -0.6184
15187TIP3    H167052   1.182   1.165  17.030  1.5582  0.3805 -0.0367
15187TIP3    H267053   1.215   1.088  16.904  1.0139  1.6413 -0.9699
15188TIP3   OH267054   4.139   6.575   1.442 -0.3019  0.1297 -0.3727
15188TIP3    H167055   4.221   6.582   1.491 -2.3703 -0.0196  3.5069
15188TIP3    H267056   4.127   6.481   1.428 -0.8167 -0.0540  1.1195
15189TIP3   OH267057   4.782   6.692  15.415  0.4367  0.1691 -0.6617
15189TIP3    H167058   4.729   6.697  15.335 -0.5946 -0.5329 -0.0395
15189TIP3    H267059   4.809   6.600  15.420  0.5584  0.2274 -0.2443
15190TIP3   OH267060   4.265   5.654   5.919 -0.2618 -0.4645 -0.6688
15190TIP3    H167061   4.216   5.580   5.954  1.9442 -0.9236  1.7563
15190TIP3    H267062   4.208   5.730   5.933 -0.9772 -1.1882  0.4648
15191TIP3   OH267063   1.927   2.577   0.072  0.1777  0.7190 -0.0957
15191TIP3    H167064   1.935   2.557  -0.021 -2.4305  1.0018 -0.4727
15191TIP3    H267065   1.856   2.641   0.076  1.5400  2.2180  1.9508
15192TIP3   OH267066   1.742   1.353  11.920 -0.0169  0.5765  0.0746
15192TIP3    H167067   1.695   1.269  11.923  1.3547 -0.2759 -1.0931
15192TIP3    H267068   1.719   1.390  11.834 -0.2567  1.2001  0.4007
15193TIP3   OH267069   0.697   4.745  14.630  0.4407 -0.2022 -0.1883
15193TIP3    H167070   0.789   4.747  14.657  0.4518 -0.8448 -0.1588
15193TIP3    H267071   0.654   4.689  14.696 -0.1462  0.7996  0.3095
15194TIP3   OH267072   4.011   6.763   0.356  0.0331 -0.5473 -1.0013
15194TIP3    H167073   4.025   6.855   0.336  2.3944 -0.0484  2.2441
15194TIP3    H267074   3.927   6.760   0.401  1.7225  0.8696  2.6101
15195TIP3   OH267075   4.697   1.963   6.234 -0.2825  0.0330 -0.0920
15195TIP3    H167076   4.607   1.969   6.265 -0.5074  2.1754 -1.0208
15195TIP3    H267077   4.746   2.019   6.295  0.4526 -1.1050  0.3969
15196TIP3   OH267078   1.421   4.036  11.931 -0.4144 -0.4974 -0.0277
15196TIP3    H167079   1.464   4.119  11.954 -1.2033  0.3421 -1.4086
15196TIP3    H267080   1.444   3.976  12.002  2.4724  0.0734 -0.3906
15197TIP3   OH267081   1.953   1.987  13.002 -0.2037 -0.0958 -0.3975
15197TIP3    H167082   1.858   1.998  12.996  0.0975  2.7392 -1.4120
15197TIP3    H267083   1.983   2.064  13.050  1.5584 -1.2424  0.4111
15198TIP3   OH267084   5.497   5.306  16.368 -0.2203 -0.1446 -0.1896
15198TIP3    H167085   5.469   5.294  16.277  0.0024 -3.6199  0.0757
15198TIP3    H267086   5.589   5.279  16.368 -0.0136  0.5074  0.9511
15199TIP3   OH267087   5.273   3.855  15.787  0.1079  0.1868 -0.4448
15199TIP3    H167088   5.187   3.875  15.824  1.1394  1.3335  1.5110
15199TIP3    H267089   5.316   3.801  15.854  1.3360  0.6557 -0.8283
15200TIP3   OH267090   3.477   5.721  16.819 -0.5504 -0.3384  0.1372
15200TIP3    H167091   3.446   5.674  16.742 -0.7269  0.7094 -0.4435
15200TIP3    H267092   3.399   5.735  16.872 -0.7333  0.4755 -0.3356
15201TIP3   OH267093   1.702   6.073   2.460 -0.4232  0.2960 -0.3266
15201TIP3    H167094   1.661   5.987   2.460  0.7574 -0.3112  1.3615
15201TIP3    H267095   1.657   6.121   2.529  0.7627  0.0760  0.6230
15202TIP3   OH267096   0.713   2.789   3.751 -0.1834  0.7018  0.6239
15202TIP3    H167097   0.649   2.718   3.749 -1.1297  1.5303 -2.2279
15202TIP3    H267098   0.663   2.867   3.731  1.4557  1.6358 -0.0179
15203TIP3   OH267099   3.042   2.375  15.994  0.3833 -0.1809 -0.4017
15203TIP3    H167100   3.072   2.382  15.903  1.8869  1.3718  0.1482
15203TIP3    H267101   3.114   2.331  16.040  0.3181  0.4346  0.3087
15204TIP3   OH267102   6.370   1.322  15.934  0.0438  0.0473 -0.0232
15204TIP3    H167103   6.396   1.234  15.962 -2.4628 -1.2236 -1.3647
15204TIP3    H267104   6.377   1.320  15.839 -0.8780  1.0123 -0.1202
15205TIP3   OH267105   1.110   4.228   6.467 -0.1333  0.2770  0.4198
15205TIP3    H167106   1.046   4.191   6.528 -0.1582  0.2478  0.3767
15205TIP3    H267107   1.173   4.157   6.453 -0.5512  0.0109 -0.1868
15206TIP3   OH267108   1.485   0.413  13.335 -0.7247  0.1449  0.1346
15206TIP3    H167109   1.556   0.468  13.366  0.2759 -1.9062  1.7035
15206TIP3    H267110   1.502   0.403  13.241 -0.4155  1.6897 -0.0032
15207TIP3   OH267111   5.588   1.401   3.724  0.4745  0.3746  0.2030
15207TIP3    H167112   5.603   1.323   3.669 -0.5256  0.2750  0.0579
15207TIP3    H267113   5.556   1.366   3.807  0.1422  0.6300  0.1820
15208TIP3   OH267114   2.314   5.561   1.338  0.8590  0.3691 -0.1930
15208TIP3    H167115   2.401   5.528   1.358 -0.1491 -1.8272  0.8563
15208TIP3    H267116   2.322   5.656   1.345  2.5615  0.1162  2.6272
15209TIP3   OH267117   4.562   0.191   0.447 -0.2186 -0.2968  0.2142
15209TIP3    H167118   4.647   0.175   0.406 -0.7091 -1.3556 -0.4499
15209TIP3    H267119   4.582   0.245   0.523  1.1066 -0.9062  0.3386
15210TIP3   OH267120   4.309   1.251   3.080 -0.3964  0.1884 -0.7239
15210TIP3    H167121   4.390   1.262   3.031  0.8126  2.6280  1.5662
15210TIP3    H267122   4.269   1.338   3.081 -0.6893  0.1190  1.8941
15211TIP3   OH267123   6.397   0.677  15.846 -0.2397 -0.0458 -0.0616
15211TIP3    H167124   6.484   0.664  15.807  0.2299  0.0050  0.9536
15211TIP3    H267125   6.390   0.610  15.913 -0.9661 -0.0050 -0.0860
15212TIP3   OH267126   0.455   3.697   3.823 -0.0094 -0.3065 -0.1779
15212TIP3    H167127   0.470   3.611   3.861  0.4139  0.0098  0.3967
15212TIP3    H267128   0.390   3.683   3.754 -0.8298 -0.8780  0.7036
15213TIP3   OH267129   4.749   0.723   6.456  0.0530  0.1835  0.4041
15213TIP3    H167130   4.705   0.677   6.384 -0.1454  0.1076  0.5727
15213TIP3    H267131   4.733   0.669   6.533  2.0358 -0.8395  0.1544
15214TIP3   OH267132   6.422   5.033  11.906  0.7141 -0.1313  0.6926
15214TIP3    H167133   6.515   5.013  11.893  0.7721  0.1599  0.6423
15214TIP3    H267134   6.381   5.008  11.823  0.9590  0.9721  0.2133
15215TIP3   OH267135   4.944   0.871  16.930  0.6295 -0.1022 -0.7587
15215TIP3    H167136   4.942   0.777  16.912 -0.3277  0.3168 -3.1995
15215TIP3    H267137   4.932   0.878  17.024  0.7107 -2.4199 -0.5286
15216TIP3   OH267138   0.423   0.044   4.522  0.3575  0.7513 -0.0254
15216TIP3    H167139   0.464   0.028   4.608  0.5009  2.5016  0.2804
15216TIP3    H267140   0.439  -0.036   4.473  0.5859 -0.1672  1.4649
15217TIP3   OH267141   6.796   5.490  16.499 -0.8265 -0.0404  0.2000
15217TIP3    H167142   6.741   5.558  16.538  0.0079  0.1433  1.0863
15217TIP3    H267143   6.747   5.462  16.422 -2.4082 -0.2118  1.2049
15218TIP3   OH267144   4.998   6.797   3.087 -0.0216  0.3314 -0.2951
15218TIP3    H167145   4.940   6.754   3.149 -2.3025  1.3669 -1.5460
15218TIP3    H267146   4.986   6.748   3.005  1.5431  0.0781 -0.4028
15219TIP3   OH267147   1.130   1.131   4.598 -0.2309  0.2622  0.2990
15219TIP3    H167148   1.079   1.175   4.666 -1.4280 -2.2020  1.1373
15219TIP3    H267149   1.065   1.093   4.540  0.6848 -1.0778  0.1113
15220TIP3   OH267150   1.212   1.732   6.030  0.5602  0.2431 -0.1093
15220TIP3    H167151   1.267   1.662   6.065 -0.5774 -0.2335  0.7753
15220TIP3    H267152   1.252   1.753   5.945  1.0554 -1.3313 -0.3064
15221TIP3   OH267153   3.288   4.296   2.585 -0.2508  0.7820 -0.2048
15221TIP3    H167154   3.320   4.261   2.668  0.1015 -0.5306 -0.8642
15221TIP3    H267155   3.365   4.297   2.528 -0.8837 -0.3611 -1.1405
15222TIP3   OH267156   4.151   4.338  13.671  0.1514  0.7256 -0.3695
15222TIP3    H167157   4.204   4.412  13.642  1.0235  0.4995  0.6238
15222TIP3    H267158   4.161   4.336  13.766  0.3642 -0.8230 -0.3999
15223TIP3   OH267159   0.041   4.774  16.912  0.2733  0.3889  0.0535
15223TIP3    H167160   0.110   4.711  16.934 -0.5774 -0.9055 -0.8134
15223TIP3    H267161   0.040   4.777  16.817 -0.4034  0.9334  0.0711
15224TIP3   OH267162   5.118   6.021   2.619  0.1700 -0.0157 -0.4336
15224TIP3    H167163   5.063   6.002   2.543 -1.1915  1.1634  0.1929
15224TIP3    H267164   5.203   6.042   2.583 -0.9485  2.4785 -1.8573
15225TIP3   OH267165   6.171   4.492  13.037 -0.2399 -0.0294 -0.5150
15225TIP3    H167166   6.128   4.577  13.049 -2.0129 -1.0359  0.7214
15225TIP3    H267167   6.165   4.476  12.942 -1.5046  0.4313 -0.5320
15226TIP3   OH267168   3.565   6.120  13.204 -0.4298  0.0759  0.4236
15226TIP3    H167169   3.492   6.156  13.254 -0.1713  1.7048 -0.3185
15226TIP3    H267170   3.557   6.025  13.215 -2.0173  0.2720  1.2246
15227TIP3   OH267171   4.649   4.058  13.651 -0.1553 -0.2122  0.2381
15227TIP3    H167172   4.702   3.998  13.704  0.3127 -1.2550 -1.3406
15227TIP3    H267173   4.692   4.142  13.661  1.4468 -0.9034 -0.4550
15228TIP3   OH267174   4.759   0.352  15.724 -0.5799 -0.0449 -0.1446
15228TIP3    H167175   4.820   0.357  15.651  2.7236 -1.5569  2.2491
15228TIP3    H267176   4.724   0.263  15.722 -0.5184 -0.0761  0.0647
15229TIP3   OH267177   4.064   6.771  15.599  0.1659  0.4454  0.5645
15229TIP3    H167178   4.099   6.859  15.610  0.1429  0.6450 -0.8012
15229TIP3    H267179   3.980   6.785  15.554  0.5125 -0.3044 -0.3407
15230TIP3   OH267180   4.571   4.812   2.815 -0.3554 -0.1149 -0.4049
15230TIP3    H167181   4.487   4.768   2.799 -1.4109  1.0567  1.4986
15230TIP3    H267182   4.548   4.904   2.824  1.0848  0.1806  0.4875
15231TIP3   OH267183   5.974   0.118   4.853  0.3377  0.0806  0.0867
15231TIP3    H167184   5.980   0.025   4.829 -1.9631 -0.4825  1.4631
15231TIP3    H267185   5.935   0.159   4.776 -0.9962 -0.5738  0.3845
15232TIP3   OH267186   0.075   4.568   3.871  0.4311  0.2746  0.0246
15232TIP3    H167187   0.141   4.628   3.837 -0.0114  0.1843 -1.0353
15232TIP3    H267188   0.004   4.624   3.902  0.1376  0.3190 -0.7105
15233TIP3   OH267189   1.147   2.835  16.350  0.1248  0.1468  0.3668
15233TIP3    H167190   1.077   2.857  16.289  0.7899  0.2558 -0.3625
15233TIP3    H267191   1.152   2.911  16.409 -1.0381 -0.2880  1.0710
15234TIP3   OH267192   4.069   0.963  10.276 -0.5818 -0.4867 -0.1273
15234TIP3    H167193   4.046   0.870  10.278 -0.9694 -0.3796  0.5720
15234TIP3    H267194   3.986   1.009  10.266 -0.5031 -0.1830  0.5073
15235TIP3   OH267195   0.574   3.551  16.143  0.0402 -0.1694  0.3583
15235TIP3    H167196   0.529   3.626  16.104  1.5631  0.8624  0.5407
15235TIP3    H267197   0.590   3.577  16.234  0.5720 -0.7159  0.4268
15236TIP3   OH267198   2.126   1.274   3.237  0.3743  0.1171  0.2815
15236TIP3    H167199   2.113   1.180   3.243 -1.5317  0.4055  1.0912
15236TIP3    H267200   2.193   1.284   3.169  1.1262 -1.8277  0.6661
15237TIP3   OH267201   0.697   4.847  12.609 -0.2445  0.2973 -0.0467
15237TIP3    H167202   0.632   4.915  12.628 -0.8904 -0.0727 -0.8580
15237TIP3    H267203   0.756   4.888  12.546 -0.4243  0.2231 -0.2638
15238TIP3   OH267204   2.380   1.658   3.050 -0.1700  0.2032 -0.1827
15238TIP3    H167205   2.374   1.628   2.959 -1.1154  0.3325 -0.1700
15238TIP3    H267206   2.312   1.608   3.096 -0.0191  0.4918  0.3601
15239TIP3   OH267207   1.442   5.557   5.224 -0.4740  0.2414  0.4092
15239TIP3    H167208   1.374   5.620   5.246  0.1030  0.6577  1.0202
15239TIP3    H267209   1.462   5.514   5.307  0.1369  0.2443  0.2636
15240TIP3   OH267210   0.953   4.147   5.282 -0.1870  0.7827 -0.3031
15240TIP3    H167211   0.910   4.075   5.328  2.8365 -0.0722  1.4692
15240TIP3    H267212   0.923   4.226   5.327 -2.8030  0.6342 -1.6535
15241TIP3   OH267213   5.756   0.368   6.420 -0.1722  0.0379 -0.6602
15241TIP3    H167214   5.823   0.430   6.392 -0.3316  0.0728 -0.9767
15241TIP3    H267215   5.705   0.415   6.485  1.4372 -0.7110  1.2466
15242TIP3   OH267216   4.284   1.938   2.385  0.5355 -0.6242 -0.5337
15242TIP3    H167217   4.241   1.945   2.300 -0.8569  2.3754  0.2638
15242TIP3    H267218   4.368   1.981   2.374  0.3804 -0.2896 -0.4400
15243TIP3   OH267219   2.633   3.850   0.487  0.1849  0.3065 -0.5894
15243TIP3    H167220   2.721   3.880   0.510  0.0861  2.8115 -2.9552
15243TIP3    H267221   2.643   3.807   0.403 -0.7584 -0.0304 -0.5441
15244TIP3   OH267222   3.449   2.858   0.514 -0.4968 -0.3624  0.5985
15244TIP3    H167223   3.473   2.767   0.532  2.6795  0.3539  0.5795
15244TIP3    H267224   3.480   2.907   0.590  0.2707  0.9677 -0.5069
15245TIP3   OH267225   3.503   2.710   5.249 -0.2556 -0.0479  0.2538
15245TIP3    H167226   3.593   2.712   5.216 -0.2447 -0.2947  0.2676
15245TIP3    H267227   3.494   2.792   5.298  0.4945 -0.7489  1.6382
15246TIP3   OH267228   3.173   2.141  13.456  0.3639  0.0597 -0.3209
15246TIP3    H167229   3.093   2.102  13.492 -0.0802  0.8474 -0.4301
15246TIP3    H267230   3.226   2.160  13.533 -0.4445  1.4348 -0.0762
15247TIP3   OH267231   4.549   0.422  12.698 -0.2092 -0.4834 -0.1237
15247TIP3    H167232   4.621   0.398  12.757  0.4311  0.3490 -0.5446
15247TIP3    H267233   4.562   0.369  12.620  0.3918  0.2073 -0.4983
15248TIP3   OH267234   0.228   3.789   5.706  0.2094 -0.5818  0.4168
15248TIP3    H167235   0.149   3.744   5.674 -0.4725  1.7469 -1.4814
15248TIP3    H267236   0.294   3.720   5.710 -1.0464 -1.9957 -1.2596
15249TIP3   OH267237   0.777   4.459  12.404 -0.3934  0.3069 -0.6826
15249TIP3    H167238   0.705   4.507  12.446  0.3475 -0.3211  1.3881
15249TIP3    H267239   0.762   4.367  12.426  0.4234  0.0258 -1.2244
15250TIP3   OH267240   5.638   1.630   2.973  0.6896 -0.4399  0.2255
15250TIP3    H167241   5.623   1.538   2.994  0.3876 -0.8646 -1.7031
15250TIP3    H267242   5.724   1.632   2.932 -0.1887 -0.2576 -1.7316
15251TIP3   OH267243   1.260   6.000  15.428  0.4643  0.5972 -0.0760
15251TIP3    H167244   1.306   6.035  15.351  0.4522  1.9799  0.5047
15251TIP3    H267245   1.228   6.078  15.474 -0.0996 -0.2293  0.9891
15252TIP3   OH267246   0.095   4.614  11.797  0.0708  0.3784 -0.1050
15252TIP3    H167247   0.126   4.595  11.708 -0.2390 -2.3167  0.2713
15252TIP3    H267248   0.015   4.562  11.806  0.5122 -0.0316  1.9992
15253TIP3   OH267249   5.421   1.339   3.362 -0.3925 -0.7620  0.4133
15253TIP3    H167250   5.326   1.337   3.374 -0.4524  0.0512  0.0919
15253TIP3    H267251   5.443   1.431   3.351  0.5051 -0.8877  0.9966
15254TIP3   OH267252   1.444   0.144  11.069 -0.2538  0.6060 -0.2665
15254TIP3    H167253   1.352   0.171  11.060 -0.2828  0.5617 -0.1190
15254TIP3    H267254   1.449   0.111  11.159 -0.1402  0.4249 -0.3400
15255TIP3   OH267255   3.065   3.740  13.812  0.2825 -0.0810  0.2258
15255TIP3    H167256   3.080   3.810  13.749  2.3369  0.5493  1.3131
15255TIP3    H267257   3.049   3.662  13.759  2.5820  0.2954 -1.1388
15256TIP3   OH267258   0.152   4.699   6.129 -0.1110 -0.3803 -0.0402
15256TIP3    H167259   0.236   4.708   6.175  0.7701 -2.0941 -1.2413
15256TIP3    H267260   0.134   4.787   6.096  0.3582  0.3804  1.6217
15257TIP3   OH267261   3.842   0.336  12.289  0.2657 -0.6093 -0.3769
15257TIP3    H167262   3.815   0.247  12.265 -4.1454  0.3507  0.2293
15257TIP3    H267263   3.855   0.380  12.205 -0.0427 -1.1665 -0.7245
15258TIP3   OH267264   4.195   4.917   2.516 -0.1693  0.3339 -0.3383
15258TIP3    H167265   4.245   4.998   2.501  1.0855 -0.1459  1.0377
15258TIP3    H267266   4.260   4.848   2.514 -0.8404 -0.3706  0.9920
15259TIP3   OH267267   5.140   6.209  17.126  0.0553  0.1813  0.0070
15259TIP3    H167268   5.222   6.167  17.152  0.2063  0.3926 -0.1356
15259TIP3    H267269   5.097   6.231  17.209  0.8390  1.4570  0.0901
15260TIP3   OH267270   3.905   0.962  13.334 -0.1251 -0.1239  0.2380
15260TIP3    H167271   3.838   1.026  13.308  0.0369  0.0037  0.1334
15260TIP3    H267272   3.947   0.937  13.252  0.7090  0.6319  0.4182
15261TIP3   OH267273   1.919   3.952  14.562 -0.2404  0.2168 -0.1191
15261TIP3    H167274   1.985   3.891  14.531 -1.6232 -1.4091 -0.0066
15261TIP3    H267275   1.958   4.038  14.549  2.3955 -0.6941  1.1676
15262TIP3   OH267276   1.787   0.950  12.730 -0.3346  0.1853 -0.3215
15262TIP3    H167277   1.804   0.855  12.734 -0.0451  0.2129 -0.8369
15262TIP3    H267278   1.726   0.966  12.802 -0.0222 -0.3196  0.0648
15263TIP3   OH267279   1.513   0.036   4.309 -0.1165 -0.0484  0.0589
15263TIP3    H167280   1.429   0.042   4.356 -0.2908 -0.1488 -0.2351
15263TIP3    H267281   1.515   0.115   4.255 -0.3863 -0.4253 -0.5195
15264TIP3   OH267282   3.569   1.419  12.952  0.1800 -0.0151  0.1054
15264TIP3    H167283   3.636   1.469  12.999 -0.4315  2.3532 -1.3689
15264TIP3    H267284   3.486   1.446  12.992 -0.3161  1.7429 -1.9642
15265TIP3   OH267285   2.476   1.722   0.044 -0.4934  0.1362 -0.0802
15265TIP3    H167286   2.532   1.684   0.112 -0.3054 -1.9043 -1.2857
15265TIP3    H267287   2.489   1.816   0.053  0.2932 -0.1112  2.0379
15266TIP3   OH267288   2.139   1.291  11.740 -0.0256 -0.5504  0.1117
15266TIP3    H167289   2.204   1.252  11.797 -2.7934 -1.9661  2.5885
15266TIP3    H267290   2.080   1.219  11.718  0.8263 -0.1161 -4.7896
15267TIP3   OH267291   6.320   3.503   5.165  0.4554  0.3539  0.2347
15267TIP3    H167292   6.309   3.532   5.255 -0.7436 -1.2410  0.6431
15267TIP3    H267293   6.242   3.450   5.147  0.5838  0.7604 -1.7924
15268TIP3   OH267294   2.706   5.086   4.126  0.5001  0.1683 -0.8943
15268TIP3    H167295   2.680   5.113   4.214  0.9057  0.4712 -0.8611
15268TIP3    H267296   2.635   5.030   4.095  1.0160 -1.1067  0.1776
15269TIP3   OH267297   2.058   3.174  14.524  0.5638  0.4185  0.1922
15269TIP3    H167298   1.972   3.167  14.481 -0.6226  0.4930  2.4106
15269TIP3    H267299   2.037   3.196  14.615  2.8244 -1.7129  1.3309
15270TIP3   OH267300   0.947   4.241   3.967 -0.2720  0.4014  0.4640
15270TIP3    H167301   0.914   4.327   3.941  1.9627  1.4683  0.9333
15270TIP3    H267302   0.884   4.179   3.931 -1.2663  2.1745 -0.9870
15271TIP3   OH267303   6.651   1.533  11.960  0.0776  0.0828  0.0831
15271TIP3    H167304   6.640   1.473  11.886 -1.4877  0.5474 -0.1012
15271TIP3    H267305   6.740   1.516  11.991 -0.1494 -2.0234 -0.2265
15272TIP3   OH267306   5.914   0.541   3.916  0.3917 -0.2168 -0.1716
15272TIP3    H167307   5.979   0.610   3.907 -0.9642  1.3589  1.1851
15272TIP3    H267308   5.831   0.588   3.925 -0.5417 -2.0014  1.2128
15273TIP3   OH267309   2.001   2.262  13.091 -0.1899  0.1678 -0.3141
15273TIP3    H167310   1.997   2.356  13.106  0.6816  0.4272 -1.5815
15273TIP3    H267311   2.071   2.250  13.027 -0.6539 -1.2894 -0.5947
15274TIP3   OH267312   5.812   5.863   4.095  0.0698 -0.0763  0.3443
15274TIP3    H167313   5.769   5.788   4.054 -0.7526  0.9301 -0.6919
15274TIP3    H267314   5.830   5.923   4.023 -0.0003  1.0700  1.2561
15275TIP3   OH267315   1.982   1.770   4.538  0.3411 -0.1004  0.8800
15275TIP3    H167316   1.943   1.707   4.598 -0.6278  0.0478  0.4325
15275TIP3    H267317   1.920   1.775   4.465  1.0808  0.3466  0.2587
15276TIP3   OH267318   6.224   6.228  13.674  0.3187 -0.3058 -0.2038
15276TIP3    H167319   6.276   6.147  13.672 -0.6234 -0.9148 -1.3521
15276TIP3    H267320   6.149   6.209  13.618  0.5248  1.6768 -1.2413
15277TIP3   OH267321   4.983   0.824  11.735  0.1961 -0.7134 -0.4758
15277TIP3    H167322   5.057   0.877  11.764 -0.9011  0.4500  0.2991
15277TIP3    H267323   5.023   0.755  11.681  1.8551 -0.3234  0.1861
15278TIP3   OH267324   4.018   3.359  15.081 -0.0585 -0.9981 -0.2502
15278TIP3    H167325   3.931   3.331  15.052  0.5136 -1.8159 -1.2542
15278TIP3    H267326   4.050   3.415  15.010  0.1027 -0.4061  0.2796
15279TIP3   OH267327   5.470   2.258   5.892 -0.7015  0.3213 -0.5271
15279TIP3    H167328   5.461   2.165   5.871 -0.6759  0.5527 -1.6739
15279TIP3    H267329   5.461   2.302   5.807 -1.4842  1.4156  0.0956
15280TIP3   OH267330   3.244   0.474  13.735  0.3719 -0.1316  0.3111
15280TIP3    H167331   3.247   0.555  13.787 -1.2395  0.0721  0.1448
15280TIP3    H267332   3.176   0.421  13.777  1.0162 -1.1763  0.0749
15281TIP3   OH267333   3.215   1.276  17.021  0.4493  0.1079 -0.6602
15281TIP3    H167334   3.151   1.331  17.067 -0.8338 -0.9942 -1.0835
15281TIP3    H267335   3.264   1.338  16.966  1.0424  1.2423  1.0399
15282TIP3   OH267336   3.578   0.452  16.400  0.2890  0.1210 -0.0956
15282TIP3    H167337   3.619   0.502  16.471 -0.2234  1.2205 -0.5407
15282TIP3    H267338   3.486   0.446  16.426  0.3495 -0.6299 -0.0383
15283TIP3   OH267339   3.627   2.578  16.720 -0.3721  0.3071 -0.1203
15283TIP3    H167340   3.577   2.621  16.789 -0.2848  0.4499 -0.1453
15283TIP3    H267341   3.604   2.627  16.640 -1.4150 -0.6131 -0.4020
15284TIP3   OH267342   4.350   6.360  15.576  0.7633 -0.4650  0.0080
15284TIP3    H167343   4.430   6.308  15.569  1.6325  0.8771 -0.5953
15284TIP3    H267344   4.375   6.434  15.632  0.2972  0.5636 -1.0906
15285TIP3   OH267345   3.527   5.750  11.145 -0.3871  0.1708 -0.2226
15285TIP3    H167346   3.463   5.789  11.204  0.3744  0.8572  0.1814
15285TIP3    H267347   3.601   5.812  11.147  0.6442 -1.0357  0.0247
15286TIP3   OH267348   5.143   2.277  13.723 -0.2549  0.1910  0.4194
15286TIP3    H167349   5.217   2.248  13.777  0.2398 -1.0824 -0.8637
15286TIP3    H267350   5.066   2.240  13.767  0.0531 -0.0999  0.7227
15287TIP3   OH267351   6.419   6.670   2.657 -0.3284 -0.0880 -0.3012
15287TIP3    H167352   6.489   6.607   2.640  1.1124  1.5882 -0.8344
15287TIP3    H267353   6.410   6.670   2.752 -1.1337 -1.8562 -0.3312
15288TIP3   OH267354   3.690   0.818   1.550  0.3861 -0.0004  0.1404
15288TIP3    H167355   3.627   0.789   1.483  1.9039 -1.2194 -0.8269
15288TIP3    H267356   3.739   0.888   1.508  2.4229 -1.8239 -0.7208
15289TIP3   OH267357   6.668   5.734  17.183  0.5412  0.0581  0.0778
15289TIP3    H167358   6.734   5.804  17.186  1.5679 -0.9132  1.1930
15289TIP3    H267359   6.718   5.653  17.176 -0.6571 -0.5814 -2.2610
15290TIP3   OH267360   0.179   6.532  11.467 -0.3635 -0.5487 -0.4753
15290TIP3    H167361   0.128   6.588  11.408 -1.3662  1.5086  2.1468
15290TIP3    H267362   0.268   6.567  11.461 -0.5850  0.0600 -0.3331
15291TIP3   OH267363   2.155   2.995   1.156 -0.3576  0.2836  0.0030
15291TIP3    H167364   2.202   3.078   1.159 -0.7836  0.5345 -0.1028
15291TIP3    H267365   2.064   3.019   1.175 -0.1131 -0.4712  2.4801
15292TIP3   OH267366   2.761   5.254   5.439 -0.3020  0.6358 -0.7959
15292TIP3    H167367   2.741   5.234   5.531  0.1220 -1.1780 -1.0584
15292TIP3    H267368   2.852   5.284   5.441  0.3555 -1.2427 -0.8055
15293TIP3   OH267369   0.726   1.481   2.844 -0.2384 -0.4405  0.4409
15293TIP3    H167370   0.730   1.388   2.865  2.5382 -0.7102 -0.7495
15293TIP3    H267371   0.640   1.494   2.804  0.6868 -3.4472 -3.0679
15294TIP3   OH267372   4.009   0.394   2.420 -0.2114 -0.2098  0.5954
15294TIP3    H167373   3.926   0.442   2.416 -0.6804 -1.0819 -0.4871
15294TIP3    H267374   3.985   0.309   2.457 -0.1234 -1.0630 -1.2062
15295TIP3   OH267375   1.280   0.026   4.469  0.6622 -0.5152  0.1410
15295TIP3    H167376   1.251  -0.058   4.505 -4.6732  0.7309 -0.3613
15295TIP3    H267377   1.294   0.081   4.546  1.3255 -1.0610  0.4220
15296TIP3   OH267378   0.807   3.645   4.790 -0.2240 -0.1931  0.0896
15296TIP3    H167379   0.789   3.701   4.714  1.7270  2.6260  1.5606
15296TIP3    H267380   0.868   3.579   4.756 -0.0254  0.5111 -0.9967
15297TIP3   OH267381   3.004   1.460   5.742  0.4851  0.1968 -0.5067
15297TIP3    H167382   2.949   1.431   5.815 -1.7342  0.2553 -2.0430
15297TIP3    H267383   3.091   1.426   5.762 -0.4590 -1.3697  1.2652
15298TIP3   OH267384   4.632   4.686  13.374  0.0982  0.2283  0.1127
15298TIP3    H167385   4.589   4.751  13.430  0.9928  0.1203  0.9516
15298TIP3    H267386   4.662   4.736  13.298 -0.6916  0.4717 -0.0488
15299TIP3   OH267387   1.444   4.226  12.998 -0.1768 -0.1632  0.5989
15299TIP3    H167388   1.464   4.294  13.062  2.7135  0.3361 -0.6936
15299TIP3    H267389   1.493   4.149  13.028  0.4628 -0.1990 -0.4753
15300TIP3   OH267390   5.167   6.138  12.024 -0.0805 -0.8643  0.3619
15300TIP3    H167391   5.204   6.193  12.093  0.3457 -0.9982  0.2423
15300TIP3    H267392   5.202   6.175  11.943 -2.3609  0.7530 -0.0185
15301TIP3   OH267393   3.171   1.426  15.183 -0.0128  0.0926 -0.4075
15301TIP3    H167394   3.222   1.492  15.228  0.1873  0.5830 -1.3196
15301TIP3    H267395   3.106   1.476  15.132 -0.9592 -0.4859  0.1951
15302TIP3   OH267396   3.658   1.916   3.728 -0.3148 -0.6389 -0.0846
15302TIP3    H167397   3.630   1.889   3.815 -0.2173  0.3985  0.2866
15302TIP3    H267398   3.751   1.891   3.724 -1.3271 -4.9796 -1.6815
15303TIP3   OH267399   3.423   6.024  14.266 -0.4254 -0.1116  0.3867
15303TIP3    H167400   3.489   6.025  14.196  0.3226 -0.4773  1.0695
15303TIP3    H267401   3.439   5.942  14.313 -1.3171 -0.1580  0.6197
15304TIP3   OH267402   5.494   1.378   4.140 -0.3461  0.3005 -0.6244
15304TIP3    H167403   5.505   1.295   4.095  2.5763 -0.7294  1.6384
15304TIP3    H267404   5.558   1.436   4.099  1.0759 -0.1252  0.8528
15305TIP3   OH267405   0.748   6.475  13.343 -0.3083  0.1383  0.3030
15305TIP3    H167406   0.655   6.461  13.326 -0.3997 -0.2632  1.0774
15305TIP3    H267407   0.783   6.506  13.260 -1.3238  1.2715  0.2671
15306TIP3   OH267408   1.803   0.897   1.495  0.0279 -0.3977 -0.4160
15306TIP3    H167409   1.888   0.936   1.473 -0.3108  0.4513 -0.2552
15306TIP3    H267410   1.749   0.971   1.521 -0.7380 -0.9479 -0.4218
15307TIP3   OH267411   0.539   3.331  13.610 -0.7200  0.0175  1.2351
15307TIP3    H167412   0.447   3.350  13.590 -0.6614 -0.6865  0.2190
15307TIP3    H267413   0.581   3.417  13.609 -1.3426  0.3396  1.6134
15308TIP3   OH267414   4.041   4.998  13.446  0.6471  0.1824  0.2709
15308TIP3    H167415   4.101   4.966  13.378  0.0164  1.8845 -1.1676
15308TIP3    H267416   4.047   5.093  13.441 -2.0518  0.4251  0.1435
15309TIP3   OH267417   6.369   1.967   2.090  0.0756  0.4698  0.0230
15309TIP3    H167418   6.447   2.017   2.066  0.2888 -0.1052 -0.5309
15309TIP3    H267419   6.316   1.964   2.010  0.0011 -0.0532  0.0848
15310TIP3   OH267420   5.941   2.845  14.537 -0.1651  0.4612  0.4556
15310TIP3    H167421   6.012   2.909  14.534 -1.7112  2.2227 -1.8098
15310TIP3    H267422   5.976   2.769  14.490  0.5187  0.9944  0.0745
15311TIP3   OH267423   6.288   2.795   1.504 -0.1482  0.6161 -0.5299
15311TIP3    H167424   6.286   2.700   1.508  1.2682  0.5843 -0.0583
15311TIP3    H267425   6.285   2.816   1.410  1.0604  0.0439 -0.7070
15312TIP3   OH267426   6.259   0.948   3.942 -0.2729 -0.1240  0.0405
15312TIP3    H167427   6.289   0.917   4.028 -0.7386  1.7267  0.9200
15312TIP3    H267428   6.187   1.007   3.963  0.0630  0.9010 -1.5989
15313TIP3   OH267429   2.778   3.042   5.187 -0.0689  0.1444 -0.2788
15313TIP3    H167430   2.864   3.081   5.171  0.5169 -0.8044  0.4018
15313TIP3    H267431   2.791   2.987   5.264 -0.8897 -1.2538 -1.0978
15314TIP3   OH267432   3.160   1.587  15.884 -0.0216 -0.0539 -0.6798
15314TIP3    H167433   3.092   1.523  15.909 -0.3139  0.3293 -0.4813
15314TIP3    H267434   3.242   1.539  15.892 -0.2244 -0.3431 -0.3168
15315TIP3   OH267435   2.319   4.134  14.313 -0.3467  0.2716  0.5835
15315TIP3    H167436   2.357   4.058  14.355 -1.8184 -0.9839 -0.2570
15315TIP3    H267437   2.320   4.202  14.380 -1.3822 -1.2594  2.2305
15316TIP3   OH267438   5.152   3.099   1.087 -0.2848  0.1708 -0.3050
15316TIP3    H167439   5.242   3.077   1.061 -0.3698 -1.5779  0.7539
15316TIP3    H267440   5.147   3.074   1.179 -1.7654  0.5992 -0.2531
15317TIP3   OH267441   3.090   5.331   5.824 -0.7060 -0.1756  0.2296
15317TIP3    H167442   3.184   5.325   5.805 -0.6376  1.8513 -0.3716
15317TIP3    H267443   3.086   5.369   5.912 -0.8723  2.2447 -0.7470
15318TIP3   OH267444   2.386   0.347   1.028  0.3189 -0.1141 -0.2922
15318TIP3    H167445   2.449   0.392   0.972 -0.7213  1.0694 -0.5506
15318TIP3    H267446   2.321   0.414   1.049 -1.5647 -1.6030 -1.1051
15319TIP3   OH267447   3.339   5.817   2.239  0.2301 -0.0886 -0.0521
15319TIP3    H167448   3.372   5.744   2.186  0.9097  0.4959 -0.4630
15319TIP3    H267449   3.248   5.795   2.256 -0.4525  0.3387 -2.6672
15320TIP3   OH267450   2.827   0.910  16.501  0.1492  0.0834 -0.2262
15320TIP3    H167451   2.917   0.879  16.491  0.5077  0.6047  1.2177
15320TIP3    H267452   2.774   0.831  16.496  0.9582 -0.7064  2.2134
15321TIP3   OH267453   0.444   6.343   3.469 -0.1492  0.3457 -0.4873
15321TIP3    H167454   0.349   6.338   3.460 -0.1509 -0.0593 -0.2238
15321TIP3    H267455   0.460   6.336   3.562  0.2351 -1.2001 -0.6567
15322TIP3   OH267456   1.690   6.560   2.320  0.4329  0.8872  0.1934
15322TIP3    H167457   1.694   6.478   2.271  3.5343 -0.0574  1.7513
15322TIP3    H267458   1.602   6.561   2.358 -0.0521 -1.1502 -0.7218
15323TIP3   OH267459   3.746   0.937   0.532 -0.0090  0.0102  0.2502
15323TIP3    H167460   3.833   0.933   0.491 -0.4692  0.8422 -0.8424
15323TIP3    H267461   3.761   0.978   0.617  0.6895 -0.0175  0.1449
15324TIP3   OH267462   0.033   0.539  12.935  0.3844  0.1306  0.3325
15324TIP3    H167463  -0.023   0.600  12.982  2.1209  1.6511  0.5768
15324TIP3    H267464   0.069   0.482  13.003  1.0737  0.8129  0.5594
15325TIP3   OH267465   6.426   4.823  14.831  0.2153  1.1614  0.1342
15325TIP3    H167466   6.448   4.805  14.922 -0.1897  0.6293  0.1304
15325TIP3    H267467   6.331   4.836  14.831  0.1118  0.4565 -0.3161
15326TIP3   OH267468   1.086   6.665   4.934 -0.2706  0.2625 -0.0262
15326TIP3    H167469   1.119   6.590   4.983 -1.5278 -0.5598 -0.3928
15326TIP3    H267470   1.117   6.741   4.983  0.4621 -0.4977  0.7246
15327TIP3   OH267471   6.702   6.281  11.071  0.2995  0.3087  0.3117
15327TIP3    H167472   6.616   6.322  11.069  0.6505  1.0476 -0.0923
15327TIP3    H267473   6.747   6.315  10.994  1.1137  0.2774  0.7605
15328TIP3   OH267474   6.600   4.835  14.141  0.0646 -0.0036 -0.0187
15328TIP3    H167475   6.542   4.840  14.065 -0.1187  0.9188  0.1705
15328TIP3    H267476   6.675   4.786  14.110 -0.6103 -0.8163 -0.4024
15329TIP3   OH267477   1.657   0.983   2.942  0.3040  0.2721  0.5060
15329TIP3    H167478   1.634   0.897   2.978 -0.6260  1.3776  2.7510
15329TIP3    H267479   1.699   1.029   3.014  1.1946  1.5745 -0.7910
15330TIP3   OH267480   0.159   5.609   4.702 -0.0568  0.0269  0.0201
15330TIP3    H167481   0.066   5.627   4.715 -0.2462 -0.3232 -0.7720
15330TIP3    H267482   0.174   5.627   4.609  0.4528 -0.8301 -0.0701
15331TIP3   OH267483   1.767   3.128  12.529 -0.4524 -0.2935  0.2459
15331TIP3    H167484   1.742   3.057  12.470  1.2296  0.3474 -1.3260
15331TIP3    H267485   1.859   3.111  12.550 -0.0421  1.3671 -0.1069
15332TIP3   OH267486   4.255   4.972   0.633 -0.9408 -0.3425  0.0496
15332TIP3    H167487   4.197   5.009   0.700  1.5826  5.5219 -0.3518
15332TIP3    H267488   4.216   5.000   0.550  1.4385  2.6406 -0.2528
15333TIP3   OH267489   3.207   1.701   5.292 -0.5361  0.1367 -0.0933
15333TIP3    H167490   3.172   1.774   5.241  0.8722  0.8130 -0.1401
15333TIP3    H267491   3.129   1.658   5.329 -1.4257  1.2911 -0.5577
15334TIP3   OH267492   3.701   3.105   6.430  0.0003 -0.1154 -0.6274
15334TIP3    H167493   3.790   3.129   6.458  0.4735  0.1038 -2.2075
15334TIP3    H267494   3.669   3.046   6.498  0.8493  0.8352  0.6443
15335TIP3   OH267495   4.676   0.168   3.202 -0.1415  0.0987 -0.0928
15335TIP3    H167496   4.767   0.184   3.228 -0.2505  1.4466 -0.4603
15335TIP3    H267497   4.633   0.138   3.282  0.6851 -0.8407  0.0146
15336TIP3   OH267498   0.021   2.624   2.990 -0.0181 -0.2866  0.2108
15336TIP3    H167499   0.083   2.579   3.048 -0.0523  0.3750  0.7656
15336TIP3    H267500  -0.064   2.585   3.012 -0.3909  1.4864  2.2268
15337TIP3   OH267501   4.452   4.693   0.154  0.4066 -0.0197  0.1873
15337TIP3    H167502   4.360   4.717   0.171 -0.0594 -1.8357  0.4436
15337TIP3    H267503   4.453   4.668   0.062  0.4234 -0.8394  0.3987
15338TIP3   OH267504   3.097   4.554   0.232  0.8493  0.5822  0.5932
15338TIP3    H167505   3.073   4.553   0.325  1.1272 -0.5633  0.6640
15338TIP3    H267506   3.171   4.493   0.226  1.3434  1.2481 -0.2545
15339TIP3   OH267507   5.710   0.474  13.683 -0.4771  0.0152  0.5877
15339TIP3    H167508   5.702   0.565  13.654  0.5703  0.0725  0.4426
15339TIP3    H267509   5.663   0.423  13.617  0.4246  0.2989 -0.3005
15340TIP3   OH267510   1.169   2.476   4.057  0.8569  0.0217  0.1757
15340TIP3    H167511   1.136   2.387   4.050 -1.8369  0.8902  0.7838
15340TIP3    H267512   1.118   2.526   3.993 -0.0429  1.7185  2.1234
15341TIP3   OH267513   0.341   6.438   0.542  0.1268  0.2311  0.2413
15341TIP3    H167514   0.335   6.515   0.485 -0.5098 -0.3591 -0.5201
15341TIP3    H267515   0.435   6.424   0.554  0.2481  1.2066  0.5119
15342TIP3   OH267516   1.534   3.571   6.305  0.4053 -0.5930 -0.1577
15342TIP3    H167517   1.539   3.524   6.389 -0.2730 -2.1296 -0.9198
15342TIP3    H267518   1.605   3.534   6.252  0.3476 -0.1948 -0.5176
15343TIP3   OH267519   2.770   1.009   1.641  0.2967 -0.3524 -0.3355
15343TIP3    H167520   2.702   1.069   1.673  0.8140 -0.8967  2.0100
15343TIP3    H267521   2.746   0.991   1.550 -2.2654  0.1023  0.1719
15344TIP3   OH267522   1.186   1.205  14.069 -0.1951  0.6812 -0.4240
15344TIP3    H167523   1.262   1.168  14.024 -1.0651 -1.3504 -0.3013
15344TIP3    H267524   1.111   1.168  14.023 -1.1250  1.5444  0.3616
15345TIP3   OH267525   6.490   2.279  13.459  0.3512  0.5075  0.2949
15345TIP3    H167526   6.545   2.219  13.509  0.0726  0.3025  0.3553
15345TIP3    H267527   6.528   2.365  13.476  0.5964  0.3798  0.4104
15346TIP3   OH267528   2.252   6.355  14.727  0.1438  0.6866 -0.2798
15346TIP3    H167529   2.251   6.263  14.699  0.3978  1.1550 -1.9542
15346TIP3    H267530   2.162   6.373  14.755 -0.4372  0.4646 -1.9153
15347TIP3   OH267531   1.213   0.947  11.775 -0.7594  1.2463  0.5021
15347TIP3    H167532   1.119   0.940  11.758 -0.9448 -0.1306  1.8311
15347TIP3    H267533   1.240   0.858  11.796  1.3560  1.1827 -2.0399
15348TIP3   OH267534   3.075   0.107   4.637 -0.5754 -0.6406 -0.2149
15348TIP3    H167535   3.077   0.049   4.561  1.5612 -2.3940  1.0562
15348TIP3    H267536   3.106   0.191   4.604  0.3693 -1.3813 -1.2947
15349TIP3   OH267537   3.441   1.766   5.380 -0.2066  0.2987 -0.4006
15349TIP3    H167538   3.394   1.838   5.422 -2.1522 -1.4992  0.6355
15349TIP3    H267539   3.374   1.715   5.335  1.3432 -0.0050 -2.5311
15350TIP3   OH267540   0.731   2.307  12.982  0.2762  0.2632  0.3926
15350TIP3    H167541   0.813   2.317  12.933 -0.1094  0.4815 -0.2186
15350TIP3    H267542   0.750   2.239  13.047  0.9278  0.2863  0.2333
15351TIP3   OH267543   0.212   1.702   3.805  0.0169 -0.0654  0.0497
15351TIP3    H167544   0.193   1.628   3.863  2.7863 -1.4804 -0.6669
15351TIP3    H267545   0.232   1.663   3.721  0.9960  1.5342 -0.5118
15352TIP3   OH267546   2.752   0.688   0.418  0.5386 -0.1813  0.2996
15352TIP3    H167547   2.783   0.730   0.498  1.5276 -0.1709 -0.0726
15352TIP3    H267548   2.831   0.655   0.375 -0.0593 -1.0055 -0.2216
15353TIP3   OH267549   1.450   2.720  14.195  0.0629 -0.0871 -0.3963
15353TIP3    H167550   1.356   2.700  14.192  0.0873 -0.4699  0.9280
15353TIP3    H267551   1.455   2.811  14.166 -0.8183  0.2145  0.3449
15354TIP3   OH267552   1.215   1.783   0.046  0.0781  0.2031 -0.1826
15354TIP3    H167553   1.286   1.726   0.078  0.7629  1.3145  0.3226
15354TIP3    H267554   1.210   1.765  -0.048 -0.6923 -1.7329  0.1651
15355TIP3   OH267555   5.354   5.851   1.327  0.4171  0.0646  0.0930
15355TIP3    H167556   5.390   5.772   1.366 -0.3422 -0.3270  0.0274
15355TIP3    H267557   5.324   5.903   1.401  0.4715  0.0649  0.1146
15356TIP3   OH267558   0.081   1.562  16.626 -0.4198  0.1247 -0.5587
15356TIP3    H167559   0.093   1.600  16.713  1.2292 -0.2608 -0.5713
15356TIP3    H267560  -0.010   1.533  16.624 -0.3358 -0.3827  1.2583
15357TIP3   OH267561   0.158   3.674  10.563  0.2789 -0.1649 -0.0285
15357TIP3    H167562   0.182   3.595  10.611  1.6190 -0.1287 -0.5885
15357TIP3    H267563   0.066   3.661  10.540 -0.0292 -0.7398  1.4151
15358TIP3   OH267564   4.983   6.554   3.343  0.6530 -0.0582  0.5408
15358TIP3    H167565   4.905   6.558   3.398 -0.1688  0.6201 -0.6366
15358TIP3    H267566   5.020   6.643   3.348 -0.1275  0.3782 -0.9515
15359TIP3   OH267567   6.344   4.671   2.171  0.2007  0.2470  0.5372
15359TIP3    H167568   6.262   4.661   2.121 -0.3652 -1.3976  1.6957
15359TIP3    H267569   6.372   4.761   2.154 -2.2060  1.0846  0.6350
15360TIP3   OH267570   2.710   4.470  11.022  0.5372  0.7625 -0.4627
15360TIP3    H167571   2.804   4.472  11.001  0.6301  0.5660 -0.0749
15360TIP3    H267572   2.681   4.560  11.006  0.2870  0.3349 -2.7971
15361TIP3   OH267573   1.802   5.910  17.043 -0.1804  0.4024  0.1182
15361TIP3    H167574   1.771   5.828  17.004 -0.7492 -0.1792  1.7105
15361TIP3    H267575   1.779   5.977  16.979  0.5344 -0.6944 -1.3434
15362TIP3   OH267576   1.907   2.941  13.476  0.4642 -0.1161  0.5727
15362TIP3    H167577   1.969   3.010  13.453 -0.1698  0.4541  0.5343
15362TIP3    H267578   1.949   2.860  13.446  2.0206  0.0218  2.1699
15363TIP3   OH267579   4.843   2.062  12.609 -0.0665 -0.1962  0.0270
15363TIP3    H167580   4.750   2.078  12.595 -0.1828 -0.6102  0.3068
15363TIP3    H267581   4.860   1.977  12.568  0.1444 -0.2150  0.1508
15364TIP3   OH267582   6.279   2.056   0.240  0.5552 -0.2027  0.1497
15364TIP3    H167583   6.368   2.059   0.274 -0.6156  0.0053  3.6373
15364TIP3    H267584   6.236   1.987   0.291 -1.4041  0.0438 -1.0613
15365TIP3   OH267585   1.959   6.034   4.139  0.0353 -0.1226 -0.1227
15365TIP3    H167586   1.997   6.012   4.224  2.2327 -0.2752 -1.0525
15365TIP3    H267587   1.989   6.123   4.122 -0.7287  0.0579 -0.5659
15366TIP3   OH267588   1.602   2.864  16.473 -0.6804 -0.2893 -0.4046
15366TIP3    H167589   1.521   2.891  16.430 -0.9646 -2.0572 -1.0737
15366TIP3    H267590   1.617   2.930  16.541 -1.0388  1.7588 -2.2127
15367TIP3   OH267591   6.460   0.167  13.165  0.3608  0.6279  0.1502
15367TIP3    H167592   6.551   0.140  13.155  0.6369  0.3725  2.7698
15367TIP3    H267593   6.452   0.195  13.256 -2.1847  0.6411  0.0120
15368TIP3   OH267594   5.129   6.748   4.465  0.4236  0.2280 -0.2499
15368TIP3    H167595   5.093   6.699   4.539 -2.4337  0.2767 -1.5077
15368TIP3    H267596   5.153   6.833   4.503  0.9892 -0.4519  0.9911
15369TIP3   OH267597   2.872   4.823  15.658 -1.1679  0.3423  0.4884
15369TIP3    H167598   2.966   4.836  15.667 -0.7759 -1.9098  0.3742
15369TIP3    H267599   2.832   4.895  15.707  0.6559 -0.2324  3.0116
15370TIP3   OH267600   4.476   5.748   2.092  0.2241 -0.0022  0.9815
15370TIP3    H167601   4.497   5.827   2.142  1.0699 -1.6218  3.3844
15370TIP3    H267602   4.489   5.773   2.001 -0.2667  2.8197  1.5802
15371TIP3   OH267603   5.757   6.451   4.818  0.3343 -0.3578 -0.0656
15371TIP3    H167604   5.767   6.424   4.909  0.8389 -1.0969 -0.3317
15371TIP3    H267605   5.710   6.535   4.822  0.6339 -0.2312  0.8842
15372TIP3   OH267606   6.667   6.442  14.014 -0.1839  0.9228 -0.7269
15372TIP3    H167607   6.619   6.367  13.980 -0.6312  1.0286 -0.3321
15372TIP3    H267608   6.660   6.508  13.945  0.6655  0.4319 -1.3096
15373TIP3   OH267609   6.094   6.763   3.028 -0.6708 -0.5271  0.2503
15373TIP3    H167610   6.130   6.676   3.046 -1.1359 -0.4544  1.5493
15373TIP3    H267611   6.057   6.793   3.111  2.2600  2.2430  0.7699
15374TIP3   OH267612   1.822   5.331   3.373 -0.5396 -0.2106 -0.0593
15374TIP3    H167613   1.776   5.276   3.310 -1.4395  0.4922 -0.0402
15374TIP3    H267614   1.880   5.271   3.420 -1.5979 -1.1763  0.0690
15375TIP3   OH267615   0.716   6.547  15.790 -0.4191 -0.0346  0.2238
15375TIP3    H167616   0.792   6.497  15.761 -0.2962  0.9099 -1.2167
15375TIP3    H267617   0.707   6.527  15.883  2.4530  0.8975  0.7996
15376TIP3   OH267618   3.170   5.333   4.227  0.2284  0.4943 -0.1266
15376TIP3    H167619   3.123   5.251   4.237 -1.7992  1.3574 -1.8510
15376TIP3    H267620   3.179   5.367   4.316 -1.0575 -0.4635  0.3967
15377TIP3   OH267621   2.837   4.605   4.408 -0.6437 -0.2048 -0.3341
15377TIP3    H167622   2.931   4.597   4.425 -0.0742  0.2486 -2.8636
15377TIP3    H267623   2.815   4.694   4.437 -0.3005 -0.3102  0.2590
15378TIP3   OH267624   0.527   5.988   0.120 -0.4239  0.2722 -0.6045
15378TIP3    H167625   0.527   5.894   0.106 -0.4143  0.2688 -0.5815
15378TIP3    H267626   0.607   6.019   0.077 -1.2591  0.4867 -2.1167
15379TIP3   OH267627   3.821   6.565   5.296  0.0799 -0.0489 -0.2777
15379TIP3    H167628   3.811   6.572   5.391 -1.0946 -1.7113 -0.2461
15379TIP3    H267629   3.793   6.476   5.275  1.9243 -0.3102 -1.9972
15380TIP3   OH267630   0.922   5.523   4.157  0.2660  0.0310  0.4940
15380TIP3    H167631   0.886   5.437   4.133  0.2263  0.1475  0.1400
15380TIP3    H267632   0.887   5.583   4.091  0.3413  0.3102  0.7076
15381TIP3   OH267633   2.553   5.289  10.828  0.3095 -0.0715 -0.2876
15381TIP3    H167634   2.529   5.233  10.754 -0.5205  1.6566 -1.3793
15381TIP3    H267635   2.478   5.347  10.840  0.5096 -0.1697  1.8037
15382TIP3   OH267636   0.205   5.576   3.752  0.8841 -0.0801 -0.0197
15382TIP3    H167637   0.119   5.613   3.731  1.2191  0.7289  0.0213
15382TIP3    H267638   0.244   5.638   3.813  1.3588 -0.6270  0.2428
15383TIP3   OH267639   5.672   3.343   6.542 -0.8005  0.5110  0.4626
15383TIP3    H167640   5.649   3.273   6.603 -1.9651  0.7728  0.3451
15383TIP3    H267641   5.623   3.321   6.462 -2.4642  2.2934  0.9338
15384TIP3   OH267642   3.587   4.617  13.876 -0.3200 -0.0651  0.4200
15384TIP3    H167643   3.534   4.653  13.805 -1.6850 -0.5960  1.1227
15384TIP3    H267644   3.581   4.522  13.864  2.0403 -0.1657 -0.5609
15385TIP3   OH267645   2.818   1.631   2.829  0.0372 -0.3233  0.2991
15385TIP3    H167646   2.744   1.578   2.858 -2.7291  1.9930 -1.8578
15385TIP3    H267647   2.854   1.584   2.753 -0.3436 -0.6502  0.3214
15386TIP3   OH267648   0.778   6.645   2.624 -0.0493 -0.4987  0.0258
15386TIP3    H167649   0.771   6.738   2.604  2.3060  0.8241  4.1679
15386TIP3    H267650   0.852   6.615   2.572 -0.4388  0.0594 -0.8804
15387TIP3   OH267651   6.789   1.874   1.097 -0.2255  0.3055  0.2440
15387TIP3    H167652   6.721   1.855   1.032 -1.0297  0.1319  1.1164
15387TIP3    H267653   6.742   1.918   1.169  0.1860 -1.6068  1.7570
15388TIP3   OH267654   1.784   3.391   2.968  0.4050  0.4228  0.6280
15388TIP3    H167655   1.824   3.475   2.949  0.0273  0.2866 -0.9398
15388TIP3    H267656   1.852   3.326   2.951  0.3943  0.3557  0.8361
15389TIP3   OH267657   0.053   3.163   2.123  0.3166 -0.3660  0.4090
15389TIP3    H167658   0.013   3.127   2.043  0.8673 -1.5223  0.6443
15389TIP3    H267659   0.082   3.251   2.097  1.9847 -1.3196 -1.1710
15390TIP3   OH267660   6.225   1.937   0.817  0.0991 -0.0616 -0.1862
15390TIP3    H167661   6.249   1.857   0.864  0.4686  0.3793  0.3884
15390TIP3    H267662   6.309   1.980   0.799 -0.0863  0.1012 -0.6620
15391TIP3   OH267663   5.151   5.935  14.520 -0.3554  0.7285  0.1243
15391TIP3    H167664   5.147   6.030  14.511  0.7850  0.6604 -1.5884
15391TIP3    H267665   5.102   5.901  14.445 -0.7374 -0.0471  0.7097
15392TIP3   OH267666   4.195   6.197  13.086 -0.6709 -0.1120  0.1118
15392TIP3    H167667   4.232   6.261  13.026 -0.1752 -0.5050 -0.0063
15392TIP3    H267668   4.137   6.248  13.142 -0.2185  0.4529  0.0765
15393TIP3   OH267669   4.197   3.036  11.329  0.3227  0.3294  0.5538
15393TIP3    H167670   4.122   3.072  11.377 -0.3692  1.3959 -1.2270
15393TIP3    H267671   4.191   3.076  11.242  2.1980 -0.6191 -0.0597
15394TIP3   OH267672   2.948   5.222   4.430  0.2138  0.0979 -0.5239
15394TIP3    H167673   2.944   5.139   4.383 -0.9615  0.3281 -0.8798
15394TIP3    H267674   2.956   5.197   4.522  1.4161 -0.3735 -0.7478
15395TIP3   OH267675   3.322   2.497   6.049  0.1419  0.4009 -0.9582
15395TIP3    H167676   3.413   2.512   6.074 -0.1805  0.0926  0.5373
15395TIP3    H267677   3.278   2.579   6.070 -0.2171 -0.0074 -0.0520
15396TIP3   OH267678   4.181   6.655  16.587 -0.3075 -0.0563  0.2362
15396TIP3    H167679   4.276   6.663  16.580 -0.1784 -0.0183  1.6997
15396TIP3    H267680   4.157   6.589  16.522  0.8759 -0.9067  0.6359
15397TIP3   OH267681   6.623   1.310   2.360 -0.6463  0.5359 -0.5068
15397TIP3    H167682   6.639   1.385   2.302 -2.2883  0.9256 -0.5116
15397TIP3    H267683   6.679   1.241   2.326  0.6182  1.6332 -0.7471
15398TIP3   OH267684   6.398   6.707   0.824  0.3633 -0.2153 -0.4449
15398TIP3    H167685   6.454   6.686   0.898  0.7836 -0.9114 -0.9410
15398TIP3    H267686   6.456   6.702   0.748 -0.3055 -0.6633 -0.9357
15399TIP3   OH267687   2.050   6.571   1.390  0.0162  0.2512 -0.7985
15399TIP3    H167688   2.136   6.531   1.389  0.8701  1.9524 -0.1225
15399TIP3    H267689   1.989   6.498   1.400  1.3196 -1.0315 -1.8871
15400TIP3   OH267690   1.696   1.615  11.657  0.1080  0.4533 -0.2110
15400TIP3    H167691   1.775   1.588  11.611 -1.1512 -0.1568 -2.1077
15400TIP3    H267692   1.644   1.535  11.665 -1.1064  1.1764 -0.6306
15401TIP3   OH267693   4.752   6.166  16.208  0.0381 -0.0616 -0.0893
15401TIP3    H167694   4.763   6.080  16.168 -1.2274 -0.5902  0.6600
15401TIP3    H267695   4.838   6.208  16.198  0.6730 -1.4006 -0.4597
15402TIP3   OH267696   2.805   4.242  15.346  0.2994 -0.2269  0.1087
15402TIP3    H167697   2.798   4.311  15.413  2.4090  1.4954 -1.3476
15402TIP3    H267698   2.740   4.266  15.280  0.3365 -0.2125  0.0775
15403TIP3   OH267699   2.925   6.056  13.822 -0.3147 -0.2039 -0.6053
15403TIP3    H167700   2.854   6.009  13.778  0.5664 -0.9312 -1.2895
15403TIP3    H267701   2.881   6.113  13.885 -1.4303 -2.1781  0.5005
15404TIP3   OH267702   3.802   1.065   0.056  0.0882 -0.3928 -0.2624
15404TIP3    H167703   3.785   1.055   0.150  0.4714 -0.2638 -0.1798
15404TIP3    H267704   3.716   1.087   0.019 -0.1875 -1.0737 -0.0349
15405TIP3   OH267705   3.247   0.565   3.701  0.2502 -0.2857 -0.0727
15405TIP3    H167706   3.204   0.639   3.745 -0.3055 -0.9364  0.5088
15405TIP3    H267707   3.182   0.536   3.636  0.6712  0.0476 -0.6499
15406TIP3   OH267708   0.957   2.185  15.999 -0.7748  0.2299  0.6527
15406TIP3    H167709   0.881   2.231  16.035 -1.3813 -2.1559  2.6809
15406TIP3    H267710   1.005   2.153  16.076  2.3436  1.6064 -0.5512
15407TIP3   OH267711   3.891   0.718  11.459  0.0728  0.3760  0.5449
15407TIP3    H167712   3.819   0.654  11.458  0.3843  0.0235  0.4376
15407TIP3    H267713   3.857   0.791  11.511 -1.5075  1.5850 -2.0204
15408TIP3   OH267714   4.897   1.142  13.375 -0.4090  0.2131  0.6683
15408TIP3    H167715   4.818   1.140  13.428  0.6985 -0.2578  2.4123
15408TIP3    H267716   4.932   1.053  13.380 -0.3257  0.1045 -1.0244
15409TIP3   OH267717   4.944   5.704   3.665  0.3276 -0.0843  0.1566
15409TIP3    H167718   4.853   5.729   3.684  0.5085  0.4917  0.2679
15409TIP3    H267719   4.972   5.765   3.597  0.3271 -0.8775 -0.5704
15410TIP3   OH267720   5.147   5.603  16.854  0.4706  0.6883  0.6137
15410TIP3    H167721   5.069   5.618  16.907  1.2646 -0.9298  2.3787
15410TIP3    H267722   5.219   5.630  16.911  1.2647  1.0772 -0.5521
15411TIP3   OH267723   3.137   3.524   0.209 -0.3340  0.1031 -0.6025
15411TIP3    H167724   3.212   3.485   0.165  1.4586 -0.1209  2.3679
15411TIP3    H267725   3.154   3.618   0.207  1.0096 -0.0263  1.4718
15412TIP3   OH267726   1.246   0.988   5.332 -0.2948 -0.1243  0.6089
15412TIP3    H167727   1.223   0.939   5.411 -3.1956 -1.3376 -0.8307
15412TIP3    H267728   1.190   1.066   5.336  1.2822  1.0366  0.8520
15413TIP3   OH267729   4.160   1.580  14.596 -0.4870 -0.6163  0.1482
15413TIP3    H167730   4.227   1.605  14.660  1.7152 -2.3576 -1.3117
15413TIP3    H267731   4.110   1.510  14.638  0.8024 -1.5936  0.1243
15414TIP3   OH267732   4.045   0.423  11.689  0.2326  0.5925  0.0790
15414TIP3    H167733   4.078   0.409  11.777 -0.7477  0.6798  0.4728
15414TIP3    H267734   3.950   0.419  11.698  0.1311 -0.6835 -1.1852
15415TIP3   OH267735   6.288   3.065  16.942 -0.0020 -0.0850 -0.1256
15415TIP3    H167736   6.313   3.122  16.870  0.9995  0.5155  0.6663
15415TIP3    H267737   6.195   3.084  16.957 -0.3888 -0.6641 -1.6163
15416TIP3   OH267738   6.677   4.561   3.377  0.0976  0.2809  0.4242
15416TIP3    H167739   6.710   4.473   3.392 -0.1185  0.2002  0.4199
15416TIP3    H267740   6.598   4.549   3.325  1.2795  0.5692 -1.5715
15417TIP3   OH267741   3.382   0.317  17.056 -0.3121  0.3145  0.2362
15417TIP3    H167742   3.471   0.316  17.023  0.0063  0.9167  1.0460
15417TIP3    H267743   3.329   0.283  16.984  0.5646 -0.0523 -0.2477
15418TIP3   OH267744   5.774   6.772   6.040  0.5406 -0.1139 -0.0956
15418TIP3    H167745   5.861   6.749   6.075 -0.2614 -1.5024  1.1258
15418TIP3    H267746   5.761   6.710   5.968  0.2677 -0.4163  0.2101
15419TIP3   OH267747   5.498   0.717   0.187  0.6166  0.9822 -0.6737
15419TIP3    H167748   5.414   0.763   0.188  0.5742  0.8996  0.0961
15419TIP3    H267749   5.474   0.625   0.172  0.4927  0.8329  0.3537
15420TIP3   OH267750   2.655   1.681  13.007 -0.1259 -0.3223 -0.5784
15420TIP3    H167751   2.640   1.597  12.966 -0.9937  0.1413 -1.2399
15420TIP3    H267752   2.736   1.714  12.967  0.6334 -1.1588  0.2336
15421TIP3   OH267753   1.674   1.009  12.962 -0.0172 -0.1635 -0.1642
15421TIP3    H167754   1.713   1.045  13.041  0.2567  0.2155 -0.4637
15421TIP3    H267755   1.583   1.038  12.965  0.1231  0.2992 -0.2420
15422TIP3   OH267756   5.217   6.068   6.978  0.0404  0.0892  0.5297
15422TIP3    H167757   5.241   6.132   6.911 -1.7779  0.9227  0.6397
15422TIP3    H267758   5.193   5.990   6.929 -0.4721  0.4192  0.2570
15423TIP3   OH267759   5.944   0.326  15.055  0.1938  0.4149  0.0661
15423TIP3    H167760   5.927   0.308  14.962  0.9981 -0.0750  0.0057
15423TIP3    H267761   5.966   0.241  15.092 -1.3357  0.3826  0.9952
15424TIP3   OH267762   3.673   3.951  13.408 -0.0484 -0.8160 -0.1770
15424TIP3    H167763   3.720   3.976  13.328  0.1502 -1.3446 -0.2257
15424TIP3    H267764   3.651   3.859  13.396  1.4664 -1.3901  1.0720
15425TIP3   OH267765   2.150   4.298   4.983 -0.5277  0.1032  0.3207
15425TIP3    H167766   2.111   4.274   4.899  1.7309  0.1841 -0.8071
15425TIP3    H267767   2.075   4.321   5.038 -2.1467 -1.0130 -1.3013
15426TIP3   OH267768   4.918   4.963   4.328  0.5275 -0.0885  0.0880
15426TIP3    H167769   4.993   4.958   4.387  0.5071 -1.1731  0.0447
15426TIP3    H267770   4.931   4.891   4.266 -0.0258  0.3435 -0.5416
15427TIP3   OH267771   0.982   2.191  12.320 -0.2661 -0.0041  0.0927
15427TIP3    H167772   1.021   2.278  12.322  0.3800 -0.2731 -0.4743
15427TIP3    H267773   1.038   2.140  12.261 -1.9327 -0.1893 -1.4104
15428TIP3   OH267774   6.568   2.782   2.825 -0.3063 -0.0630 -0.0913
15428TIP3    H167775   6.599   2.853   2.768 -3.1282  1.0377 -0.3845
15428TIP3    H267776   6.529   2.827   2.899  1.2381 -1.4621  1.6689
15429TIP3   OH267777   3.234   4.603  13.079 -0.7142 -0.6602  0.3801
15429TIP3    H167778   3.143   4.617  13.104 -1.4118 -0.3504 -2.0920
15429TIP3    H267779   3.269   4.547  13.148 -2.6912 -0.6287  1.5020
15430TIP3   OH267780   1.006   4.348   2.074  0.3112 -0.0152  0.2732
15430TIP3    H167781   0.931   4.298   2.105  0.7515 -0.2206  1.0359
15430TIP3    H267782   0.996   4.434   2.115 -1.0138  0.9300 -1.8602
15431TIP3   OH267783   3.248   2.666   1.227  0.0959 -0.2356  0.1688
15431TIP3    H167784   3.237   2.583   1.273 -1.0595 -0.3647 -0.3002
15431TIP3    H267785   3.221   2.733   1.291 -2.8563 -0.4932 -0.6662
15432TIP3   OH267786   1.794   2.896   1.096 -0.0760 -0.5815 -0.1525
15432TIP3    H167787   1.839   2.896   1.011 -0.6129 -1.5722 -0.4457
15432TIP3    H267788   1.707   2.931   1.078  0.1925  0.2961  0.2129
15433TIP3   OH267789   1.152   6.336  16.203  0.2399  0.0451  0.2247
15433TIP3    H167790   1.095   6.407  16.172  0.8704  0.0865 -0.8961
15433TIP3    H267791   1.188   6.369  16.285 -1.0051  0.1969  0.7292
15434TIP3   OH267792   2.409   3.524  10.391  0.2706 -0.0746 -0.5853
15434TIP3    H167793   2.376   3.538  10.480 -0.7082  1.0586 -1.0958
15434TIP3    H267794   2.499   3.558  10.393  0.2489 -0.0515 -0.0255
15435TIP3   OH267795   0.901   1.345  12.611 -0.3446 -0.1955 -0.4697
15435TIP3    H167796   0.986   1.362  12.571 -0.3028 -0.4043 -0.4736
15435TIP3    H267797   0.922   1.301  12.694 -0.3701  1.4388  0.4430
15436TIP3   OH267798   1.904   3.291  11.057 -0.0978 -0.1554  0.0812
15436TIP3    H167799   1.839   3.327  10.997 -0.7999 -0.9793  0.3226
15436TIP3    H267800   1.966   3.245  11.000  0.0657  0.3071 -0.1194
15437TIP3   OH267801   4.385   5.623   5.035 -0.3481  0.4583 -0.4924
15437TIP3    H167802   4.340   5.583   5.109 -1.5564 -0.2072 -1.5225
15437TIP3    H267803   4.352   5.574   4.959  1.4840  0.5534 -1.3922
15438TIP3   OH267804   2.104   3.240  15.358 -0.0308  0.1851  0.1578
15438TIP3    H167805   2.052   3.194  15.292  2.4796 -1.4356 -0.8183
15438TIP3    H267806   2.115   3.176  15.428 -0.7904  1.1414  1.1875
15439TIP3   OH267807   3.798   5.132  13.252 -0.0601 -0.5779 -0.0433
15439TIP3    H167808   3.820   5.041  13.272 -2.0140 -0.5592  2.8824
15439TIP3    H267809   3.841   5.183  13.321 -2.0438  0.2447  0.6824
15440TIP3   OH267810   2.530   1.325  12.603 -0.2661  0.0440 -0.3329
15440TIP3    H167811   2.613   1.291  12.634  1.0625  2.1510 -1.3481
15440TIP3    H267812   2.491   1.253  12.554  1.7474 -0.4966 -1.2172
15441TIP3   OH267813   2.061   6.405   3.764  0.3611  0.1121  0.0161
15441TIP3    H167814   2.042   6.368   3.678  0.7030  0.5334 -0.2479
15441TIP3    H267815   2.101   6.334   3.813 -1.0164 -0.5179  0.2740
15442TIP3   OH267816   4.303   0.802   5.778 -0.0348  0.2380  0.0452
15442TIP3    H167817   4.222   0.843   5.809 -0.1280 -0.2370  0.4338
15442TIP3    H267818   4.372   0.847   5.827 -0.1260  0.0238  0.3675
15443TIP3   OH267819   3.587   2.826  16.871 -0.1750 -0.3464  0.2334
15443TIP3    H167820   3.533   2.857  16.799  0.6006 -0.9489 -0.6237
15443TIP3    H267821   3.591   2.900  16.932 -2.0785 -0.3301  0.4129
15444TIP3   OH267822   3.916   1.997  14.326 -0.1799  0.0719  0.7180
15444TIP3    H167823   3.854   2.045  14.271 -1.0264 -2.3442 -0.6132
15444TIP3    H267824   4.002   2.021  14.292 -0.6271 -0.0148 -0.5452
15445TIP3   OH267825   3.389   5.689   2.691 -0.4315  0.0482  0.1360
15445TIP3    H167826   3.335   5.612   2.674  0.6103 -0.5251 -0.7186
15445TIP3    H267827   3.423   5.676   2.779  0.7249 -1.1241 -0.4449
15446TIP3   OH267828   0.641   5.227   0.111  0.6414  0.1867 -0.0300
15446TIP3    H167829   0.547   5.243   0.100 -0.0570 -2.6923  0.6973
15446TIP3    H267830   0.651   5.203   0.203  2.0299  0.1583 -0.1663
15447TIP3   OH267831   4.952   4.446   1.696 -0.0456 -0.3534  0.1428
15447TIP3    H167832   4.919   4.387   1.629  0.4556  2.0458 -2.3900
15447TIP3    H267833   5.041   4.467   1.668  0.2974  0.5248  1.7510
15448TIP3   OH267834   6.806   0.122  10.245 -0.1585  1.1335 -0.1851
15448TIP3    H167835   6.839   0.208  10.220  0.3891  0.6813 -1.1023
15448TIP3    H267836   6.873   0.061  10.214 -0.0110  0.4376  1.4112
15449TIP3   OH267837   1.395   6.608  16.298 -0.1091 -0.3184  0.3390
15449TIP3    H167838   1.460   6.679  16.304 -1.0789  0.5735  0.5482
15449TIP3    H267839   1.421   6.559  16.220  0.4486  0.3994  0.0545
15450TIP3   OH267840   1.533   0.941   4.967 -0.1058 -0.6450 -0.5522
15450TIP3    H167841   1.489   0.856   4.971  1.3232 -1.3841  2.1802
15450TIP3    H267842   1.509   0.984   5.049 -0.0428  1.2188 -1.4620
15451TIP3   OH267843   2.423   0.145   5.158  0.4170  0.2773 -0.0079
15451TIP3    H167844   2.424   0.193   5.075 -1.2288 -1.2561 -0.9931
15451TIP3    H267845   2.506   0.168   5.200  1.6204  0.5872 -2.3703
15452TIP3   OH267846   2.617   5.542  15.550  0.2680  0.2915  0.5333
15452TIP3    H167847   2.557   5.604  15.508 -0.2089  1.4438  2.7922
15452TIP3    H267848   2.632   5.577  15.637  1.1895 -2.0214  1.3936
15453TIP3   OH267849   2.378   2.392  15.986 -0.3340 -0.5265  0.0539
15453TIP3    H167850   2.460   2.355  15.951  0.5180  2.0711 -0.9072
15453TIP3    H267851   2.311   2.330  15.959  1.0577 -1.6408 -1.0171
15454TIP3   OH267852   1.780   5.817   0.080 -0.6390 -0.3538  0.0129
15454TIP3    H167853   1.836   5.836   0.004  0.5354  4.2732  1.6736
15454TIP3    H267854   1.691   5.810   0.043  0.0119  0.7550 -1.9140
15455TIP3   OH267855   5.995   3.331  12.377  0.5101  0.5527  0.1095
15455TIP3    H167856   6.065   3.294  12.323  1.4768  1.3656  0.7819
15455TIP3    H267857   6.020   3.422  12.390 -0.7494  0.8990  0.2630
15456TIP3   OH267858   6.024   2.873   5.168  0.6376  0.0741  0.4252
15456TIP3    H167859   6.073   2.921   5.235  0.0423 -0.3116  1.1524
15456TIP3    H267860   5.946   2.841   5.214  0.6907 -1.0119 -0.2071
15457TIP3   OH267861   4.377   0.661  11.197  0.0731 -0.2492 -0.0978
15457TIP3    H167862   4.418   0.611  11.268  0.2692 -1.4992 -1.0666
15457TIP3    H267863   4.436   0.650  11.123 -1.7323 -1.7345 -1.4082
15458TIP3   OH267864   2.490   3.312   0.810 -0.1332  0.1616 -0.1699
15458TIP3    H167865   2.507   3.224   0.842 -1.0218  0.1094  0.1871
15458TIP3    H267866   2.444   3.299   0.726 -1.4639  0.2514  0.5149
15459TIP3   OH267867   1.240   5.743   3.701 -0.5027 -0.1304 -0.6125
15459TIP3    H167868   1.166   5.781   3.653 -1.1177  0.1830  0.5464
15459TIP3    H267869   1.203   5.670   3.750 -0.1487  0.2985  0.3243
15460TIP3   OH267870   6.106   3.642   0.597 -0.6923 -0.2872  0.0727
15460TIP3    H167871   6.139   3.727   0.568  0.9612 -0.5898  0.9627
15460TIP3    H267872   6.135   3.581   0.529  0.8336 -0.5824  0.9485
15461TIP3   OH267873   4.842   2.833   3.685  0.1035  0.2738  0.2863
15461TIP3    H167874   4.832   2.823   3.780 -0.0027  0.9825  0.3542
15461TIP3    H267875   4.756   2.812   3.650  0.3902 -0.9710  0.2470
15462TIP3   OH267876   3.203   3.750   1.360 -0.1143  0.2015  0.0649
15462TIP3    H167877   3.146   3.674   1.372  1.9137 -1.5920 -0.8181
15462TIP3    H267878   3.243   3.737   1.273  1.0447  1.7512  0.3064
15463TIP3   OH267879   3.848   0.878   6.165 -0.6536  0.6883  0.6351
15463TIP3    H167880   3.921   0.940   6.171 -1.3814  1.5554  0.8214
15463TIP3    H267881   3.846   0.852   6.073  0.1852  0.2748  0.7224
15464TIP3   OH267882   3.363   4.430  13.267  0.0661  0.0968  0.2377
15464TIP3    H167883   3.284   4.406  13.315 -0.7356  0.5570 -0.8269
15464TIP3    H267884   3.368   4.366  13.196  1.6250 -1.0194  1.2771
15465TIP3   OH267885   5.982   5.361   4.875  0.5928  0.1080 -0.6932
15465TIP3    H167886   6.014   5.271   4.876  1.6231  0.4610 -0.1467
15465TIP3    H267887   5.923   5.365   4.800 -0.1938 -1.2600 -0.1912
15466TIP3   OH267888   5.282   0.817   5.409  0.1421  0.1588  0.8433
15466TIP3    H167889   5.343   0.863   5.468  1.1969 -0.0056 -0.0884
15466TIP3    H267890   5.284   0.726   5.439 -0.6742  0.3894  1.6404
15467TIP3   OH267891   2.608   1.324  15.232 -0.2453  0.5617 -0.1658
15467TIP3    H167892   2.641   1.327  15.142  0.6603 -0.8331  0.0958
15467TIP3    H267893   2.573   1.236  15.243  1.8341 -0.1363  1.5512
15468TIP3   OH267894   3.461   6.375  14.294 -0.0784 -0.1282 -0.3600
15468TIP3    H167895   3.424   6.288  14.309  2.0305 -0.9095  0.7064
15468TIP3    H267896   3.478   6.378  14.200 -1.1361 -0.4328 -0.5780
15469TIP3   OH267897   5.015   5.510   3.463  0.1998  0.4323 -0.4401
15469TIP3    H167898   5.018   5.566   3.386 -0.3708  1.6941  0.4166
15469TIP3    H267899   4.986   5.568   3.534  0.6366 -0.7004  0.7092
15470TIP3   OH267900   3.057   0.779  12.210  0.6683 -0.2753 -0.2635
15470TIP3    H167901   3.113   0.768  12.286  0.9321 -1.2935 -0.5915
15470TIP3    H267902   3.038   0.690  12.180 -0.9683  0.0431 -0.2779
15471TIP3   OH267903   1.265   5.104   1.041  0.2695  0.2649 -0.4020
15471TIP3    H167904   1.201   5.095   1.112  0.4665  0.5737 -0.1760
15471TIP3    H267905   1.349   5.083   1.082  0.4794  1.1440 -0.3490
15472TIP3   OH267906   6.566   5.029  15.823  0.1981  0.7831  0.4799
15472TIP3    H167907   6.495   5.045  15.884 -1.9161  1.0726 -1.8790
15472TIP3    H267908   6.575   4.933  15.821 -1.9963  0.5332 -1.0427
15473TIP3   OH267909   5.470   6.675  12.089 -0.8111 -0.7495  0.6395
15473TIP3    H167910   5.514   6.752  12.054 -0.7874 -1.8570 -1.9677
15473TIP3    H267911   5.515   6.656  12.171  1.5275 -0.0524 -0.4196
15474TIP3   OH267912   1.256   1.056  12.199 -0.0436  0.3473  0.4024
15474TIP3    H167913   1.223   1.096  12.118 -0.8732 -2.3615 -0.7101
15474TIP3    H267914   1.183   1.062  12.261 -1.2996 -1.8919 -0.7169
15475TIP3   OH267915   4.679   0.334  13.097  0.1274  0.1660  0.3000
15475TIP3    H167916   4.599   0.376  13.129 -1.1887 -1.6162 -0.4611
15475TIP3    H267917   4.725   0.308  13.177 -0.9847 -0.4051  0.7871
15476TIP3   OH267918   1.766   5.035  16.880  0.0166 -0.4962 -0.4756
15476TIP3    H167919   1.686   5.074  16.844  0.2261 -1.4156 -2.0206
15476TIP3    H267920   1.794   5.097  16.948 -1.9819 -0.1542  0.1059
15477TIP3   OH267921   5.848   4.930   2.541 -0.1022  0.5527 -0.0035
15477TIP3    H167922   5.907   4.970   2.477 -1.1279  0.4762 -1.0412
15477TIP3    H267923   5.780   4.889   2.488 -0.1405 -0.8882  1.1058
15478TIP3   OH267924   3.891   0.477   0.129  0.0825  0.1696 -0.4923
15478TIP3    H167925   3.938   0.465   0.212 -1.1623  1.8595  0.5320
15478TIP3    H267926   3.942   0.429   0.065  0.9459 -1.4533  1.3022
15479TIP3   OH267927   2.255   5.619  12.802 -0.3780 -0.4180  0.3468
15479TIP3    H167928   2.315   5.549  12.777 -0.1350 -0.7279  1.7170
15479TIP3    H267929   2.305   5.675  12.861 -0.4558  1.1540 -0.9764
15480TIP3   OH267930   4.099   6.644   5.215 -0.1255  0.1822 -0.1815
15480TIP3    H167931   4.042   6.643   5.292 -1.0006  0.6571 -0.8140
15480TIP3    H267932   4.046   6.607   5.145  0.6126 -0.1022 -0.6004
15481TIP3   OH267933   1.865   1.184   0.176  0.3629 -0.2581  0.4113
15481TIP3    H167934   1.873   1.089   0.179 -0.3007 -0.3644  4.9267
15481TIP3    H267935   1.787   1.200   0.122 -2.5926 -2.7642  3.4878
15482TIP3   OH267936   0.105   6.027  12.457  0.2382 -0.7922 -0.1616
15482TIP3    H167937   0.095   6.078  12.377  1.9024  0.1139  0.1614
15482TIP3    H267938   0.059   6.078  12.524  0.8968 -0.3093 -0.0732
15483TIP3   OH267939   0.381   3.943  11.569 -0.0436 -0.3020 -0.4357
15483TIP3    H167940   0.445   3.929  11.638 -0.1838 -1.4834 -0.5284
15483TIP3    H267941   0.364   4.037  11.572  2.8605  0.3601 -1.4652
15484TIP3   OH267942   5.691   2.943  12.410  0.7335  0.2620  0.1233
15484TIP3    H167943   5.768   2.901  12.448 -0.4578 -1.3106  0.9311
15484TIP3    H267944   5.704   2.936  12.315  1.4844 -0.1736  0.2494
15485TIP3   OH267945   0.971   1.515   0.074 -0.3287  0.1285 -0.0263
15485TIP3    H167946   1.040   1.537   0.012 -0.7472 -0.4035 -0.6964
15485TIP3    H267947   1.000   1.553   0.157  0.5730  0.2437 -0.3836
15486TIP3   OH267948   1.545   2.139   3.396 -0.1055 -0.1776 -0.7796
15486TIP3    H167949   1.540   2.115   3.304 -0.3593 -0.0486 -0.7992
15486TIP3    H267950   1.522   2.231   3.399  0.3564 -0.0635 -0.6395
15487TIP3   OH267951   6.049   4.537  15.014  0.3319 -0.0861 -0.3882
15487TIP3    H167952   6.062   4.625  14.978 -0.0938  0.3504  0.4825
15487TIP3    H267953   5.957   4.535  15.039  0.7433 -0.1281  1.2384
15488TIP3   OH267954   5.779   1.969   0.310  0.3526  0.4468  0.4039
15488TIP3    H167955   5.842   1.921   0.257 -1.1869 -1.0924 -0.1229
15488TIP3    H267956   5.826   1.989   0.391  1.5579 -0.4700 -0.0477
15489TIP3   OH267957   1.777   6.608  15.817 -0.3263 -0.4350  0.0723
15489TIP3    H167958   1.837   6.682  15.822  1.1517 -1.4644 -1.1727
15489TIP3    H267959   1.803   6.551  15.889  1.6288 -1.8099 -1.6059
15490TIP3   OH267960   0.535   4.434  11.245  0.0109  0.0095 -0.4164
15490TIP3    H167961   0.453   4.470  11.210  0.5368 -0.2894 -2.0380
15490TIP3    H267962   0.536   4.344  11.213  0.4307 -0.3465  0.5757
15491TIP3   OH267963   5.706   6.218   0.611  0.2670  0.4497 -0.5133
15491TIP3    H167964   5.781   6.160   0.615  1.2001  1.6517  0.2016
15491TIP3    H267965   5.637   6.167   0.568  1.4259 -0.7319 -1.0041
15492TIP3   OH267966   4.567   6.158   0.699  0.1651  0.1095  0.0802
15492TIP3    H167967   4.498   6.096   0.724  0.9851 -1.1131 -0.5663
15492TIP3    H267968   4.536   6.243   0.729 -1.1849 -0.5614  0.6387
15493TIP3   OH267969   4.218   2.974   3.164  0.1452  0.1429 -0.0324
15493TIP3    H167970   4.180   2.894   3.127  0.1283  0.3797 -0.5342
15493TIP3    H267971   4.275   2.943   3.235 -0.9470 -0.2231  0.7272
15494TIP3   OH267972   3.632   0.766   0.278 -0.0576 -0.7479 -0.0930
15494TIP3    H167973   3.708   0.811   0.314  0.2925 -0.3948 -1.2425
15494TIP3    H267974   3.663   0.726   0.197 -0.7055 -1.9620  0.2317
15495TIP3   OH267975   5.071   5.462   2.339  0.4202  0.3312  0.3628
15495TIP3    H167976   5.149   5.509   2.369  0.6169  0.8250 -0.8468
15495TIP3    H267977   5.010   5.531   2.312  0.0489 -0.0735  0.1481
15496TIP3   OH267978   0.778   5.578   5.110  0.0116  0.6649  0.4090
15496TIP3    H167979   0.794   5.484   5.124 -1.0326 -0.0275 -2.4272
15496TIP3    H267980   0.866   5.617   5.109  0.5715 -0.5498  0.0300
15497TIP3   OH267981   0.103   3.075  16.952  0.1775 -0.0863  0.4733
15497TIP3    H167982   0.027   3.048  17.004 -0.0088  1.4184  1.0116
15497TIP3    H267983   0.153   3.132  17.010  1.9853 -1.3767  0.2801
15498TIP3   OH267984   5.096   3.747   1.282  0.4693 -0.1816 -0.4733
15498TIP3    H167985   5.139   3.821   1.240 -0.7165 -0.2958 -1.9592
15498TIP3    H267986   5.006   3.750   1.250  0.1010 -1.5808  0.3578
15499TIP3   OH267987   2.615   2.559   3.432 -0.6573 -0.5068  0.3778
15499TIP3    H167988   2.689   2.614   3.460 -0.2952 -0.0693 -1.3469
15499TIP3    H267989   2.654   2.472   3.419 -0.6062 -0.4626  0.2329
15500TIP3   OH267990   0.218   4.975  11.334  0.6552  0.4147 -0.4702
15500TIP3    H167991   0.240   4.963  11.242  3.4447 -0.4880  0.2218
15500TIP3    H267992   0.249   5.063  11.355 -0.9351  1.0369 -0.5967
15501TIP3   OH267993   0.505   2.777   1.218  0.3130 -0.1308 -0.0841
15501TIP3    H167994   0.437   2.844   1.225  0.6573  0.2598 -0.4701
15501TIP3    H267995   0.472   2.705   1.272  0.3607  0.6891  1.0759
15502TIP3   OH267996   6.789   4.094   5.328  0.3403 -0.0388 -0.5910
15502TIP3    H167997   6.752   4.062   5.246  2.2517 -0.9441 -1.1591
15502TIP3    H267998   6.780   4.020   5.388 -0.4134  0.3822 -0.1637
15503TIP3   OH267999   0.775   3.776  10.755  0.4039 -0.5830  0.5123
15503TIP3    H168000   0.713   3.843  10.728  0.7051 -0.9116 -1.0999
15503TIP3    H268001   0.724   3.716  10.810  0.2883  1.2615  2.5425
15504TIP3   OH268002   5.749   1.760  11.289  0.5250  0.8275 -0.0885
15504TIP3    H168003   5.766   1.836  11.345  3.7597  1.5176 -1.7563
15504TIP3    H268004   5.824   1.702  11.305 -1.4622 -1.7445  0.5504
15505TIP3   OH268005   1.762   0.246   2.656 -0.7416 -0.1864 -0.5230
15505TIP3    H168006   1.701   0.207   2.594 -0.8694  1.4081 -1.4475
15505TIP3    H268007   1.817   0.303   2.604  0.0169  0.2037  0.6519
15506TIP3   OH268008   5.716   0.138   3.005  0.1485 -0.3051 -0.0552
15506TIP3    H168009   5.716   0.225   2.965  0.5457  1.2924  3.1593
15506TIP3    H268010   5.738   0.079   2.933 -0.8591  2.1210 -2.5260
15507TIP3   OH268011   1.969   0.877   3.538  0.0202  0.0550 -0.1835
15507TIP3    H168012   1.991   0.952   3.593 -1.5210  0.9065 -0.6765
15507TIP3    H268013   1.991   0.904   3.449  0.4099 -0.4703 -0.2538
15508TIP3   OH268014   1.832   0.019   3.976 -0.2338 -0.2792  0.0078
15508TIP3    H168015   1.824  -0.044   3.905 -3.3142 -0.5797  0.4952
15508TIP3    H268016   1.774   0.091   3.950 -1.0734 -0.1981  1.9389
15509TIP3   OH268017   6.609   4.334   1.755 -0.2108 -0.1764 -0.0107
15509TIP3    H168018   6.532   4.282   1.734  1.0348 -1.2598 -2.2992
15509TIP3    H268019   6.596   4.417   1.709 -1.0147  0.5811  1.5143
15510TIP3   OH268020   6.396   6.288  11.291 -0.4030  0.1855  0.1328
15510TIP3    H168021   6.442   6.305  11.209 -0.2215  0.7138  0.3367
15510TIP3    H268022   6.466   6.268  11.354 -0.2876  2.3390  0.7826
15511TIP3   OH268023   2.539   2.203   5.061  0.4070  0.3311  0.3749
15511TIP3    H168024   2.487   2.146   5.005  0.9925 -1.5572  1.6457
15511TIP3    H268025   2.482   2.224   5.135  0.5578  0.4876  0.4508
15512TIP3   OH268026   6.308   5.195   4.101 -0.1503  0.0116  0.3583
15512TIP3    H168027   6.220   5.231   4.110  0.7407  2.2118  0.8462
15512TIP3    H268028   6.341   5.230   4.019  0.7386  0.3059  0.8244
15513TIP3   OH268029   2.998   1.031   3.184  0.4796  0.3579 -0.0795
15513TIP3    H168030   2.905   1.051   3.190  0.3338 -0.1634 -0.5280
15513TIP3    H268031   3.003   0.954   3.126  1.0472 -0.6769  1.2958
15514TIP3   OH268032   3.114   0.980  13.487 -0.1189  0.3400 -0.3656
15514TIP3    H168033   3.055   1.042  13.443  0.2307  1.9813  1.3485
15514TIP3    H268034   3.201   1.018  13.475  0.1799 -0.1943  0.1055
15515TIP3   OH268035   0.680   4.440  16.060 -0.3483 -0.2704 -0.1394
15515TIP3    H168036   0.673   4.535  16.070  1.1615 -0.1760  0.3496
15515TIP3    H268037   0.691   4.427  15.966  1.6233  0.2645 -0.0294
15516TIP3   OH268038   0.354   5.433  13.200  0.6482  0.1016 -0.0151
15516TIP3    H168039   0.444   5.459  13.180  0.9601 -1.4561 -0.7762
15516TIP3    H268040   0.360   5.340  13.224 -0.7821 -0.0901 -0.2992
15517TIP3   OH268041   6.545   2.010   1.191  0.1421  0.4285  0.2019
15517TIP3    H168042   6.499   2.036   1.111  0.8895 -0.0580 -0.4069
15517TIP3    H268043   6.526   2.079   1.254  0.2950  1.2987 -0.6831
15518TIP3   OH268044   2.023   1.348   6.342 -0.6199  0.2718 -0.0317
15518TIP3    H168045   2.088   1.286   6.374 -0.7909 -0.7519 -1.5557
15518TIP3    H268046   2.073   1.426   6.319 -0.3019  0.4548  1.2384
15519TIP3   OH268047   2.281   2.073  14.137  0.4366  0.3553 -0.0080
15519TIP3    H168048   2.252   2.005  14.197 -0.5033  0.0288 -0.8070
15519TIP3    H268049   2.214   2.076  14.069  0.2889  2.2635  0.1426
15520TIP3   OH268050   3.752   0.552   4.780 -0.1897 -0.4560 -0.3591
15520TIP3    H168051   3.740   0.529   4.688 -0.2815  0.9005 -0.7172
15520TIP3    H268052   3.783   0.472   4.821 -1.8247 -1.5804 -1.2082
15521TIP3   OH268053   6.373   5.586  12.755  0.4949 -0.2965 -0.1346
15521TIP3    H168054   6.427   5.596  12.833  1.0164 -0.1883 -0.5010
15521TIP3    H268055   6.436   5.582  12.683  0.0015  0.0603 -0.5932
15522TIP3   OH268056   5.997   1.587   1.351  0.3081  0.0839  0.5453
15522TIP3    H168057   6.001   1.656   1.417 -1.6711 -0.8789  1.7810
15522TIP3    H268058   5.925   1.530   1.380  2.2244 -2.8843 -0.0405
15523TIP3   OH268059   1.745   2.242  14.388  0.0372 -0.3004 -0.5702
15523TIP3    H168060   1.832   2.257  14.425  0.4149  0.7479 -1.8076
15523TIP3    H268061   1.703   2.329  14.389 -0.7158 -0.6530 -0.6695
15524TIP3   OH268062   3.218   1.910  13.273  0.2668 -0.5885 -0.3222
15524TIP3    H168063   3.311   1.914  13.254  0.2310 -0.0880 -0.4167
15524TIP3    H268064   3.210   1.946  13.361  0.4344 -2.8981  0.7131
15525TIP3   OH268065   2.920   1.614  16.224 -0.3206 -0.0151  0.0447
15525TIP3    H168066   2.829   1.585  16.215 -0.0590 -1.0932  0.6072
15525TIP3    H268067   2.940   1.601  16.316  0.2835  0.6132  0.0107
15526TIP3   OH268068   5.298   5.256   3.385  0.7408  0.8252  0.3841
15526TIP3    H168069   5.291   5.314   3.309 -0.2683  2.1703  1.4684
15526TIP3    H268070   5.280   5.169   3.350 -3.0538  1.7708 -0.4442
15527TIP3   OH268071   0.823   5.862   0.353 -0.2338 -0.0310  0.3446
15527TIP3    H168072   0.798   5.802   0.424  0.8757  0.0358  0.8074
15527TIP3    H268073   0.814   5.809   0.273 -0.5410 -0.4060  0.6180
15528TIP3   OH268074   0.722   5.559  11.607 -0.0794 -0.1747 -0.0182
15528TIP3    H168075   0.746   5.651  11.595  4.1752 -1.1418 -0.7886
15528TIP3    H268076   0.731   5.521  11.520 -1.0393 -1.4860  0.4269
15529TIP3   OH268077   0.411   2.065   4.131 -0.1444  0.5418  0.3275
15529TIP3    H168078   0.405   2.127   4.058 -0.7454 -0.2464 -0.3132
15529TIP3    H268079   0.450   1.987   4.092 -1.4586 -0.2714  0.5847
15530TIP3   OH268080   0.271   1.494   2.086  0.1365  0.5389  0.5266
15530TIP3    H168081   0.360   1.519   2.111  0.5380 -2.5203  2.7228
15530TIP3    H268082   0.215   1.564   2.121  1.5869  2.7508 -1.2878
15531TIP3   OH268083   5.639   4.951  16.421 -0.5516  0.1431  0.0280
15531TIP3    H168084   5.696   4.878  16.443 -2.9287 -1.8465 -0.0813
15531TIP3    H268085   5.661   4.973  16.331  0.0672 -0.5253  0.0155
15532TIP3   OH268086   4.825   1.832   0.627  0.0709  0.7651 -0.1686
15532TIP3    H168087   4.784   1.917   0.647  1.8279  1.4915  0.5265
15532TIP3    H268088   4.903   1.829   0.682  0.3010 -1.1221 -0.5308
15533TIP3   OH268089   2.603   3.361   3.822  0.0873  0.7307  0.8786
15533TIP3    H168090   2.642   3.335   3.738 -0.8731 -1.5158  1.0446
15533TIP3    H268091   2.574   3.279   3.861 -0.8618  1.8821  2.7426
15534TIP3   OH268092   0.831   4.500   3.936  0.0042 -0.1632 -0.1524
15534TIP3    H168093   0.857   4.590   3.956  0.6908 -0.6920  1.4834
15534TIP3    H268094   0.735   4.503   3.934  0.0118  1.0397 -2.4687
15535TIP3   OH268095   2.481   3.513   4.019  0.1358  0.4923  0.3525
15535TIP3    H168096   2.513   3.469   3.940 -0.8787  0.8866 -0.2938
15535TIP3    H268097   2.433   3.445   4.066 -1.8407  0.9478 -0.8796
15536TIP3   OH268098   6.581   0.349   6.006  0.1679 -0.2971 -0.2818
15536TIP3    H168099   6.674   0.367   5.996  0.2756 -0.5971  0.1645
15536TIP3    H268100   6.560   0.380   6.094 -0.1083 -0.4278 -0.3013
15537TIP3   OH268101   3.144   0.497   1.712 -0.0393 -0.2959  0.3031
15537TIP3    H168102   3.232   0.526   1.736 -0.1469  0.1238  0.1896
15537TIP3    H268103   3.157   0.445   1.632  0.0040  0.4888 -0.2074
15538TIP3   OH268104   3.244   3.259   2.331 -0.3942 -0.4446  0.1362
15538TIP3    H168105   3.200   3.215   2.403 -0.7424 -0.2138  0.0641
15538TIP3    H268106   3.187   3.244   2.255 -1.1201  1.1107  0.3451
15539TIP3   OH268107   1.693   3.546  13.896 -0.1940 -0.1046  0.1194
15539TIP3    H168108   1.609   3.508  13.923 -0.7919  0.4175 -0.9540
15539TIP3    H268109   1.734   3.479  13.841 -0.1095 -0.1790  0.2717
15540TIP3   OH268110   3.384   1.494   2.825 -0.2722 -0.4654  0.0954
15540TIP3    H168111   3.375   1.556   2.753  2.8973 -1.1081 -0.9910
15540TIP3    H268112   3.433   1.421   2.788  0.6299 -1.2603  2.6623
15541TIP3   OH268113   1.874   3.255   0.986 -0.5024 -0.0401  0.0617
15541TIP3    H168114   1.895   3.252   1.079 -0.8849 -1.5984  0.1305
15541TIP3    H268115   1.956   3.236   0.941 -0.5521 -0.4169  0.1277
15542TIP3   OH268116   6.660   2.855   0.442  0.5323 -0.1608 -0.0074
15542TIP3    H168117   6.610   2.793   0.497 -0.0749 -0.6202 -1.0388
15542TIP3    H268118   6.751   2.826   0.451  0.2951 -1.0047 -0.2067
15543TIP3   OH268119   0.807   1.928   3.780 -0.0584  0.4325  0.0452
15543TIP3    H168120   0.712   1.929   3.781 -0.0935  0.9240  2.2486
15543TIP3    H268121   0.832   2.015   3.748 -0.3392  0.3388 -0.4369
15544TIP3   OH268122   4.848   4.069   2.667  0.3507  0.0634  0.6186
15544TIP3    H168123   4.857   4.063   2.762  2.4198  2.1508  0.6675
15544TIP3    H268124   4.757   4.094   2.652 -0.1035 -0.6721  1.9889
15545TIP3   OH268125   5.303   5.961   0.674  0.7961 -0.1655 -0.7082
15545TIP3    H168126   5.214   5.948   0.639  0.2947 -1.5776  0.9616
15545TIP3    H268127   5.358   5.972   0.596 -0.7471  0.1249 -1.8021
15546TIP3   OH268128   2.220   2.270  13.280 -0.2354  0.2397 -1.1412
15546TIP3    H168129   2.316   2.265  13.276 -0.1711  0.9091 -0.5757
15546TIP3    H268130   2.191   2.181  13.260  0.5302 -0.1174 -0.7193
15547TIP3   OH268131   4.153   0.123  15.351 -0.0973  0.6161 -0.3145
15547TIP3    H168132   4.173   0.155  15.440  0.8969  1.0098 -0.6640
15547TIP3    H268133   4.099   0.193  15.313 -0.3972  0.5179 -0.0750
15548TIP3   OH268134   1.468   1.626  13.872  0.8277  0.1661 -0.1722
15548TIP3    H168135   1.415   1.704  13.856 -1.2253 -0.7067  1.7117
15548TIP3    H268136   1.405   1.561  13.904  2.4341 -2.3030 -1.6427
15549TIP3   OH268137   0.027   6.678   3.997  0.1403 -0.6060 -0.4344
15549TIP3    H168138  -0.013   6.732   3.928 -1.0714 -0.8383  0.0659
15549TIP3    H268139   0.075   6.740   4.052 -1.7576  0.0907  0.5029
15550TIP3   OH268140   4.910   3.899   5.855  0.0849  0.2381 -0.0415
15550TIP3    H168141   4.920   3.992   5.875 -1.0059  0.1201  1.1998
15550TIP3    H268142   4.922   3.855   5.940 -3.7500 -0.3854  0.3594
15551TIP3   OH268143   2.930   2.130  14.922 -0.0914  0.1339  0.6082
15551TIP3    H168144   2.884   2.142  14.839 -0.4498 -1.0688  0.6175
15551TIP3    H268145   2.986   2.054  14.908  1.9036  1.5117  0.6281
15552TIP3   OH268146   2.991   6.503  11.654  0.1752  0.4330  0.0791
15552TIP3    H168147   2.931   6.430  11.672 -0.2300  0.5418 -0.8108
15552TIP3    H268148   2.938   6.582  11.667  0.5046  0.5661  0.6397
15553TIP3   OH268149   0.119   0.362  10.533 -0.0187 -0.2126  0.1064
15553TIP3    H168150   0.200   0.388  10.489  0.4588 -2.4916 -0.5002
15553TIP3    H268151   0.064   0.440  10.530  1.4763  0.8574 -1.0964
15554TIP3   OH268152   1.485   3.127   3.702 -0.0245 -0.2718 -0.4673
15554TIP3    H168153   1.459   3.078   3.779  0.3559  1.5391  0.8731
15554TIP3    H268154   1.486   3.219   3.730 -0.1789  0.4915 -2.7073
15555TIP3   OH268155   6.093   1.005   0.968 -0.8728 -0.1038  0.0018
15555TIP3    H168156   6.137   0.925   0.941 -1.6053  0.3375 -2.8775
15555TIP3    H268157   6.029   0.977   1.034  0.1181 -1.5610  0.3776
15556TIP3   OH268158   3.536   3.687   5.238  0.0243  0.2976 -0.4134
15556TIP3    H168159   3.603   3.750   5.263 -0.1577  0.5611 -0.5917
15556TIP3    H268160   3.455   3.721   5.275 -0.1190  0.3018 -0.7288
15557TIP3   OH268161   1.409   6.779   5.528 -0.8255  0.0034 -0.2573
15557TIP3    H168162   1.472   6.720   5.486 -0.3728  0.4403 -0.2055
15557TIP3    H268163   1.408   6.752   5.619 -0.1036  0.5067 -0.0921
15558TIP3   OH268164   5.635   1.756  16.534  0.3144 -0.0812 -0.1324
15558TIP3    H168165   5.612   1.664  16.523  0.5278  0.0639 -2.1511
15558TIP3    H268166   5.640   1.769  16.629  2.3265 -2.6682  0.2150
15559TIP3   OH268167   0.081   0.432  13.360 -0.0018 -0.7789  0.3769
15559TIP3    H168168   0.005   0.430  13.418 -0.6025 -0.3213 -0.3764
15559TIP3    H268169   0.058   0.373  13.288 -0.4422  0.7477 -0.7878
15560TIP3   OH268170   5.427   0.268   1.827 -0.4175  0.2349 -1.0207
15560TIP3    H168171   5.391   0.217   1.755  1.0686 -1.2114 -0.7940
15560TIP3    H268172   5.474   0.339   1.785 -2.8834  1.8169 -1.3292
15561TIP3   OH268173   5.717   0.810  12.219 -0.5972 -0.4140  0.0161
15561TIP3    H168174   5.782   0.777  12.159 -0.6961  0.3465 -0.5234
15561TIP3    H268175   5.663   0.870  12.167 -2.4391 -1.8617  0.1425
15562TIP3   OH268176   5.017   5.781  12.502 -0.1483  0.0318 -0.4713
15562TIP3    H168177   5.039   5.834  12.425 -0.8195  0.3298 -0.4641
15562TIP3    H268178   5.010   5.691  12.467 -0.9673  0.2377 -0.8725
15563TIP3   OH268179   5.425   5.520   0.360 -0.8103 -0.3168 -0.4556
15563TIP3    H168180   5.346   5.557   0.400  0.5382  1.9535  0.3194
15563TIP3    H268181   5.419   5.544   0.268 -1.0723 -0.2661 -0.4267
15564TIP3   OH268182   2.788   3.321   1.500  0.0509  0.2144 -0.1703
15564TIP3    H168183   2.805   3.415   1.505 -1.1056  0.6162 -2.4505
15564TIP3    H268184   2.694   3.315   1.484  0.0544 -1.3609  0.3081
15565TIP3   OH268185   4.556   4.782   5.766  0.0888  0.0417 -0.4124
15565TIP3    H168186   4.567   4.702   5.715 -0.8755  0.5743 -1.5133
15565TIP3    H268187   4.609   4.847   5.719 -0.5014  0.4514 -0.5159
15566TIP3   OH268188   3.922   1.171  11.149  0.0828  0.2695 -0.1160
15566TIP3    H168189   3.945   1.082  11.177 -0.3683  0.3750  0.6257
15566TIP3    H268190   3.937   1.225  11.227 -2.0298  0.4367  0.2483
15567TIP3   OH268191   1.339   2.000  14.287  0.0824 -0.3409  0.1553
15567TIP3    H168192   1.380   2.069  14.234 -0.7338  0.2675  0.3074
15567TIP3    H268193   1.358   2.025  14.377  0.6632 -0.8771  0.1914
15568TIP3   OH268194   4.528   0.099   3.436 -0.3860  0.0223  0.6456
15568TIP3    H168195   4.465   0.143   3.493  0.6829  0.2579  1.6848
15568TIP3    H268196   4.607   0.091   3.489  0.2162 -0.9786 -0.3577
15569TIP3   OH268197   0.195   1.310  15.810 -0.0461 -0.8693  0.7974
15569TIP3    H168198   0.179   1.289  15.718  0.7174  1.1097  0.1473
15569TIP3    H268199   0.233   1.230  15.847  1.6739 -1.0698 -1.1975
15570TIP3   OH268200   6.246   4.644  15.952 -0.8658 -0.5313 -0.0124
15570TIP3    H168201   6.263   4.551  15.967  0.9796 -0.2378 -0.0490
15570TIP3    H268202   6.184   4.646  15.879 -0.8951 -1.7275 -0.0422
15571TIP3   OH268203   3.982   1.088  14.190  0.2294  0.0083  0.1482
15571TIP3    H168204   3.954   1.012  14.240 -0.5087 -0.0605 -0.3631
15571TIP3    H268205   4.077   1.093  14.206  0.4715 -1.5949 -0.5894
15572TIP3   OH268206   5.570   6.019   3.971 -0.1795 -0.3157 -0.5665
15572TIP3    H168207   5.493   6.072   3.992 -0.5747 -1.2895  0.5504
15572TIP3    H268208   5.572   5.952   4.040  1.2509 -0.7430 -1.0026
15573TIP3   OH268209   0.543   1.317   5.396 -0.1833 -0.1840 -0.1306
15573TIP3    H168210   0.552   1.290   5.487  0.4561 -2.4923 -0.8221
15573TIP3    H268211   0.525   1.236   5.348  1.1914  0.6959 -2.2877
15574TIP3   OH268212   3.510   1.312   1.665  0.4795  0.4451  0.5720
15574TIP3    H168213   3.479   1.235   1.713 -0.5837  0.6139  0.1951
15574TIP3    H268214   3.433   1.341   1.615  1.3008  0.8252 -0.4963
15575TIP3   OH268215   6.480   2.262  12.156  0.0377 -0.2986 -0.0631
15575TIP3    H168216   6.430   2.312  12.220  0.6544  0.7940 -0.4220
15575TIP3    H268217   6.571   2.269  12.185  0.4282  0.8664 -1.4442
15576TIP3   OH268218   0.133   4.828  12.382  0.3486 -0.3011  0.2423
15576TIP3    H168219   0.140   4.909  12.331  0.6050 -0.1294  0.5416
15576TIP3    H268220   0.040   4.823  12.406  0.4333  0.2011  0.6914
15577TIP3   OH268221   2.317   0.497  13.073 -0.0258  0.2982  0.5424
15577TIP3    H168222   2.336   0.584  13.108 -1.5954  1.3551 -1.0546
15577TIP3    H268223   2.304   0.511  12.979 -1.1380 -1.4997  0.3744
15578TIP3   OH268224   3.460   2.796  10.786 -0.2470  0.4764  0.1773
15578TIP3    H168225   3.480   2.829  10.698  0.2084 -0.5772 -0.1256
15578TIP3    H268226   3.532   2.828  10.840 -1.0305  1.9549  0.3913
15579TIP3   OH268227   0.412   4.007  14.916 -0.4342 -0.0073 -0.4849
15579TIP3    H168228   0.439   3.979  14.829 -1.9036  2.5906 -1.8825
15579TIP3    H268229   0.469   4.081  14.936 -0.0477 -0.6302  0.8505
15580TIP3   OH268230   0.563   0.343  15.278 -0.1710  0.8222  0.1272
15580TIP3    H168231   0.498   0.377  15.339 -1.9061  1.8362 -2.1555
15580TIP3    H268232   0.526   0.260  15.247  1.5120 -0.5772  1.6294
15581TIP3   OH268233   6.453   3.326  15.846 -0.2436  0.2830  0.3846
15581TIP3    H168234   6.475   3.341  15.754 -2.4464  2.2071  0.0752
15581TIP3    H268235   6.389   3.255  15.844  1.2128 -1.0778  0.6762
15582TIP3   OH268236   3.533   5.088   2.361  0.0917  0.1655  0.3299
15582TIP3    H168237   3.463   5.123   2.306 -0.0668 -0.9833 -0.2285
15582TIP3    H268238   3.491   5.067   2.444  0.0619  0.7043  0.4560
15583TIP3   OH268239   6.656   5.950   4.612 -0.5204 -0.3404 -0.2361
15583TIP3    H168240   6.700   6.016   4.559 -0.6706 -0.8077 -0.9583
15583TIP3    H268241   6.565   5.977   4.614 -0.2748  0.4823  1.0379
15584TIP3   OH268242   0.515   4.346   2.168 -0.2455  0.9116 -0.2986
15584TIP3    H168243   0.579   4.360   2.238 -2.1764  0.8703  1.5725
15584TIP3    H268244   0.454   4.282   2.203 -1.6931  1.4231 -1.7620
15585TIP3   OH268245   3.069   0.151   1.161 -0.0513 -0.2255 -0.0238
15585TIP3    H168246   3.132   0.222   1.155 -0.8427  0.4982  0.0770
15585TIP3    H268247   3.010   0.176   1.232 -1.4483 -0.0444 -1.1932
15586TIP3   OH268248   6.029   5.910  16.068  0.1462  0.1622 -0.5856
15586TIP3    H168249   6.022   5.912  16.164 -1.3648 -0.5221 -0.6465
15586TIP3    H268250   6.017   6.000  16.041  1.2925  0.4725 -0.1033
15587TIP3   OH268251   3.305   4.420  12.352  0.0229  0.0112  0.4716
15587TIP3    H168252   3.235   4.468  12.397 -0.2098  0.3482 -0.2222
15587TIP3    H268253   3.281   4.427  12.259 -0.3688 -2.0045  0.3901
15588TIP3   OH268254   5.213   2.191  16.864 -0.3696  0.6331  0.0319
15588TIP3    H168255   5.152   2.153  16.928 -0.3227 -0.1744 -0.4044
15588TIP3    H268256   5.206   2.286  16.879 -0.5203  0.4665  1.0857
15589TIP3   OH268257   4.210   4.647   0.289  0.4058  0.4275 -0.5080
15589TIP3    H168258   4.200   4.565   0.240 -0.4131 -0.4196  0.9987
15589TIP3    H268259   4.255   4.622   0.370 -2.1347  0.9162  1.1774
15590TIP3   OH268260   2.195   1.688  13.493  0.3114 -0.4633 -0.2825
15590TIP3    H168261   2.214   1.624  13.425  1.1612 -1.5524  0.9346
15590TIP3    H268262   2.161   1.636  13.566 -1.0766  0.7345 -0.0411
15591TIP3   OH268263   0.290   4.984   0.843  0.7179  0.2296  0.3541
15591TIP3    H168264   0.299   4.908   0.900 -1.6340 -1.3564 -1.2050
15591TIP3    H268265   0.221   5.036   0.882  0.3210  0.0399 -0.0775
15592TIP3   OH268266   4.250   3.799   5.221  0.2022 -0.5900  0.2816
15592TIP3    H168267   4.275   3.883   5.259 -2.0615  2.0770 -3.4672
15592TIP3    H268268   4.160   3.785   5.249 -0.9401  0.6040 -2.4372
15593TIP3   OH268269   2.056   6.022   4.716  0.1140 -0.0587 -0.0240
15593TIP3    H168270   2.146   6.016   4.684  0.0088  1.1485 -0.6409
15593TIP3    H268271   2.051   6.109   4.757 -0.3719 -0.7030  1.3342
15594TIP3   OH268272   4.776   2.097  14.972  0.1501  0.2033 -0.0335
15594TIP3    H168273   4.772   2.070  15.064  0.2005  0.8212  0.1523
15594TIP3    H268274   4.869   2.113  14.957 -0.0103  1.4611  0.2113
15595TIP3   OH268275   0.707   4.078   3.337 -0.4436 -0.0132 -0.1617
15595TIP3    H168276   0.791   4.104   3.300 -0.0468 -0.7210  0.2311
15595TIP3    H268277   0.649   4.071   3.262  0.1450 -0.6308 -0.5758
15596TIP3   OH268278   1.315   0.081  10.741  0.4815 -0.4455  0.2385
15596TIP3    H168279   1.302   0.174  10.759  1.1533 -0.4663  0.9144
15596TIP3    H268280   1.340   0.078  10.649 -0.7452 -0.0853 -0.1202
15597TIP3   OH268281   6.358   3.547   0.086  0.0831  0.9556  0.0992
15597TIP3    H168282   6.281   3.497   0.059  0.0188  1.5766 -0.9024
15597TIP3    H268283   6.431   3.487   0.076 -0.4879 -0.5722  3.6130
15598TIP3   OH268284   2.777   4.405   0.495  0.7320  0.0754 -0.0655
15598TIP3    H168285   2.869   4.393   0.471  0.7420 -0.3020  0.1532
15598TIP3    H268286   2.770   4.497   0.519  1.4509 -0.2618  1.5872
15599TIP3   OH268287   6.808   0.948   0.648  0.0078  0.4930  0.1053
15599TIP3    H168288   6.757   0.867   0.652  2.4230 -1.1295 -0.1579
15599TIP3    H268289   6.821   0.972   0.740 -0.4544  0.4252  0.1928
15600TIP3   OH268290   3.149   2.854  13.299 -0.0679 -0.1407 -0.3899
15600TIP3    H168291   3.129   2.811  13.216  1.2053 -2.3016  0.3280
15600TIP3    H268292   3.241   2.833  13.315  0.0940  1.3838  0.9311
15601TIP3   OH268293   0.548   3.901  11.775 -0.0562 -0.6422 -0.3618
15601TIP3    H168294   0.543   3.825  11.832  0.0970 -1.0350 -0.8633
15601TIP3    H268295   0.635   3.938  11.792 -0.0726 -0.6676 -0.2263
15602TIP3   OH268296   4.725   5.714   4.179 -0.0470 -0.1946 -0.1924
15602TIP3    H168297   4.768   5.702   4.094 -0.6696 -0.0181 -0.5422
15602TIP3    H268298   4.786   5.678   4.243  1.3668  1.5301 -0.4986
15603TIP3   OH268299   5.702   3.187  14.567  0.3565  0.4462  0.2233
15603TIP3    H168300   5.641   3.138  14.622  0.4037 -1.5355 -1.3499
15603TIP3    H268301   5.686   3.153  14.479  1.7567  1.9511 -0.6558
15604TIP3   OH268302   3.762   0.028  16.896  0.1851  0.3732  0.0097
15604TIP3    H168303   3.722   0.108  16.862  0.1411  0.1650 -0.4372
15604TIP3    H268304   3.844   0.020  16.847  1.4040  1.4414  1.7448
15605TIP3   OH268305   1.338   0.825   2.158  0.0782  0.6973  0.1808
15605TIP3    H168306   1.269   0.797   2.218 -0.7733  2.3084  0.0129
15605TIP3    H268307   1.347   0.753   2.096 -1.5270  0.4855  0.1573
15606TIP3   OH268308   6.220   6.233   2.245  0.3051  0.2989  0.5547
15606TIP3    H168309   6.264   6.159   2.203 -2.4585 -1.6854  0.8698
15606TIP3    H268310   6.182   6.282   2.173  0.1660  0.0518  0.4595
15607TIP3   OH268311   2.804   2.740   3.560  0.0413 -0.0759  0.1598
15607TIP3    H168312   2.774   2.720   3.649  1.0182 -1.9081  0.1214
15607TIP3    H268313   2.888   2.784   3.573  0.5407 -1.0093  0.1455
15608TIP3   OH268314   3.536   3.546   4.586  0.5256  0.0631 -0.0151
15608TIP3    H168315   3.488   3.602   4.647  0.5935  1.1004 -0.8891
15608TIP3    H268316   3.490   3.462   4.590  0.0109  0.3684  0.8164
15609TIP3   OH268317   5.966   6.575  13.519 -0.4998  0.6355 -0.1745
15609TIP3    H168318   6.053   6.616  13.524 -0.7652  1.4078 -1.3509
15609TIP3    H268319   5.907   6.647  13.497 -1.1922 -0.1500 -0.9617
15610TIP3   OH268320   2.587   4.394  16.775 -0.0924  0.0106 -0.2680
15610TIP3    H168321   2.578   4.478  16.819  0.7653  0.8099 -1.5355
15610TIP3    H268322   2.513   4.390  16.715  0.1763  0.1206 -0.6092
15611TIP3   OH268323   2.663   6.678   5.335 -0.2825 -0.0848 -0.0154
15611TIP3    H168324   2.699   6.674   5.423  0.1661 -0.4841 -0.2137
15611TIP3    H268325   2.722   6.735   5.287 -0.3710 -0.0907 -0.1325
15612TIP3   OH268326   5.450   4.431   2.566  0.1070  0.1587  0.7064
15612TIP3    H168327   5.365   4.431   2.522 -0.4380  1.5369  1.6809
15612TIP3    H268328   5.437   4.377   2.644 -0.4726  1.8624  1.8457
15613TIP3   OH268329   1.866   1.428  14.349 -0.1544  0.9828 -0.1627
15613TIP3    H168330   1.916   1.347  14.351 -1.4390  0.1698  0.4419
15613TIP3    H268331   1.910   1.482  14.284  1.2259  0.1403  0.0375
15614TIP3   OH268332   3.038   0.344   2.034 -0.1832 -0.5401 -0.1537
15614TIP3    H168333   3.130   0.333   2.011 -0.4589  1.3227 -2.5381
15614TIP3    H268334   2.990   0.292   1.970 -0.8637 -1.6934  1.2092
15615TIP3   OH268335   5.128   0.384  15.551  0.6838 -0.1900  0.2019
15615TIP3    H168336   5.104   0.460  15.497  0.7017 -1.2251 -1.3327
15615TIP3    H268337   5.222   0.376  15.540  0.8776  0.2667  1.3632
15616TIP3   OH268338   4.267   1.234  11.122 -1.1848 -0.0429 -0.1725
15616TIP3    H168339   4.253   1.313  11.174  0.6198  1.5542 -1.9293
15616TIP3    H268340   4.321   1.178  11.177 -1.9755  0.1687  0.8603
15617TIP3   OH268341   6.814   6.421  16.852  0.0385  0.1835  0.2210
15617TIP3    H168342   6.865   6.485  16.802 -1.3701 -0.7004 -2.5606
15617TIP3    H268343   6.867   6.342  16.851  0.2810  0.3349  0.7061
15618TIP3   OH268344   0.147   1.792  11.342  0.3867 -0.0545 -0.4685
15618TIP3    H168345   0.091   1.862  11.310 -0.0735 -0.6046 -0.8899
15618TIP3    H268346   0.218   1.837  11.389 -0.6634  0.6262  0.5023
15619TIP3   OH268347   4.823   4.854  13.517  0.3680 -0.3998 -0.4504
15619TIP3    H168348   4.820   4.791  13.445 -0.2383  0.3085 -1.0660
15619TIP3    H268349   4.843   4.938  13.474 -0.6880  0.1603  0.1031
15620TIP3   OH268350   1.093   1.351  14.589  0.0336 -0.2640  0.1678
15620TIP3    H168351   1.095   1.386  14.500 -1.0793  0.5137  0.4280
15620TIP3    H268352   1.185   1.340  14.612  0.3601  0.3659 -0.7561
15621TIP3   OH268353   2.512   3.595  12.990  0.1448 -0.7146 -0.0355
15621TIP3    H168354   2.560   3.669  13.028 -2.7622  0.2765  2.0486
15621TIP3    H268355   2.533   3.521  13.047  0.2126 -0.6231  0.0586
15622TIP3   OH268356   2.473   2.902   4.809  0.1048 -0.1525  0.5653
15622TIP3    H168357   2.486   2.818   4.854 -0.7968 -0.3148  0.5381
15622TIP3    H268358   2.379   2.905   4.791  0.5843 -0.7062 -2.5154
15623TIP3   OH268359   0.425   0.088  16.970  0.5765  0.5935  0.1845
15623TIP3    H168360   0.430   0.184  16.975 -1.7664  0.7742  0.1094
15623TIP3    H268361   0.371   0.063  17.046 -0.1040 -0.5145 -0.6385
15624TIP3   OH268362   0.437   3.102  13.725 -0.0096 -0.2817 -0.1973
15624TIP3    H168363   0.466   3.180  13.678 -1.0714  1.8754  2.4078
15624TIP3    H268364   0.470   3.115  13.814  1.0186 -3.5984  0.0229
15625TIP3   OH268365   1.073   3.539   5.765  0.1958  0.0416 -0.8348
15625TIP3    H168366   1.120   3.462   5.734 -1.9635 -1.1389 -1.3660
15625TIP3    H268367   1.089   3.540   5.860  1.2010 -0.3588 -0.9927
15626TIP3   OH268368   4.339   2.774   3.581  0.0008  0.4986  0.0972
15626TIP3    H168369   4.276   2.716   3.537 -0.3165  0.1397  1.0090
15626TIP3    H268370   4.288   2.817   3.650  0.9441 -0.5169  1.4727
15627TIP3   OH268371   0.712   2.750   4.031 -0.6050  0.4236  0.5629
15627TIP3    H168372   0.647   2.680   4.034  0.3001 -0.4061  1.1985
15627TIP3    H268373   0.702   2.787   3.943 -1.4493 -0.1534  0.4010
15628TIP3   OH268374   1.677   6.078  16.185  0.1480  0.4021 -0.6922
15628TIP3    H168375   1.659   5.996  16.229  1.9055 -0.5637 -1.6839
15628TIP3    H268376   1.620   6.077  16.108  2.8345 -1.8100 -2.8496
15629TIP3   OH268377   2.134   3.624  16.949  0.1370 -0.3219  0.1303
15629TIP3    H168378   2.220   3.666  16.963 -0.1382  0.1194  0.5725
15629TIP3    H268379   2.104   3.658  16.865 -0.7594  1.6362  1.1566
15630TIP3   OH268380   2.311   1.823  16.658  0.2598  0.1027  0.5766
15630TIP3    H168381   2.228   1.810  16.705 -0.5073 -0.2177 -0.8292
15630TIP3    H268382   2.369   1.861  16.724 -1.8521  3.1725  0.8762
15631TIP3   OH268383   6.201   6.761  13.206 -0.3285 -0.2912 -0.0301
15631TIP3    H168384   6.208   6.855  13.224  0.2688 -0.4902  0.8503
15631TIP3    H268385   6.235   6.719  13.285  1.3647 -1.2294 -1.1807
15632TIP3   OH268386   5.063   6.238  13.243 -0.0611  0.2101  0.2743
15632TIP3    H168387   5.018   6.291  13.177 -0.6371 -2.1622 -1.3546
15632TIP3    H268388   5.110   6.302  13.297 -1.5496  2.4208 -0.9006
15633TIP3   OH268389   2.157   0.415   5.614  0.1403  0.2227  0.1560
15633TIP3    H168390   2.173   0.487   5.675  1.2378  0.7719 -0.7651
15633TIP3    H268391   2.202   0.340   5.653 -1.1544 -0.0658  1.2093
15634TIP3   OH268392   6.404   0.401   1.470 -0.0376 -0.5659 -0.3398
15634TIP3    H168393   6.444   0.344   1.404 -1.8840 -0.3058 -1.7861
15634TIP3    H268394   6.315   0.366   1.480 -0.9429  1.4896 -0.6211
15635TIP3   OH268395   6.594   1.046   4.577 -0.3514 -0.0400 -0.0198
15635TIP3    H168396   6.648   1.064   4.500  0.4356 -1.4550  0.1672
15635TIP3    H268397   6.654   1.056   4.651 -0.5002 -0.9822  0.2359
15636TIP3   OH268398   5.213   0.109  17.011 -0.0796 -0.4022 -0.4415
15636TIP3    H168399   5.305   0.132  16.998  0.6439 -3.5430 -1.5968
15636TIP3    H268400   5.212   0.059  17.092 -0.6190 -1.1527 -0.9058
15637TIP3   OH268401   5.848   4.139   3.822  0.0752 -0.1977 -0.1922
15637TIP3    H168402   5.875   4.231   3.817 -0.1739 -0.1060  0.1046
15637TIP3    H268403   5.807   4.122   3.738 -1.0803  0.3568  0.2351
15638TIP3   OH268404   1.026   4.111  12.458 -0.4874 -0.4546 -0.7932
15638TIP3    H168405   0.956   4.083  12.399 -1.4247 -1.1218  0.5809
15638TIP3    H268406   0.982   4.169  12.521  0.5103  0.3524 -0.8058
15639TIP3   OH268407   1.359   2.185   1.492  0.1038  0.4233  0.0033
15639TIP3    H168408   1.325   2.230   1.415 -0.4720 -0.4235 -0.2431
15639TIP3    H268409   1.397   2.104   1.458  0.8164  0.5454  0.4876
15640TIP3   OH268410   3.575   2.955   6.629 -0.2513  0.0643  0.3636
15640TIP3    H168411   3.615   2.978   6.713  0.4562 -1.6644  0.5455
15640TIP3    H268412   3.483   2.981   6.638 -0.0249  0.5508  1.3869
15641TIP3   OH268413   5.295   6.108   3.978 -0.4232 -0.1387  0.0326
15641TIP3    H168414   5.250   6.143   3.902 -0.4275 -0.3520 -0.0625
15641TIP3    H268415   5.335   6.184   4.020  0.6178 -0.1685 -0.8653
15642TIP3   OH268416   1.747   1.429  13.541  0.6244  0.3363 -0.3818
15642TIP3    H168417   1.714   1.356  13.489  3.9102 -1.7177  0.1023
15642TIP3    H268418   1.768   1.391  13.627  0.0121  2.4938  0.8171
15643TIP3   OH268419   1.241   2.257  14.398 -0.1513 -0.2708 -0.2737
15643TIP3    H168420   1.282   2.304  14.471  2.2952 -2.1710 -0.2933
15643TIP3    H268421   1.164   2.217  14.437  0.3368 -0.1044  0.9298
15644TIP3   OH268422   4.373   4.122  14.986 -0.4854 -0.2862 -0.4756
15644TIP3    H168423   4.294   4.121  15.040  0.5366  0.9383  1.1520
15644TIP3    H268424   4.380   4.034  14.951 -1.4691 -0.9918  1.0227
15645TIP3   OH268425   0.484   0.254   0.553 -0.2963 -0.1716 -0.3446
15645TIP3    H168426   0.561   0.303   0.581 -0.8701  0.1949  0.6500
15645TIP3    H268427   0.440   0.230   0.634 -0.0999 -2.2729 -0.7958
15646TIP3   OH268428   0.939   0.205  14.046  0.3140 -0.3962  0.0203
15646TIP3    H168429   0.878   0.209  14.120  0.2503  0.2581 -0.0622
15646TIP3    H268430   0.972   0.115  14.047  0.7758 -0.2347  1.2276
15647TIP3   OH268431   6.350   6.687   1.745  0.0802  0.1544  0.3422
15647TIP3    H168432   6.443   6.689   1.721  0.7073  2.4940  2.5536
15647TIP3    H268433   6.350   6.658   1.836 -1.4813 -0.6776  0.1057
15648TIP3   OH268434   1.094   0.529  15.843 -0.1171  0.1705 -0.1070
15648TIP3    H168435   1.165   0.469  15.819 -1.0580 -1.9924  2.0438
15648TIP3    H268436   1.059   0.492  15.924 -1.8122  2.8275  0.4830
15649TIP3   OH268437   6.605   0.477  16.681  0.2884  0.2180 -0.1331
15649TIP3    H168438   6.655   0.536  16.624  1.9040 -1.2083 -0.2822
15649TIP3    H268439   6.669   0.411  16.709 -1.2040 -0.8825  0.8433
15650TIP3   OH268440   4.566   2.338   3.267 -0.0944 -0.5749 -0.2031
15650TIP3    H168441   4.563   2.430   3.242 -3.6501 -0.0544  1.5790
15650TIP3    H268442   4.547   2.290   3.186  0.5339  0.2786 -0.8782
15651TIP3   OH268443   1.353   1.840   4.873 -0.4676 -0.1975 -0.0821
15651TIP3    H168444   1.306   1.830   4.790 -1.5001 -2.6143  0.7054
15651TIP3    H268445   1.311   1.777   4.932  1.3544  0.2228  1.7768
15652TIP3   OH268446   1.757   3.672   5.858 -0.5221 -0.0113  0.0211
15652TIP3    H168447   1.799   3.644   5.777  0.9414 -2.2777  1.4245
15652TIP3    H268448   1.820   3.729   5.900  0.1137 -1.3145  0.9205
15653TIP3   OH268449   1.472   2.440  12.300  0.4103  0.0268 -0.5319
15653TIP3    H168450   1.530   2.515  12.314 -0.5710  0.8588 -0.8073
15653TIP3    H268451   1.436   2.454  12.213  1.0172 -1.3494 -1.0267
15654TIP3   OH268452   4.159   2.187   4.962  0.2621 -0.3301  0.2331
15654TIP3    H168453   4.175   2.212   4.871 -0.3305 -0.1443  0.1745
15654TIP3    H268454   4.190   2.097   4.968  1.8537  0.1930  0.2861
15655TIP3   OH268455   2.371   3.416  14.560  0.1153  0.1322 -0.0506
15655TIP3    H168456   2.329   3.363  14.492 -0.0627  0.8255 -0.4804
15655TIP3    H268457   2.385   3.501  14.519 -1.0526  0.9344  1.1465
15656TIP3   OH268458   0.574   1.321  11.872  0.1140  0.2963 -0.2899
15656TIP3    H168459   0.546   1.413  11.875  1.8969  1.0264 -2.6061
15656TIP3    H268460   0.669   1.325  11.874  0.2237 -1.6576  1.1156
15657TIP3   OH268461   2.219   2.789   2.799  0.2485 -0.5334  0.5806
15657TIP3    H168462   2.229   2.809   2.706 -2.0601 -1.2221  0.1075
15657TIP3    H268463   2.273   2.854   2.843  0.8673  0.2516 -1.2099
15658TIP3   OH268464   3.348   3.729  15.538 -0.1656  0.6665  0.3898
15658TIP3    H168465   3.356   3.652  15.482  2.5947  0.9762  0.2052
15658TIP3    H268466   3.320   3.799  15.478 -0.1860  0.3391  0.0109
15659TIP3   OH268467   3.527   2.922   4.279  0.3578 -0.8229 -0.2325
15659TIP3    H168468   3.499   2.833   4.304  1.2565 -1.3910 -1.1651
15659TIP3    H268469   3.611   2.933   4.323 -0.5037  0.2532  1.2504
15660TIP3   OH268470   6.697   0.254   2.361  0.5169 -0.3173  0.3022
15660TIP3    H168471   6.744   0.269   2.279 -1.0977 -0.3431 -0.6593
15660TIP3    H268472   6.726   0.167   2.390  1.5825 -0.0334  0.1067
15661TIP3   OH268473   5.839   4.806   1.259  0.1945 -0.5813 -0.2059
15661TIP3    H168474   5.834   4.890   1.305  0.8380 -0.0659 -1.0646
15661TIP3    H268475   5.755   4.798   1.215 -0.0864 -0.6619  0.3314
15662TIP3   OH268476   5.256   1.672  13.880  0.3838  0.0282 -0.3759
15662TIP3    H168477   5.313   1.677  13.957  2.2728  3.2364 -1.7473
15662TIP3    H268478   5.310   1.630  13.813 -0.6545 -1.2704 -0.4213
15663TIP3   OH268479   4.385   6.634   1.560 -0.1770  0.2981  0.6514
15663TIP3    H168480   4.430   6.553   1.536  0.1601 -0.2530  2.8834
15663TIP3    H268481   4.449   6.683   1.612 -0.7282  1.5345  0.2084
15664TIP3   OH268482   0.634   3.467  12.911 -0.0750 -0.0216  0.6121
15664TIP3    H168483   0.712   3.503  12.868 -0.3673  1.6417  1.3931
15664TIP3    H268484   0.639   3.373  12.894  0.2781  0.4293 -2.2930
15665TIP3   OH268485   2.376   3.320   4.196  0.1119  0.2465  0.0771
15665TIP3    H168486   2.386   3.242   4.250  1.2740  1.5399  1.8477
15665TIP3    H268487   2.283   3.339   4.199  0.0510 -0.1225  1.0698
15666TIP3   OH268488   4.945   1.613   2.356 -0.0254  0.6123 -0.4873
15666TIP3    H168489   5.020   1.565   2.393 -0.1291 -0.0159 -1.0842
15666TIP3    H268490   4.868   1.570   2.394 -0.0996  1.5971  0.5470
15667TIP3   OH268491   5.968   4.397   2.288 -0.3679 -0.0706  0.7392
15667TIP3    H168492   5.958   4.303   2.273  1.7266 -0.4503  1.3731
15667TIP3    H268493   5.881   4.433   2.274 -1.1892 -2.0812  0.3342
15668TIP3   OH268494   5.801   4.778  13.478 -0.4850 -0.1167  0.0675
15668TIP3    H168495   5.804   4.874  13.484 -4.1350  0.0722  1.3027
15668TIP3    H268496   5.752   4.762  13.397 -1.3730 -0.8270  0.7261
15669TIP3   OH268497   0.187   2.967  13.671 -0.0736  0.2278 -0.3110
15669TIP3    H168498   0.275   2.998  13.692  1.8687 -3.5777 -1.8526
15669TIP3    H268499   0.169   2.899  13.737 -0.1086 -1.6906 -2.1887
15670TIP3   OH268500   0.753   2.340  16.095  0.2202  0.3118  0.2054
15670TIP3    H168501   0.664   2.306  16.084 -0.0187  1.2568 -0.9953
15670TIP3    H268502   0.757   2.367  16.187 -0.5444 -0.2487  0.4083
15671TIP3   OH268503   0.672   4.164  14.876 -0.0537 -0.4794 -0.3826
15671TIP3    H168504   0.680   4.100  14.805  0.4256  0.6618 -1.4109
15671TIP3    H268505   0.676   4.249  14.832 -0.2851  0.2700  0.9725
15672TIP3   OH268506   6.628   3.953  13.065  0.1793  0.4235  0.1458
15672TIP3    H168507   6.546   3.996  13.039  0.7063  0.9830 -0.6286
15672TIP3    H268508   6.600   3.878  13.118 -0.8351  0.5401 -0.2073
15673TIP3   OH268509   1.568   5.464   4.974 -0.5840  0.3913  0.4613
15673TIP3    H168510   1.653   5.422   4.988 -0.6042  0.5022  0.9403
15673TIP3    H268511   1.534   5.480   5.063  0.3510  3.3066  0.4088
15674TIP3   OH268512   0.139   5.298  11.628  0.2158 -0.3360  0.3731
15674TIP3    H168513   0.123   5.219  11.681  0.0488 -0.4243  0.1941
15674TIP3    H268514   0.051   5.334  11.613  0.3991  0.7135  1.7090
15675TIP3   OH268515   2.012   1.195  14.334 -0.0080  0.5534 -0.2301
15675TIP3    H168516   1.999   1.172  14.242  0.8362  0.3803 -0.3139
15675TIP3    H268517   2.107   1.189  14.347 -0.0734  1.0489  0.5278
15676TIP3   OH268518   5.098   3.307  13.363 -0.2443  0.4425 -0.1287
15676TIP3    H168519   5.101   3.212  13.377  0.3895  0.6698  1.3826
15676TIP3    H268520   5.189   3.333  13.354 -0.4770  0.6830 -2.5054
15677TIP3   OH268521   2.787   1.428  11.531 -0.5972 -0.5767  0.5478
15677TIP3    H168522   2.841   1.435  11.452 -2.5861  0.4582 -0.7868
15677TIP3    H268523   2.754   1.338  11.529 -1.8486 -0.1265 -0.6822
15678TIP3   OH268524   5.992   2.571   2.022 -0.0286 -0.1376 -0.7954
15678TIP3    H168525   6.043   2.531   1.952  1.3168  1.4528 -0.7606
15678TIP3    H268526   6.024   2.528   2.102  1.8493  1.3496 -0.6934
15679TIP3   OH268527   5.011   3.396  11.421 -0.2251  0.3392 -0.1579
15679TIP3    H168528   5.024   3.317  11.367 -0.4885 -0.2593  0.6366
15679TIP3    H268529   4.932   3.436  11.385 -0.7634 -0.3986  0.1695
15680TIP3   OH268530   2.315   2.032  12.184 -0.7527  0.1815  0.5700
15680TIP3    H168531   2.319   2.063  12.093 -2.2065  1.2732  0.8468
15680TIP3    H268532   2.272   1.946  12.178 -0.7387  0.1955  0.2233
15681TIP3   OH268533   2.022   0.177  11.201  0.0623 -0.0517  0.5281
15681TIP3    H168534   2.024   0.090  11.161 -0.7670 -0.1872  0.7617
15681TIP3    H268535   2.107   0.216  11.179  0.3008 -0.7853  0.1275
15682TIP3   OH268536   6.432   3.992  15.563 -0.3841 -0.0872  0.2881
15682TIP3    H168537   6.483   4.072  15.546  0.3501 -0.9714 -2.1582
15682TIP3    H268538   6.385   4.010  15.644  0.8893  2.2545  0.5956
15683TIP3   OH268539   1.284   0.508   0.133 -0.3545 -0.4798 -0.3084
15683TIP3    H168540   1.327   0.569   0.192 -0.5314 -0.9859  0.3593
15683TIP3    H268541   1.341   0.504   0.056  2.1052 -2.8333  1.4231
15684TIP3   OH268542   4.051   1.450  11.142 -0.1266 -0.3566 -0.2390
15684TIP3    H168543   4.138   1.460  11.180 -0.5057  1.6433  0.2089
15684TIP3    H268544   4.031   1.536  11.105 -1.6333 -0.9785 -0.9409
15685TIP3   OH268545   2.264   3.659  14.234  0.0250 -0.4708  0.0489
15685TIP3    H168546   2.352   3.628  14.214  0.0237 -1.1276  0.9744
15685TIP3    H268547   2.249   3.732  14.174  0.7880 -1.0318 -0.8498
15686TIP3   OH268548   4.023   1.974   5.568 -0.3881 -0.3086 -0.5087
15686TIP3    H168549   4.105   2.019   5.545 -0.5919 -0.0742 -0.7827
15686TIP3    H268550   3.998   1.928   5.488 -0.7817  0.0172 -0.5760
15687TIP3   OH268551   1.357   3.711   5.331 -0.3703  0.0384 -0.0517
15687TIP3    H168552   1.271   3.698   5.290 -0.0910  0.9793 -0.9800
15687TIP3    H268553   1.397   3.781   5.280  0.6060  0.2070  0.9215
15688TIP3   OH268554   5.758   2.388  13.874 -0.0920  0.3179 -0.0700
15688TIP3    H168555   5.819   2.352  13.937 -0.1808 -2.1483 -1.2910
15688TIP3    H268556   5.756   2.482  13.893 -0.2337 -0.3105  3.6184
15689TIP3   OH268557   2.222   3.346   3.602  0.4315  0.9153  0.0583
15689TIP3    H168558   2.245   3.301   3.683 -1.2611 -0.8899 -0.3827
15689TIP3    H268559   2.292   3.322   3.540  0.5767  0.5071  0.3797
15690TIP3   OH268560   3.029   2.596   3.382  0.2530 -0.4454 -0.8948
15690TIP3    H168561   2.998   2.647   3.308 -0.6212 -0.1536 -0.3394
15690TIP3    H268562   2.950   2.573   3.431  0.8195 -0.5075  0.0255
15691TIP3   OH268563   6.167   5.191  11.951  0.4744 -0.2098  0.4266
15691TIP3    H168564   6.199   5.262  11.896  1.0631 -0.7902  0.0156
15691TIP3    H268565   6.239   5.129  11.956  1.1658  0.6710  3.3815
15692TIP3   OH268566   4.964   5.933  13.687 -0.1151 -0.8939 -0.2180
15692TIP3    H168567   4.869   5.939  13.689 -0.0479  2.9423 -0.1079
15692TIP3    H268568   4.988   5.964  13.600  1.0522 -0.1549  0.3467
15693TIP3   OH268569   5.787   4.888   3.420 -0.6869 -0.1761 -0.6143
15693TIP3    H168570   5.708   4.939   3.435  0.5588  1.4709  0.7838
15693TIP3    H268571   5.859   4.945   3.448  0.9573 -1.8852 -1.0914
15694TIP3   OH268572   1.488   4.683  17.044 -0.3814  0.0492 -0.3993
15694TIP3    H168573   1.501   4.776  17.062 -0.9989 -0.2871  2.0769
15694TIP3    H268574   1.447   4.682  16.957  1.8525  1.8831 -1.6110
15695TIP3   OH268575   2.402   0.883  10.866 -0.3388 -0.2113  0.2741
15695TIP3    H168576   2.376   0.803  10.820  1.3318 -0.2651 -0.6784
15695TIP3    H268577   2.474   0.919  10.813 -0.3574  1.3630  1.2474
15696TIP3   OH268578   6.315   5.933  13.645 -0.3555 -0.0131  0.3846
15696TIP3    H168579   6.262   5.935  13.565 -2.3686 -0.0910  1.6480
15696TIP3    H268580   6.325   5.840  13.664 -0.6679  0.0151  0.7002
15697TIP3   OH268581   3.772   2.162  11.483  0.1863 -0.3659  0.3922
15697TIP3    H168582   3.851   2.210  11.457  0.5474 -0.4909  1.2201
15697TIP3    H268583   3.760   2.097  11.414  0.6735 -0.1934  0.1335
15698TIP3   OH268584   0.248   3.092  16.529 -0.4381 -1.0645 -0.5323
15698TIP3    H168585   0.161   3.127  16.511 -0.2303  0.6409  1.4168
15698TIP3    H268586   0.301   3.120  16.454 -0.6144  1.7387  0.2863
15699TIP3   OH268587   2.921   2.678   4.621  0.3420 -0.7528 -0.7279
15699TIP3    H168588   2.844   2.729   4.643  1.4606  0.1493  1.3432
15699TIP3    H268589   2.967   2.730   4.555 -0.4224 -0.9557 -1.4368
15700TIP3   OH268590   0.171   3.284   5.692  0.1866 -0.6823  0.2561
15700TIP3    H168591   0.255   3.262   5.731  1.1732  1.4569 -0.4900
15700TIP3    H268592   0.119   3.321   5.764 -0.2794 -2.2914  0.7843
15701TIP3   OH268593   3.309   2.573  16.561  0.4318 -0.5808  0.3493
15701TIP3    H168594   3.301   2.554  16.654  1.4941 -1.6786  0.2294
15701TIP3    H268595   3.372   2.645  16.556 -0.1353 -0.0633  0.5075
15702TIP3   OH268596   0.772   6.299   0.521  0.2285 -0.1141  0.3910
15702TIP3    H168597   0.681   6.270   0.516 -0.4866  2.0856 -0.7350
15702TIP3    H268598   0.822   6.230   0.476 -1.2324 -0.1769 -1.2417
15703TIP3   OH268599   2.632   6.168  11.819  0.0180  0.4514  0.1385
15703TIP3    H168600   2.555   6.221  11.797  0.9658  2.2157  0.9130
15703TIP3    H268601   2.622   6.149  11.912  0.0162 -0.1713  0.0115
15704TIP3   OH268602   5.518   5.658  14.588  0.1919 -0.0740 -0.2458
15704TIP3    H168603   5.554   5.650  14.500 -0.0857  1.4483 -0.5277
15704TIP3    H268604   5.456   5.731  14.582 -1.3738 -1.2501  0.7249
15705TIP3   OH268605   6.377   1.685   5.370  0.0707 -0.2572  0.2986
15705TIP3    H168606   6.458   1.730   5.346  0.7823 -1.8481 -0.4037
15705TIP3    H268607   6.399   1.592   5.366 -1.9256 -0.7438 -0.4189
15706TIP3   OH268608   0.053   4.700  11.044 -0.1047  0.4271 -0.0400
15706TIP3    H168609  -0.002   4.761  11.094 -1.6087 -0.1490 -0.9278
15706TIP3    H268610  -0.002   4.622  11.033  1.4347 -0.7566  0.2671
15707TIP3   OH268611   6.511   4.206   3.206 -0.0321 -0.1830  0.2397
15707TIP3    H168612   6.514   4.186   3.300 -0.2148 -3.1932 -0.3117
15707TIP3    H268613   6.561   4.287   3.198  0.9369 -0.4296  2.7827
15708TIP3   OH268614   6.080   4.589  17.018  0.2020  0.3537 -0.9532
15708TIP3    H168615   6.116   4.541  17.093  4.0145  2.2029 -1.3371
15708TIP3    H268616   6.097   4.681  17.037 -3.4197  1.3980 -1.9193
15709TIP3   OH268617   5.850   4.901   6.034 -0.1941 -0.4941 -0.5592
15709TIP3    H168618   5.896   4.985   6.046  2.2003 -1.9860  1.8785
15709TIP3    H268619   5.760   4.919   6.059  0.6853  1.0061  1.9358
15710TIP3   OH268620   6.541   3.008  14.680 -0.2010  0.1130  0.1834
15710TIP3    H168621   6.559   2.954  14.604 -1.3375  0.1033 -0.0846
15710TIP3    H268622   6.502   2.949  14.744 -1.7157  0.6416 -0.2152
15711TIP3   OH268623   3.039   4.151   4.313  0.2611  0.1703  0.2844
15711TIP3    H168624   2.989   4.091   4.258  1.6705 -0.5996 -0.2128
15711TIP3    H268625   2.974   4.211   4.348 -0.7398  0.5246 -2.0036
15712TIP3   OH268626   2.318   1.686   1.532  0.0272 -0.4469 -0.0454
15712TIP3    H168627   2.347   1.595   1.524 -1.4659 -0.8957 -0.6597
15712TIP3    H268628   2.242   1.682   1.591  1.3082  0.7398  1.7923
15713TIP3   OH268629   3.290   3.749  16.360 -0.5409 -0.2593 -0.5788
15713TIP3    H168630   3.306   3.663  16.399  0.7675  0.6559  0.9976
15713TIP3    H268631   3.259   3.803  16.433  0.8186  1.1946 -1.0166
15714TIP3   OH268632   0.863   1.210  15.490  0.0235 -0.1879  0.2227
15714TIP3    H168633   0.872   1.144  15.420  0.3971 -0.6261  0.6732
15714TIP3    H268634   0.810   1.167  15.557 -0.2078  0.1759  0.2723
15715TIP3   OH268635   5.339   3.863  12.287 -0.5726  0.0660  0.1470
15715TIP3    H168636   5.411   3.803  12.271 -0.8894 -0.3229  0.1877
15715TIP3    H268637   5.290   3.825  12.360 -0.5771  0.5473  0.4046
15716TIP3   OH268638   1.653   1.145  14.150  0.1531 -0.2149 -0.2304
15716TIP3    H168639   1.710   1.100  14.212  1.5125  1.3899 -0.2483
15716TIP3    H268640   1.575   1.167  14.200  0.3050 -0.8361  0.2982
15717TIP3   OH268641   0.554   0.227  10.961  0.3678  0.0677  0.3129
15717TIP3    H168642   0.500   0.305  10.962  1.4186  0.9287 -2.1293
15717TIP3    H268643   0.536   0.186  10.876  1.0720 -1.4484  0.8444
15718TIP3   OH268644   6.168   5.221  15.199 -0.1186 -0.2074  0.2226
15718TIP3    H168645   6.258   5.225  15.232 -0.0350  0.0687 -0.0269
15718TIP3    H268646   6.166   5.287  15.129 -0.5804 -0.0401  0.3875
15719TIP3   OH268647   3.426   4.921   5.649 -0.3173 -0.0536  0.1975
15719TIP3    H168648   3.470   5.005   5.639 -0.8322  0.0916 -0.9745
15719TIP3    H268649   3.406   4.916   5.743  2.0504 -0.0895  0.7764
15720TIP3   OH268650   2.357   3.514  11.772  0.1160 -0.1981 -0.5984
15720TIP3    H168651   2.435   3.460  11.789  0.6665  0.8623  0.3802
15720TIP3    H268652   2.329   3.488  11.684  0.6724 -1.6891 -0.3679
15721TIP3   OH268653   1.251   4.466  13.403  0.3416 -0.6848  0.2350
15721TIP3    H168654   1.285   4.376  13.395  1.7497 -0.1912  0.4171
15721TIP3    H268655   1.243   4.496  13.312  1.2056 -0.5186  0.2097
15722TIP3   OH268656   3.870   1.862  12.071  0.1835  0.1530 -0.4433
15722TIP3    H168657   3.888   1.802  12.144  0.2211  1.1582  0.3844
15722TIP3    H268658   3.905   1.816  11.994  0.0785 -0.9537  0.1450
15723TIP3   OH268659   6.634   2.558   2.623 -0.5806  0.3331  0.5865
15723TIP3    H168660   6.692   2.620   2.577 -0.5310 -1.1696 -1.5245
15723TIP3    H268661   6.598   2.609   2.696 -0.7263  2.9385 -1.1650
15724TIP3   OH268662   6.612   0.237  12.541  0.2548 -0.3816  0.3101
15724TIP3    H168663   6.578   0.161  12.495  0.8107 -0.7811  0.5546
15724TIP3    H268664   6.576   0.230  12.629  1.2916 -1.0415  0.7006
15725TIP3   OH268665   5.930   5.754  16.584  0.1580 -0.3768 -0.3100
15725TIP3    H168666   5.892   5.825  16.636  0.2267 -0.7265  0.2163
15725TIP3    H268667   6.020   5.745  16.617  0.4809 -0.0436 -1.0534
15726TIP3   OH268668   1.027   2.471   1.156 -0.0967 -0.4138 -0.4102
15726TIP3    H168669   0.955   2.531   1.137  0.6208  0.8564  0.6541
15726TIP3    H268670   1.103   2.509   1.112  0.0799 -1.3360 -0.9199
15727TIP3   OH268671   2.250   1.281  11.045  0.2023  0.5618 -0.4291
15727TIP3    H168672   2.207   1.210  10.997 -0.5007  1.3994 -1.0701
15727TIP3    H268673   2.218   1.361  11.004 -0.1145  1.3069  1.1935
15728TIP3   OH268674   3.297   1.235  15.029 -0.5218 -0.3219 -0.2442
15728TIP3    H168675   3.260   1.307  15.080  1.0464  0.7924 -0.5949
15728TIP3    H268676   3.257   1.244  14.942 -1.8088 -1.1121  0.2306
15729TIP3   OH268677   2.602   2.042  12.202 -0.0667  0.3624  0.0506
15729TIP3    H168678   2.515   2.004  12.205 -0.0961  0.4992  1.7020
15729TIP3    H268679   2.659   1.970  12.172 -0.3742 -0.5047  1.4762
15730TIP3   OH268680   0.890   6.712  11.318 -0.0936 -0.7890  0.1207
15730TIP3    H168681   0.961   6.772  11.294  0.7519 -2.5225 -2.0863
15730TIP3    H268682   0.872   6.664  11.238 -1.3636 -2.8671  1.5700
15731TIP3   OH268683   3.120   6.790  11.050 -0.1749  0.5525 -0.0824
15731TIP3    H168684   3.108   6.872  11.003 -0.0897  1.1858  0.9829
15731TIP3    H268685   3.045   6.784  11.109  0.0142  0.0525  0.1181
15732TIP3   OH268686   0.879   0.133  12.247  0.1826  0.5565  0.4296
15732TIP3    H168687   0.942   0.062  12.250 -1.0904 -0.6722 -0.5392
15732TIP3    H268688   0.815   0.112  12.316 -1.3724 -0.4674 -1.2339
15733TIP3   OH268689   4.130   0.102   5.110  0.8517  0.2243 -0.0693
15733TIP3    H168690   4.201   0.134   5.055 -0.4653  0.5178 -1.7057
15733TIP3    H268691   4.131   0.007   5.098 -0.3255  0.3869 -1.8602
15734TIP3   OH268692   4.571   4.167  13.964  0.1381 -0.7080  0.1748
15734TIP3    H168693   4.608   4.125  14.041 -2.5406 -0.5032  1.6876
15734TIP3    H268694   4.621   4.248  13.955 -0.8548  0.3567  3.1001
15735TIP3   OH268695   2.955   6.292   1.612  0.3289 -0.3073  0.5043
15735TIP3    H168696   2.951   6.351   1.537  3.7187 -0.3137  0.1599
15735TIP3    H268697   2.878   6.236   1.602 -1.0845  1.7520 -1.1006
15736TIP3   OH268698   2.137   3.784  14.535  0.1555 -0.3255  0.2323
15736TIP3    H168699   2.142   3.699  14.579 -2.0976 -1.8269 -2.0994
15736TIP3    H268700   2.172   3.767  14.447  0.6538  1.4700  0.0518
15737TIP3   OH268701   4.823   0.309   0.706  0.6360 -0.2020 -0.1236
15737TIP3    H168702   4.819   0.263   0.622 -0.4670 -4.7331  2.0903
15737TIP3    H268703   4.731   0.325   0.729  0.4990 -3.2557  2.0652
15738TIP3   OH268704   4.013   3.990   5.968  0.0215 -0.5320 -0.0034
15738TIP3    H168705   4.046   3.960   5.883 -1.5152 -1.9696 -0.1506
15738TIP3    H268706   3.992   3.909   6.015 -2.1232  0.2629  0.5123
15739TIP3   OH268707   4.712   6.578  15.949  0.1247 -0.0118 -0.0814
15739TIP3    H168708   4.691   6.610  15.861 -0.2182 -0.4138 -0.1489
15739TIP3    H268709   4.648   6.619  16.006 -0.0981 -0.3055 -0.1196
15740TIP3   OH268710   4.644   3.080  15.967  0.2317 -0.3141  0.3078
15740TIP3    H168711   4.620   3.019  15.898 -2.1883 -0.3767  1.1182
15740TIP3    H268712   4.596   3.050  16.044  0.6546  1.3762  1.2935
15741TIP3   OH268713   4.682   2.798   0.405 -0.1922 -0.2781 -0.2184
15741TIP3    H168714   4.770   2.770   0.382 -0.1088 -0.4863  0.3294
15741TIP3    H268715   4.656   2.740   0.477  0.4570  1.7522  1.7876
15742TIP3   OH268716   3.546   4.995  14.285 -0.2051  0.5234  0.1808
15742TIP3    H168717   3.554   4.936  14.210 -0.1923  0.3900  0.2885
15742TIP3    H268718   3.636   5.009  14.315 -0.2561  0.1378  0.5161
15743TIP3   OH268719   4.010   4.053   6.320 -0.0015  0.1382 -0.0085
15743TIP3    H168720   4.092   4.008   6.300  1.2426  2.0173  0.5284
15743TIP3    H268721   3.978   4.011   6.399  1.3890  0.4600  0.7720
15744TIP3   OH268722   3.127   4.170  14.870 -0.3265 -0.1346  0.2378
15744TIP3    H168723   3.124   4.172  14.965  0.6615  0.2311  0.2716
15744TIP3    H268724   3.211   4.128  14.849 -0.1279  0.5724 -0.4559
15745TIP3   OH268725   3.459   0.705  13.584  0.3689 -0.1233 -0.0503
15745TIP3    H168726   3.467   0.741  13.672  0.9202  2.9035 -1.2410
15745TIP3    H268727   3.513   0.626  13.585  0.9053  0.2214  2.1006
15746TIP3   OH268728   3.364   3.274   4.932  0.0075 -0.1281  0.3074
15746TIP3    H168729   3.450   3.250   4.965 -1.0838 -0.3992  3.3156
15746TIP3    H268730   3.340   3.352   4.982 -0.6006  1.3563 -2.1434
15747TIP3   OH268731   4.661   0.569   0.073  0.5492  0.1021 -0.3351
15747TIP3    H168732   4.755   0.553   0.071  0.9280  1.4861  2.2354
15747TIP3    H268733   4.626   0.504   0.135 -0.1502 -0.1885 -1.0161
15748TIP3   OH268734   2.382   0.098   4.292  0.1519  0.1543  0.7808
15748TIP3    H168735   2.397   0.067   4.203 -1.1123  1.1312  0.2117
15748TIP3    H268736   2.289   0.085   4.307 -0.1792  2.3711  0.9910
15749TIP3   OH268737   3.327   6.331  10.915 -0.0387  0.1444 -0.5823
15749TIP3    H168738   3.312   6.422  10.889 -1.4682 -0.2660 -1.3212
15749TIP3    H268739   3.420   6.326  10.933  0.4205  1.3318 -2.3154
15750TIP3   OH268740   1.184   0.916  16.048 -0.2145 -0.1554  0.8881
15750TIP3    H168741   1.241   0.944  16.120  2.9679  1.8631 -2.0860
15750TIP3    H268742   1.241   0.867  15.989 -2.3753 -0.8058 -0.8212
15751TIP3   OH268743   5.852   2.476   4.865 -0.0501 -0.2275 -0.5948
15751TIP3    H168744   5.882   2.561   4.831  1.3277 -1.6757 -3.3707
15751TIP3    H268745   5.757   2.480   4.858  0.0077  0.9610 -1.0339
15752TIP3   OH268746   6.555   5.713   3.797  0.2889  0.0230  0.3745
15752TIP3    H168747   6.599   5.749   3.874 -0.8579 -0.3629  1.2484
15752TIP3    H268748   6.464   5.742   3.806 -0.5357 -2.4762  0.7735
15753TIP3   OH268749   1.595   1.131   0.156 -0.0889 -0.4541  0.8495
15753TIP3    H168750   1.513   1.095   0.189 -0.6209  0.0862  0.1597
15753TIP3    H268751   1.632   1.060   0.102  0.0721 -0.8169  1.4278
15754TIP3   OH268752   5.850   5.178   3.246 -0.5585 -0.2028  0.2247
15754TIP3    H168753   5.900   5.119   3.302  1.1141 -0.8552 -1.7941
15754TIP3    H268754   5.783   5.123   3.207 -0.0361 -0.4100 -0.4034
15755TIP3   OH268755   3.398   2.601   5.762  0.3213  0.0820  0.3882
15755TIP3    H168756   3.310   2.630   5.785  0.0002 -0.9597  0.5268
15755TIP3    H268757   3.390   2.570   5.672  0.2612 -1.0960  0.7812
15756TIP3   OH268758   2.817   1.030  15.972 -0.1949  0.7641 -0.0402
15756TIP3    H168759   2.758   0.964  15.939 -0.7557  2.0277 -1.6852
15756TIP3    H268760   2.761   1.089  16.023  0.3768 -0.2234  1.8179
15757TIP3   OH268761   3.552   2.390  12.287  0.7740 -0.0769 -0.1389
15757TIP3    H168762   3.493   2.319  12.263  0.3216  0.6599 -1.3431
15757TIP3    H268763   3.496   2.454  12.331  0.3590  1.1100 -2.2228
15758TIP3   OH268764   6.521   2.291   2.841 -0.0442 -0.5636  0.2723
15758TIP3    H168765   6.461   2.335   2.781 -0.5594 -0.1670  1.0574
15758TIP3    H268766   6.503   2.198   2.829 -1.5430 -0.4302  1.1840
15759TIP3   OH268767   0.936   5.339   0.828 -0.3529  0.4725 -0.5639
15759TIP3    H168768   0.996   5.389   0.884 -0.6137  0.2796 -0.1026
15759TIP3    H268769   0.973   5.251   0.826 -1.0481  0.1331  0.4083
15760TIP3   OH268770   5.247   1.014   3.385  0.5833  0.8396  0.3358
15760TIP3    H168771   5.175   1.067   3.419 -0.6807 -0.7641  0.2924
15760TIP3    H268772   5.223   0.999   3.293  0.1027 -1.0313  0.7300
15761TIP3   OH268773   4.863   5.669   3.962 -0.3016  0.0886 -0.0292
15761TIP3    H168774   4.937   5.617   3.930  0.0256  0.3789  0.2460
15761TIP3    H268775   4.892   5.760   3.951 -0.4193  0.1972  0.5485
15762TIP3   OH268776   1.966   5.963  16.111 -0.4036  0.3176  0.5211
15762TIP3    H168777   2.056   5.996  16.122 -0.3126 -0.2404  1.6209
15762TIP3    H268778   1.911   6.040  16.124 -0.0803  0.7404 -0.5346
15763TIP3   OH268779   6.240   5.509   1.541 -0.5395 -0.0898  0.2552
15763TIP3    H168780   6.286   5.492   1.623 -0.6874 -0.9366  0.1743
15763TIP3    H268781   6.224   5.422   1.504 -1.2279  0.2391 -0.2520
15764TIP3   OH268782   4.964   4.059  13.506  0.5419  0.1730  0.2296
15764TIP3    H168783   5.049   4.097  13.482 -0.0272  1.1260 -0.3085
15764TIP3    H268784   4.943   4.099  13.590  0.1354  0.7354 -0.1392
15765TIP3   OH268785   6.246   6.130   0.916  0.1946 -0.0394 -0.2508
15765TIP3    H168786   6.284   6.196   0.974  0.1974 -2.1642  2.3168
15765TIP3    H268787   6.152   6.142   0.925  0.1999 -0.0058 -0.2422
15766TIP3   OH268788   5.343   2.334  16.572  0.4409 -0.1363 -0.0408
15766TIP3    H168789   5.259   2.375  16.555  0.4221 -0.9328 -2.0864
15766TIP3    H268790   5.382   2.321  16.486  2.7867  0.4230  0.8504
15767TIP3   OH268791   6.616   4.650   5.691  0.6378  0.3466 -0.0614
15767TIP3    H168792   6.677   4.594   5.644  1.6864  0.4348  1.1328
15767TIP3    H268793   6.621   4.735   5.647  1.4657  0.3817  0.0971
15768TIP3   OH268794   5.654   3.022  17.200  0.1312 -0.1834 -0.1780
15768TIP3    H168795   5.589   3.062  17.142 -1.2389 -2.9185 -0.7153
15768TIP3    H268796   5.610   3.019  17.286  0.5178  0.1389  0.0324
15769TIP3   OH268797   2.416   1.278   4.370  1.1154  0.2345 -0.1937
15769TIP3    H168798   2.369   1.205   4.329  0.4271 -0.4527  1.7045
15769TIP3    H268799   2.502   1.243   4.392  0.8409  0.0346  0.5754
15770TIP3   OH268800   5.864   0.681  13.879  0.1295 -0.2481 -0.4891
15770TIP3    H168801   5.893   0.749  13.939  0.0211 -1.8159  1.4263
15770TIP3    H268802   5.770   0.672  13.895  0.4753 -2.2182  0.8567
15771TIP3   OH268803   1.155   0.625  11.563  0.1350 -0.0129  0.4000
15771TIP3    H168804   1.094   0.698  11.568  0.2367  0.1088 -0.1177
15771TIP3    H268805   1.108   0.558  11.514  0.5569  0.2316 -0.3583
15772TIP3   OH268806   1.527   2.078   0.518  0.0742  0.3573  0.0828
15772TIP3    H168807   1.567   2.075   0.432  0.3619  0.2152  0.2201
15772TIP3    H268808   1.558   2.160   0.556  0.9055 -0.1380  0.5062
15773TIP3   OH268809   3.751   5.592   3.955  0.5253 -0.6591  0.5021
15773TIP3    H168810   3.769   5.511   4.002 -1.3797 -0.7938  1.0498
15773TIP3    H268811   3.710   5.650   4.019  2.0142  0.8589  0.1780
15774TIP3   OH268812   0.436   0.523  12.568 -0.1246  0.8252  0.2756
15774TIP3    H168813   0.508   0.460  12.569 -0.9556 -0.1543  0.8927
15774TIP3    H268814   0.369   0.483  12.623 -0.9217  1.9763  0.1715
15775TIP3   OH268815   1.367   5.538  11.614  0.4294 -0.2209 -0.2033
15775TIP3    H168816   1.303   5.610  11.616  2.4964  1.7239 -0.4412
15775TIP3    H268817   1.421   5.556  11.537  1.2833 -1.8358 -0.0259
15776TIP3   OH268818   6.324   1.261   5.714  0.1022 -0.0928  0.1149
15776TIP3    H168819   6.336   1.325   5.783 -0.0740  0.8216 -0.6815
15776TIP3    H268820   6.405   1.264   5.663  0.1229 -0.5561  0.1156
15777TIP3   OH268821   2.931   4.606  11.195 -0.3152  0.1396  0.3721
15777TIP3    H168822   2.939   4.697  11.165  0.3580  0.2142  0.7581
15777TIP3    H268823   3.019   4.571  11.188 -0.2514 -0.0016  1.7394
15778TIP3   OH268824   1.773   0.999   1.880 -0.1857 -0.5867  0.0018
15778TIP3    H168825   1.821   1.062   1.826 -0.0006 -0.9199 -0.2189
15778TIP3    H268826   1.703   1.051   1.920 -0.6497 -0.4445 -0.9624
15779TIP3   OH268827   0.168   4.117   5.938  0.5060  0.4348  0.2190
15779TIP3    H168828   0.084   4.080   5.965  0.4648  0.6363  0.3626
15779TIP3    H268829   0.156   4.137   5.845  0.7604 -0.5744 -0.0423
15780TIP3   OH268830   6.441   4.206  16.125 -0.2042  0.4562  0.4743
15780TIP3    H168831   6.516   4.149  16.108 -0.1933 -0.0243  1.9614
15780TIP3    H268832   6.412   4.235  16.039  1.3612  0.2291 -0.1560
15781TIP3   OH268833   3.364   5.945   3.355 -0.0048 -0.3323 -0.1176
15781TIP3    H168834   3.368   6.012   3.287 -1.7788 -0.5227 -0.4418
15781TIP3    H268835   3.418   5.981   3.426  1.4517  0.0925 -1.3855
15782TIP3   OH268836   6.503   0.505  13.447 -0.1467 -0.2550 -0.3203
15782TIP3    H168837   6.408   0.495  13.460  0.0862 -2.4837  0.0110
15782TIP3    H268838   6.524   0.442  13.379  1.3179 -0.8261  0.6287
15783TIP3   OH268839   3.282   1.492   6.710 -0.4248  0.5485 -0.0876
15783TIP3    H168840   3.262   1.407   6.748  0.6271  0.6265  0.6958
15783TIP3    H268841   3.273   1.479   6.616  1.0134 -0.8197 -0.0848
15784TIP3   OH268842   1.830   2.544  14.446 -0.0139 -0.2520  0.4819
15784TIP3    H168843   1.792   2.631  14.434  0.9087  0.1957  0.7787
15784TIP3    H268844   1.828   2.529  14.540 -0.7557 -0.8346  0.3890
15785TIP3   OH268845   1.380   0.798  12.239  0.2757 -0.2166 -0.0436
15785TIP3    H168846   1.340   0.885  12.238 -0.7106 -0.6391 -1.5168
15785TIP3    H268847   1.366   0.767  12.329 -0.0945  0.8166  0.2767
15786TIP3   OH268848   0.587   0.481   3.555 -0.3568  0.7742  0.4197
15786TIP3    H168849   0.584   0.539   3.631  0.8150  0.8186  0.4416
15786TIP3    H268850   0.630   0.532   3.487  0.5134  0.0058  0.3824
15787TIP3   OH268851   0.941   4.019  15.737 -0.8838 -0.5591  0.1901
15787TIP3    H168852   0.990   4.099  15.716 -1.4165 -0.3664 -0.3644
15787TIP3    H268853   0.981   3.987  15.818 -0.2391 -0.0851  0.0716
15788TIP3   OH268854   1.682   2.760  14.431 -0.2057  0.4604 -0.1532
15788TIP3    H168855   1.629   2.789  14.356 -0.7951 -0.5622 -0.1427
15788TIP3    H268856   1.720   2.841  14.465 -0.0261  0.9603 -1.4698
15789TIP3   OH268857   0.928   1.079  16.305 -0.3185  0.2798 -0.2788
15789TIP3    H168858   0.983   1.154  16.326  1.5563 -0.5272 -2.0109
15789TIP3    H268859   0.922   1.030  16.387 -1.8862  2.4186  0.9931
15790TIP3   OH268860   3.918   6.547   4.134  0.4757 -0.0141 -0.2067
15790TIP3    H168861   4.000   6.573   4.091  0.2443  1.3087  0.1053
15790TIP3    H268862   3.861   6.623   4.123  0.3652  0.3272  2.3014
15791TIP3   OH268863   0.279   3.471   0.448  0.2936 -0.0895 -0.1357
15791TIP3    H168864   0.264   3.394   0.504  1.6099  0.1112  0.5242
15791TIP3    H268865   0.194   3.487   0.406 -0.6101 -0.5324  1.4491
15792TIP3   OH268866   5.994   3.396   5.682  0.0123 -0.6315  0.1592
15792TIP3    H168867   6.029   3.360   5.763  0.4441 -0.3137  0.1115
15792TIP3    H268868   6.011   3.490   5.687  2.4251 -0.8927 -1.4500
15793TIP3   OH268869   4.514   0.492  10.514  0.3956 -0.6690  0.1062
15793TIP3    H168870   4.604   0.483  10.484  0.2324 -1.0303 -0.2714
15793TIP3    H268871   4.464   0.428  10.464  0.1210 -1.3005  1.1612
15794TIP3   OH268872   4.261   4.308  16.948 -0.5158 -0.0320 -0.5205
15794TIP3    H168873   4.344   4.340  16.981 -0.0181 -1.5058 -0.2603
15794TIP3    H268874   4.211   4.285  17.027 -1.3026  1.1170 -0.6622
15795TIP3   OH268875   2.327   1.342  15.517 -0.3261 -0.0941 -0.6415
15795TIP3    H168876   2.337   1.322  15.610  1.7529  1.4902 -0.4463
15795TIP3    H268877   2.243   1.303  15.493 -1.0316 -0.3574  1.9404
15796TIP3   OH268878   1.560   3.164   4.795  0.4981  0.0603 -0.2755
15796TIP3    H168879   1.524   3.087   4.751 -0.6342  0.0999  0.5333
15796TIP3    H268880   1.483   3.218   4.815  1.1761  0.9121  0.1024
15797TIP3   OH268881   1.360   5.435  17.200 -0.8542  0.1538 -0.3049
15797TIP3    H168882   1.332   5.362  17.145 -1.0693  1.2113 -1.6474
15797TIP3    H268883   1.432   5.399  17.252 -1.0619 -1.0575 -0.8110
15798TIP3   OH268884   6.286   0.530  11.442 -0.4118  0.8126 -0.3377
15798TIP3    H168885   6.260   0.620  11.421 -3.5072  0.0921 -0.0456
15798TIP3    H268886   6.272   0.522  11.536 -1.9297 -0.4618 -0.6429
15799TIP3   OH268887   0.947   2.459  12.066  0.2039  0.7598  0.4449
15799TIP3    H168888   0.916   2.374  12.098  0.0799  1.0183  1.0263
15799TIP3    H268889   0.869   2.515  12.067  0.3971  1.0299  0.5858
15800TIP3   OH268890   1.207   1.788  15.358  0.0043 -0.1009 -0.3181
15800TIP3    H168891   1.227   1.855  15.293  1.5598 -1.0384 -0.8647
15800TIP3    H268892   1.217   1.705  15.311  1.5062 -0.8233  1.1776
15801TIP3   OH268893   3.267   4.026   6.547  0.4845 -0.0075 -0.1571
15801TIP3    H168894   3.186   4.050   6.592  0.8054  1.7493 -0.4581
15801TIP3    H268895   3.276   3.931   6.563 -1.8007 -0.3184 -0.4397
15802TIP3   OH268896   4.770   3.869  16.508  0.0478 -0.4457  0.0461
15802TIP3    H168897   4.711   3.853  16.435  0.8241  0.7969 -0.8764
15802TIP3    H268898   4.736   3.949  16.550  1.4579  0.7249 -0.9515
15803TIP3   OH268899   3.026   4.831  14.429  0.0674  0.2374 -0.3493
15803TIP3    H168900   3.065   4.752  14.390  0.2459 -0.6919  1.5603
15803TIP3    H268901   3.100   4.874  14.473 -0.2373  0.9038 -0.4794
15804TIP3   OH268902   1.246   4.450  15.528 -0.1212  0.4576  0.1777
15804TIP3    H168903   1.151   4.440  15.522 -0.1070  0.3901  0.0547
15804TIP3    H268904   1.279   4.361  15.540 -0.1294  0.5645  1.0376
15805TIP3   OH268905   5.323   0.659  15.998 -0.1261  0.7414  0.0710
15805TIP3    H168906   5.380   0.723  15.956  2.3327 -1.4455 -0.1506
15805TIP3    H268907   5.356   0.652  16.087 -1.0894  0.5647  0.4265
15806TIP3   OH268908   2.409   2.054   0.943  0.4137 -0.5430 -0.7186
15806TIP3    H168909   2.439   1.980   0.995  2.0087  1.3519  1.2289
15806TIP3    H268910   2.475   2.122   0.956 -0.8585  1.2018 -2.5747
15807TIP3   OH268911   5.103   6.393   5.729  0.0350 -0.2547  0.4862
15807TIP3    H168912   5.018   6.409   5.688  0.7430 -2.7370 -2.2783
15807TIP3    H268913   5.130   6.479   5.760 -3.0677  0.7772  0.7152
15808TIP3   OH268914   4.161   0.354  11.938  0.3774  0.2835 -0.1649
15808TIP3    H168915   4.198   0.353  12.026  1.5581  0.8922 -0.6381
15808TIP3    H268916   4.236   0.368  11.880 -0.2457 -0.9186 -1.3400
15809TIP3   OH268917   1.710   3.196  13.326  0.2666 -0.3197  0.4366
15809TIP3    H168918   1.659   3.270  13.290 -0.2906 -0.8139  0.1883
15809TIP3    H268919   1.765   3.236  13.393 -1.3417  0.0560  1.6036
15810TIP3   OH268920   6.118   3.423   1.729  0.9754  0.4625 -0.0660
15810TIP3    H168921   6.112   3.444   1.636  0.9744  1.7660  0.2039
15810TIP3    H268922   6.207   3.390   1.740  0.8293 -0.1244 -0.6069
15811TIP3   OH268923   2.154   5.384  13.591 -0.0517  0.1131 -0.9044
15811TIP3    H168924   2.234   5.430  13.565  0.6420 -1.5763 -1.9810
15811TIP3    H268925   2.185   5.306  13.636 -1.1592  0.2364  0.1087
15812TIP3   OH268926   4.412   3.164  13.434 -0.2962 -0.1127  0.1102
15812TIP3    H168927   4.454   3.248  13.454 -0.8856 -0.4447  3.2126
15812TIP3    H268928   4.336   3.161  13.493 -0.3598 -2.7566 -0.0190
15813TIP3   OH268929   2.294   2.994  15.829  0.2240  0.0893  0.4306
15813TIP3    H168930   2.234   3.007  15.756 -1.7858 -1.8865  1.5878
15813TIP3    H268931   2.237   2.970  15.902  2.4062 -1.4536  1.7300
15814TIP3   OH268932   3.181   6.666  10.656 -0.3467  0.4222  0.0353
15814TIP3    H168933   3.230   6.649  10.737 -0.1403  0.2613 -0.1189
15814TIP3    H268934   3.230   6.617  10.589 -1.8553 -1.4236  0.2068
15815TIP3   OH268935   2.686   2.181   1.051 -0.1730  0.7050 -0.0536
15815TIP3    H168936   2.732   2.150   1.129  1.3029  1.6746 -0.4941
15815TIP3    H268937   2.631   2.253   1.082 -0.4019  0.4011  0.2564
15816TIP3   OH268938   2.194   2.801   2.169 -0.1487 -0.4038 -0.0990
15816TIP3    H168939   2.184   2.747   2.247  0.8965 -0.3151  0.1179
15816TIP3    H268940   2.105   2.814   2.137 -0.6306 -0.1310  1.2777
15817TIP3   OH268941   3.798   2.156   4.388 -0.0014 -0.2275 -0.2221
15817TIP3    H168942   3.874   2.196   4.430 -1.0176 -0.2155  1.7212
15817TIP3    H268943   3.777   2.215   4.316  1.9005 -0.3263 -0.9091
15818TIP3   OH268944   0.135   2.781  16.157  0.1696 -0.3583  0.2135
15818TIP3    H168945   0.099   2.785  16.245 -0.1220  0.5118  0.0672
15818TIP3    H268946   0.106   2.696  16.123  0.5523 -0.8414  1.0502
15819TIP3   OH268947   5.012   5.609   2.060 -0.7998  0.2246 -0.2437
15819TIP3    H168948   5.080   5.672   2.084 -0.4770 -0.9986  2.3831
15819TIP3    H268949   4.942   5.624   2.124 -1.4278 -0.9697 -0.6190
15820TIP3   OH268950   3.496   6.480  12.322  0.3486 -0.3511  0.2592
15820TIP3    H168951   3.500   6.519  12.409  1.3162  0.3415 -0.0875
15820TIP3    H268952   3.449   6.398  12.335  0.8872 -0.4800  1.5162
15821TIP3   OH268953   3.074   1.469   3.018 -0.0409  0.2125  0.3191
15821TIP3    H168954   3.093   1.395   3.075 -0.5955  0.0549  0.3068
15821TIP3    H268955   3.047   1.538   3.078  0.7390  0.5014  0.3531
15822TIP3   OH268956   4.549   0.685  13.979 -0.0712  0.0143  0.2545
15822TIP3    H168957   4.488   0.616  13.952 -0.1726 -0.4688  1.6378
15822TIP3    H268958   4.585   0.718  13.897 -1.0978 -0.6941 -0.5116
15823TIP3   OH268959   4.344   5.261   1.018  0.0323  0.5615 -0.1584
15823TIP3    H168960   4.262   5.218   1.043  0.5703 -0.6668 -0.4303
15823TIP3    H268961   4.363   5.321   1.090  1.0046 -2.1277  2.0138
15824TIP3   OH268962   5.519   5.141  12.752 -0.2942  0.6403  0.5908
15824TIP3    H168963   5.432   5.168  12.722 -0.3883 -0.1208  0.1573
15824TIP3    H268964   5.562   5.109  12.673 -1.1392 -2.9726  1.4473
15825TIP3   OH268965   2.700   5.018   5.321  0.1446 -0.1728 -0.4136
15825TIP3    H168966   2.741   5.022   5.235  0.6832  0.3200 -0.1397
15825TIP3    H268967   2.716   5.104   5.360 -0.1276 -0.3744  0.1631
15826TIP3   OH268968   6.251   2.472   0.435  0.1683  0.4916 -0.1301
15826TIP3    H168969   6.188   2.407   0.404 -2.7027  2.8202  0.4071
15826TIP3    H268970   6.282   2.438   0.518 -0.0026 -0.9414 -0.6294
15827TIP3   OH268971   5.272   2.650  14.062  0.0012 -0.4460  0.3387
15827TIP3    H168972   5.357   2.653  14.018  0.1523  0.7966  0.6864
15827TIP3    H268973   5.287   2.692  14.146 -0.8404 -0.7191  0.6375
15828TIP3   OH268974   0.252   6.620   1.078 -0.5080 -0.1396 -0.5469
15828TIP3    H168975   0.292   6.620   0.991 -0.8027 -1.0296 -0.6864
15828TIP3    H268976   0.162   6.649   1.063 -0.9126 -1.4422 -0.7158
15829TIP3   OH268977   2.640   3.142  16.212 -0.0839  0.1484 -0.0530
15829TIP3    H168978   2.656   3.076  16.279 -1.3883  0.0346  0.1652
15829TIP3    H268979   2.657   3.225  16.257  2.8338 -0.0052 -0.6801
15830TIP3   OH268980   0.345   0.724   3.837  0.2461  0.0111 -0.3160
15830TIP3    H168981   0.311   0.695   3.921 -0.4574 -1.8462 -1.1904
15830TIP3    H268982   0.346   0.820   3.843 -2.3527  0.0301  0.8040
15831TIP3   OH268983   4.480   2.850   0.218 -0.3926  0.4793 -0.6362
15831TIP3    H168984   4.532   2.900   0.155  0.4376  0.2368 -0.1628
15831TIP3    H268985   4.538   2.841   0.294 -0.4340 -1.3689 -0.7920
15832TIP3   OH268986   6.401   0.256  10.789 -0.1548  0.0188  0.4355
15832TIP3    H168987   6.400   0.164  10.764  0.1812  0.2223 -0.3567
15832TIP3    H268988   6.344   0.261  10.866  0.1997 -0.9256  0.7708
15833TIP3   OH268989   6.528   2.525   1.220 -0.4289  0.0612  0.3389
15833TIP3    H168990   6.445   2.478   1.228 -0.3929  0.1530  1.4668
15833TIP3    H268991   6.534   2.549   1.128 -1.7642  0.2567  0.2894
15834TIP3   OH268992   3.336   5.485  12.428 -0.3533 -0.8098  0.3777
15834TIP3    H168993   3.273   5.557  12.428 -1.3210 -1.6143 -0.6033
15834TIP3    H268994   3.300   5.422  12.365  1.0965 -1.6015  0.3080
15835TIP3   OH268995   0.689   6.160  10.407 -0.3585 -0.7697  0.0324
15835TIP3    H168996   0.785   6.168  10.408 -0.4958  2.5019 -1.2348
15835TIP3    H268997   0.661   6.214  10.334 -3.2686 -0.5491  1.1712
15836TIP3   OH268998   1.445   6.155  13.568  0.3481 -0.2507 -0.3245
15836TIP3    H168999   1.474   6.129  13.656  0.6253 -0.3716 -0.4513
15836TIP3    H269000   1.516   6.210  13.535 -1.0972  2.3945  0.7145
15837TIP3   OH269001   2.022   4.915  11.444 -0.5268  0.6863 -0.0958
15837TIP3    H169002   2.078   4.895  11.518 -0.1917  0.8579 -0.2983
15837TIP3    H269003   1.954   4.847  11.445 -0.7363  0.9063  0.5795
15838TIP3   OH269004   2.899   1.565  13.125 -0.0081 -0.2057  0.3204
15838TIP3    H169005   2.884   1.554  13.219 -0.2412 -0.4348  0.2551
15838TIP3    H269006   2.837   1.505  13.083 -0.0106  0.0066  0.0170
15839TIP3   OH269007   5.618   3.534  15.212 -0.0356 -0.2766  0.3579
15839TIP3    H169008   5.683   3.573  15.154 -0.4614 -0.9505 -0.5915
15839TIP3    H269009   5.669   3.496  15.283  0.6955 -1.4971 -0.7716
15840TIP3   OH269010   1.295   0.767  15.610 -0.7699  0.0850 -0.4320
15840TIP3    H169011   1.265   0.683  15.577 -0.7953 -0.9840  2.0436
15840TIP3    H269012   1.220   0.800  15.661  0.2927  0.0647  1.2114
15841TIP3   OH269013   6.148   5.187   3.340  0.1506 -0.3220  0.2176
15841TIP3    H169014   6.080   5.140   3.388 -1.6900  0.5699 -1.3515
15841TIP3    H269015   6.195   5.119   3.292 -0.9725 -0.8165 -0.2342
15842TIP3   OH269016   1.388   3.750  15.108 -0.0630 -0.1717 -0.7638
15842TIP3    H169017   1.315   3.711  15.060 -0.7327  0.3773 -0.2149
15842TIP3    H269018   1.457   3.683  15.106 -0.6949 -0.8244 -1.0066
15843TIP3   OH269019   5.774   3.040   5.347 -0.0141  0.0520  0.4329
15843TIP3    H169020   5.750   2.976   5.413  0.1340 -1.8935 -1.3156
15843TIP3    H269021   5.870   3.041   5.348 -0.0144  0.2481  0.4345
15844TIP3   OH269022   5.504   4.133  15.846 -0.4860 -0.2966  0.2208
15844TIP3    H169023   5.564   4.191  15.799  0.6682 -1.6964 -0.0690
15844TIP3    H269024   5.501   4.170  15.935 -0.6724  0.8529 -0.2431
15845TIP3   OH269025   2.162   6.351  13.228 -0.0136  0.2575  0.1447
15845TIP3    H169026   2.168   6.430  13.282  1.3197  0.4398 -0.2256
15845TIP3    H269027   2.094   6.372  13.164  1.2076  1.6526 -0.7679
15846TIP3   OH269028   2.999   6.376  13.562 -0.2123  0.0943  0.4914
15846TIP3    H169029   3.093   6.394  13.566 -0.6149  3.1405 -0.9911
15846TIP3    H269030   2.968   6.394  13.651  0.5365 -0.6621  0.9237
15847TIP3   OH269031   2.054   2.777  15.684  0.4727  0.3529  0.1103
15847TIP3    H169032   1.981   2.811  15.632  0.4972  0.2920  0.0363
15847TIP3    H269033   2.041   2.816  15.770  0.1365  0.0308  0.2042
15848TIP3   OH269034   3.866   0.890  13.985 -0.0608  0.3859  0.6003
15848TIP3    H169035   3.820   0.840  13.917 -2.0621  0.5429  1.7728
15848TIP3    H269036   3.811   0.966  14.001  1.2732  1.2668  1.1906
15849TIP3   OH269037   4.375   4.948  11.861  0.4336  0.4209  0.1522
15849TIP3    H169038   4.382   4.891  11.938 -0.8304 -1.8698 -1.2854
15849TIP3    H269039   4.285   4.981  11.863  0.9068  1.7473  0.5149
15850TIP3   OH269040   3.687   4.657   2.270 -0.3328  0.7114 -0.2894
15850TIP3    H169041   3.675   4.752   2.265 -1.4885  0.7177  1.4592
15850TIP3    H269042   3.656   4.624   2.186  0.9759  1.9194 -1.2919
15851TIP3   OH269043   1.021   0.791   5.349  0.3800  0.0231  1.0025
15851TIP3    H169044   0.942   0.810   5.401  0.1154  0.1444  0.5550
15851TIP3    H269045   1.092   0.832   5.399  0.1437  0.0393  1.3329
15852TIP3   OH269046   6.024   0.545  11.000 -0.6888  0.6869  0.0110
15852TIP3    H169047   5.981   0.590  10.927 -1.2517  1.6495  0.8999
15852TIP3    H269048   6.055   0.616  11.056  0.9895 -0.0161  0.0147
15853TIP3   OH269049   1.178   4.805   1.217 -0.4330 -0.3038  0.0735
15853TIP3    H169050   1.167   4.741   1.287 -0.4647  0.5279  0.8447
15853TIP3    H269051   1.198   4.887   1.262  0.6650  0.0123 -0.9340
15854TIP3   OH269052   0.836   1.166  14.308 -0.3180 -0.7548  0.1582
15854TIP3    H169053   0.787   1.113  14.245 -0.0590  0.5345 -1.1714
15854TIP3    H269054   0.776   1.237  14.332  0.2879 -0.1354 -0.1479
15855TIP3   OH269055   4.063   4.688  15.023  0.8696  0.1205  0.6962
15855TIP3    H169056   3.985   4.643  15.057  1.2789 -2.8273 -1.8202
15855TIP3    H269057   4.129   4.619  15.017  2.6641  1.8463 -0.2426
15856TIP3   OH269058   2.504   1.401   3.873  0.5429 -0.5671  0.2737
15856TIP3    H169059   2.496   1.310   3.845 -0.6225 -0.4054  0.0263
15856TIP3    H269060   2.518   1.451   3.793 -1.2259 -0.2802  0.1069
15857TIP3   OH269061   2.829   0.831  17.200  0.3419  0.1244 -0.6373
15857TIP3    H169062   2.894   0.786  17.255  1.0986 -0.0422 -1.6437
15857TIP3    H269063   2.879   0.897  17.153 -0.5555  1.2384 -0.0816
15858TIP3   OH269064   3.350   5.579  16.586  0.2784 -0.3122  0.2900
15858TIP3    H169065   3.424   5.580  16.526  0.3327  1.8705  0.3223
15858TIP3    H269066   3.281   5.626  16.540 -0.5126 -0.7956  0.9558
15859TIP3   OH269067   2.292   3.064   0.351  0.1320 -0.5130  0.0352
15859TIP3    H169068   2.251   2.994   0.301 -1.6935  0.8542 -0.4826
15859TIP3    H269069   2.266   3.144   0.306  0.7273  0.5977  1.5872
15860TIP3   OH269070   0.666   4.395   2.437  0.2490 -0.3650 -0.4776
15860TIP3    H169071   0.641   4.361   2.523  2.2337  1.0061  0.7086
15860TIP3    H269072   0.640   4.487   2.439  1.8355  0.1207 -0.6359
15861TIP3   OH269073   5.406   1.619   4.690 -0.2205 -0.1986 -0.0603
15861TIP3    H169074   5.388   1.542   4.638 -1.1918 -0.0196  0.0063
15861TIP3    H269075   5.448   1.585   4.769 -2.3410 -0.8860  0.8435
15862TIP3   OH269076   5.331   6.623   2.209  0.2206 -0.3581 -0.4218
15862TIP3    H169077   5.350   6.704   2.258 -0.1713  0.2582 -1.2684
15862TIP3    H269078   5.344   6.647   2.117 -1.7659 -0.7252 -0.8337
15863TIP3   OH269079   5.539   4.506   4.356  0.0898 -0.2908  0.3110
15863TIP3    H169080   5.562   4.461   4.275 -1.7617 -0.3103 -0.2389
15863TIP3    H269081   5.479   4.576   4.328 -1.1989 -0.7808  1.7216
15864TIP3   OH269082   0.701   0.384   0.312 -0.0620  0.1195 -0.2891
15864TIP3    H169083   0.644   0.324   0.360 -0.1943  0.8900  0.5181
15864TIP3    H269084   0.759   0.421   0.378 -1.6489  2.8578 -0.2757
15865TIP3   OH269085   6.297   0.715  13.299 -0.1874  0.7497 -0.2791
15865TIP3    H169086   6.247   0.710  13.381 -1.1918  1.4211 -0.8298
15865TIP3    H269087   6.291   0.808  13.274 -0.3083  0.4547 -1.3720
15866TIP3   OH269088   2.504   1.953  14.897 -0.5610 -0.8013  0.6948
15866TIP3    H169089   2.563   1.988  14.964 -1.4406  4.2619 -0.7463
15866TIP3    H269090   2.418   1.953  14.939 -0.6020 -1.0815  0.6120
15867TIP3   OH269091   0.422   2.482  11.592 -0.1403 -0.2212 -0.0285
15867TIP3    H169092   0.328   2.499  11.583 -0.6532 -2.3289  0.8439
15867TIP3    H269093   0.456   2.489  11.503 -1.2465 -0.0825 -0.4566
15868TIP3   OH269094   4.876   0.978   3.809  0.2379 -0.2608  0.0806
15868TIP3    H169095   4.801   0.934   3.850 -0.3388 -0.4925 -1.1587
15868TIP3    H269096   4.930   0.907   3.776  0.4292 -0.0686 -0.0194
15869TIP3   OH269097   0.036   1.231   0.013  0.1281  0.8705 -0.4696
15869TIP3    H169098   0.046   1.265   0.102 -0.5234  1.4162 -0.6039
15869TIP3    H269099   0.113   1.264  -0.033 -0.6106  2.3683 -0.6589
15870TIP3   OH269100   2.450   1.441   3.416  0.0450 -0.4130  0.5648
15870TIP3    H169101   2.512   1.426   3.345 -1.5569 -0.8724 -0.8155
15870TIP3    H269102   2.409   1.525   3.396 -0.6383 -0.6907  0.7473
15871TIP3   OH269103   4.050   4.649  12.934 -0.3427 -0.1572 -0.5480
15871TIP3    H169104   3.960   4.617  12.930 -0.1954 -0.5742 -0.6324
15871TIP3    H269105   4.043   4.738  12.968 -0.6498 -0.7413  1.0101
15872TIP3   OH269106   6.517   2.934  11.341  0.3175  0.2689 -0.0753
15872TIP3    H169107   6.536   2.933  11.247 -0.0763 -1.4456 -0.1756
15872TIP3    H269108   6.493   2.843  11.361  3.0984 -0.0913  2.2364
15873TIP3   OH269109   6.650   1.758  17.033 -0.2762  0.2915  0.1186
15873TIP3    H169110   6.584   1.689  17.039 -0.8312  0.7867 -0.1850
15873TIP3    H269111   6.617   1.827  17.091  0.5473  0.0917  0.8442
15874TIP3   OH269112   1.826   6.751   4.912 -0.3963  0.2671  0.3875
15874TIP3    H169113   1.905   6.790   4.950 -1.1517  0.3509  1.9119
15874TIP3    H269114   1.754   6.798   4.952 -1.2605 -0.1952 -0.5696
15875TIP3   OH269115   4.178   3.595   5.984 -0.0713  0.3853 -0.4002
15875TIP3    H169116   4.145   3.519   6.032  1.5449  0.4005  0.8120
15875TIP3    H269117   4.273   3.583   5.982  0.2158  2.3676 -0.2011
15876TIP3   OH269118   6.771   2.655   4.797 -0.3299  0.2776  0.3144
15876TIP3    H169119   6.767   2.582   4.859 -0.1675  0.6702  0.7983
15876TIP3    H269120   6.853   2.699   4.819 -0.9790  1.2799  0.8113
15877TIP3   OH269121   6.170   1.751  12.738  0.4301  1.0754  0.1301
15877TIP3    H169122   6.090   1.789  12.701  0.0213  1.1078  1.0264
15877TIP3    H269123   6.190   1.678  12.680 -0.5836  0.7001  0.2307
15878TIP3   OH269124   6.670   4.236   5.594  0.2178 -0.0097 -0.0287
15878TIP3    H169125   6.621   4.211   5.516  0.6026  0.6475 -0.4872
15878TIP3    H269126   6.690   4.329   5.581  0.4774  0.0486  0.7489
15879TIP3   OH269127   3.817   4.566  15.102 -0.1639  0.2499  0.1068
15879TIP3    H169128   3.740   4.511  15.116  0.9963 -1.5422 -0.2707
15879TIP3    H269129   3.799   4.645  15.154 -1.9171 -0.4264  0.6084
15880TIP3   OH269130   6.667   0.704  15.409 -0.0523 -0.1432  0.3015
15880TIP3    H169131   6.645   0.792  15.439 -0.6863 -0.7297  1.6403
15880TIP3    H269132   6.762   0.705  15.398 -0.2222  1.2742 -1.6833
15881TIP3   OH269133   3.311   6.147   4.605  0.0766 -0.0643 -0.1731
15881TIP3    H169134   3.390   6.188   4.569  0.0863 -0.5122 -0.6728
15881TIP3    H269135   3.284   6.084   4.538 -0.8913  0.3131 -0.1538
15882TIP3   OH269136   4.960   1.396   1.918  0.5413 -0.1539 -0.7223
15882TIP3    H169137   4.904   1.342   1.975 -0.3817  2.2421  0.7823
15882TIP3    H269138   4.960   1.349   1.835 -0.4621 -2.2913  0.3826
15883TIP3   OH269139   6.427   1.995  16.954 -0.0127  0.0129  0.1398
15883TIP3    H169140   6.438   1.991  17.049  0.1353 -0.8800  0.1019
15883TIP3    H269141   6.374   2.073  16.939  1.2126  1.0146  0.8320
15884TIP3   OH269142   1.599   2.084   3.123  0.3900 -0.2420  0.2721
15884TIP3    H169143   1.634   2.171   3.104  1.2550 -0.9924 -1.8460
15884TIP3    H269144   1.664   2.024   3.087 -1.3786 -1.7390 -0.5347
15885TIP3   OH269145   0.733   4.503  16.696  0.4025 -0.5224 -0.2252
15885TIP3    H169146   0.812   4.536  16.740  1.4737 -1.3396 -1.4657
15885TIP3    H269147   0.677   4.580  16.687  1.9618  0.5629 -1.2053
15886TIP3   OH269148   4.661   3.756  13.421  0.0130 -0.2986 -0.9836
15886TIP3    H169149   4.590   3.757  13.357 -0.7609  1.0746 -0.1515
15886TIP3    H269150   4.726   3.816  13.386 -0.2736  0.2140 -0.6539
15887TIP3   OH269151   2.181   3.413  12.018  0.3492 -0.3639 -0.3839
15887TIP3    H169152   2.271   3.434  11.991 -0.3871  0.7718 -2.0624
15887TIP3    H269153   2.187   3.323  12.050  2.4622  0.3174  1.4762
15888TIP3   OH269154   2.213   5.483   3.636 -0.0669  0.3598 -0.0190
15888TIP3    H169155   2.219   5.449   3.725  0.3710 -0.8534 -0.4867
15888TIP3    H269156   2.278   5.433   3.587 -0.3149  0.9918 -1.0332
15889TIP3   OH269157   1.678   0.079   0.158 -0.1523  0.4809  0.0762
15889TIP3    H169158   1.651  -0.006   0.192 -0.1168  0.9145  1.2258
15889TIP3    H269159   1.723   0.121   0.231  1.3245  0.8300 -0.9763
15890TIP3   OH269160   3.057   4.841   0.770  0.5379  0.4628 -0.4101
15890TIP3    H169161   2.987   4.807   0.825  0.3891  1.0735 -0.2114
15890TIP3    H269162   3.013   4.868   0.689  0.8177 -0.8193 -1.0048
15891TIP3   OH269163   0.114   0.045   1.434  0.2762  0.1668  0.1938
15891TIP3    H169164   0.105   0.079   1.523 -0.5941 -1.0273  0.5845
15891TIP3    H269165   0.161  -0.037   1.444  0.7827  0.3598 -0.5370
15892TIP3   OH269166   0.692   2.718  15.108  0.2876  0.0354 -0.1618
15892TIP3    H169167   0.710   2.704  15.014  1.3601  0.3891 -0.0264
15892TIP3    H269168   0.668   2.810  15.115 -0.8045 -0.2296 -0.2144
15893TIP3   OH269169   2.641   5.402   0.250 -0.4180  0.5026 -0.3611
15893TIP3    H169170   2.598   5.348   0.182  0.2174 -0.5096  0.0211
15893TIP3    H269171   2.695   5.464   0.201  0.4060 -0.5318 -0.7955
15894TIP3   OH269172   3.934   1.807   1.707 -0.0672 -0.2832  0.0846
15894TIP3    H169173   3.882   1.732   1.677 -0.8129 -0.0566  0.7933
15894TIP3    H269174   4.025   1.775   1.706 -0.2594 -0.8424 -0.6680
15895TIP3   OH269175   2.830   5.090  13.627 -0.0065 -0.1683 -0.8120
15895TIP3    H169176   2.783   5.058  13.703 -0.6116 -0.0748 -1.1438
15895TIP3    H269177   2.763   5.131  13.572  0.6625  1.1813 -0.6599
15896TIP3   OH269178   0.768   5.959   3.443 -0.4140  0.1839 -0.5796
15896TIP3    H169179   0.797   5.946   3.353 -0.0234  3.3206 -1.0017
15896TIP3    H269180   0.696   6.023   3.437  0.1455  1.0856  1.3688
15897TIP3   OH269181   5.475   0.281   2.519  0.2033  0.3291 -0.0998
15897TIP3    H169182   5.409   0.260   2.453 -0.4856  0.0918  0.6460
15897TIP3    H269183   5.462   0.374   2.538 -1.6927 -0.2519  1.8988
15898TIP3   OH269184   4.164   1.922   2.126 -0.1764 -0.1734 -0.2571
15898TIP3    H169185   4.073   1.898   2.111 -0.8373 -0.1110  2.9175
15898TIP3    H269186   4.179   1.998   2.069 -1.7030 -0.9092 -1.7040
15899TIP3   OH269187   1.878   5.654   2.515 -0.2251 -0.3181 -0.3298
15899TIP3    H169188   1.783   5.667   2.505 -0.9394 -2.6862  1.9749
15899TIP3    H269189   1.909   5.732   2.561 -1.6021 -0.5139  1.0360
15900TIP3   OH269190   2.770   4.283  12.681  0.1139  0.6613  0.2792
15900TIP3    H169191   2.820   4.204  12.704 -0.9076  0.3933  1.6788
15900TIP3    H269192   2.758   4.276  12.586  1.7364  0.1600  0.0762
15901TIP3   OH269193   2.800   2.331  11.309  0.6655 -0.6388  0.0489
15901TIP3    H169194   2.845   2.389  11.247 -0.9192  1.1843  0.5011
15901TIP3    H269195   2.792   2.248  11.263  0.0789  0.4652 -1.9902
15902TIP3   OH269196   4.239   3.686   1.757 -0.2178 -0.1877 -0.1673
15902TIP3    H169197   4.244   3.729   1.672 -0.8789 -1.6316 -0.9850
15902TIP3    H269198   4.145   3.684   1.778 -0.1043 -0.2641  0.3566
15903TIP3   OH269199   4.228   0.724  14.098  0.2153  0.3094 -0.2562
15903TIP3    H169200   4.174   0.767  14.164 -0.7562 -0.7245 -0.3588
15903TIP3    H269201   4.311   0.773  14.101 -0.4727  1.5067  0.3540
15904TIP3   OH269202   5.279   4.950  13.571  0.1162 -0.4287  0.0610
15904TIP3    H169203   5.324   4.912  13.647 -2.8536  1.2465  2.8925
15904TIP3    H269204   5.290   5.044  13.582 -1.7165 -0.0966 -0.6875
15905TIP3   OH269205   2.984   4.283   0.027 -0.1319  0.1290 -0.4273
15905TIP3    H169206   3.031   4.207  -0.007  1.1991  0.6101  0.2895
15905TIP3    H269207   3.037   4.314   0.099 -2.4756 -0.3862  1.6634
15906TIP3   OH269208   0.838   0.799   1.249 -0.1802 -0.2761  0.1920
15906TIP3    H169209   0.872   0.888   1.241 -1.2082  0.0704 -0.3561
15906TIP3    H269210   0.748   0.809   1.278 -0.7455 -1.0867 -1.2197
15907TIP3   OH269211   5.451   3.285  10.396  0.9240  0.0715 -0.1275
15907TIP3    H169212   5.390   3.335  10.341  2.5390  2.1460 -0.1481
15907TIP3    H269213   5.397   3.255  10.469 -0.3677  0.8608 -0.7088
15908TIP3   OH269214   3.552   0.078  16.481  0.1606 -0.2020 -0.0853
15908TIP3    H169215   3.594  -0.004  16.507 -0.9256 -1.3198 -1.6962
15908TIP3    H269216   3.460   0.055  16.470 -0.2753  1.3942  0.0200
15909TIP3   OH269217   6.710   3.721  11.889 -0.7817  0.7414  0.4748
15909TIP3    H169218   6.724   3.808  11.853 -0.1997  0.6669  0.5063
15909TIP3    H269219   6.615   3.714  11.899 -0.8105  1.4954  0.7931
15910TIP3   OH269220   4.581   4.248  11.650  0.2394  0.2280 -0.1450
15910TIP3    H169221   4.663   4.214  11.687 -0.3289 -0.8195  0.1984
15910TIP3    H269222   4.535   4.170  11.619 -0.7725  0.7740 -0.0511
15911TIP3   OH269223   0.839   2.808  15.442  0.6342 -0.2811  0.1991
15911TIP3    H169224   0.885   2.816  15.525 -0.0670 -1.0003  0.6705
15911TIP3    H269225   0.773   2.740  15.457 -1.9686  2.0529  0.1925
15912TIP3   OH269226   2.273   0.562  12.821  0.2670 -0.1388  0.3623
15912TIP3    H169227   2.258   0.527  12.733 -1.1932 -0.2709  0.6341
15912TIP3    H269228   2.292   0.655  12.808 -1.4787  0.1998 -0.0265
15913TIP3   OH269229   3.471   4.369   3.385 -0.6704  0.0282  0.7543
15913TIP3    H169230   3.433   4.304   3.444 -0.7613 -0.8740 -0.2827
15913TIP3    H269231   3.560   4.338   3.370 -0.3889  0.6845  1.0373
15914TIP3   OH269232   6.538   2.294   6.155  1.1090 -0.0304  0.1905
15914TIP3    H169233   6.577   2.376   6.184  1.9366 -0.0267 -0.8751
15914TIP3    H269234   6.447   2.316   6.133  0.3910 -0.0684  2.8227
15915TIP3   OH269235   0.870   2.343  11.091  0.0521  0.4671  0.8862
15915TIP3    H169236   0.907   2.368  11.176  1.0026 -0.6248  0.8066
15915TIP3    H269237   0.946   2.328  11.035 -0.5167  3.2304 -0.8420
15916TIP3   OH269238   1.120   2.828   0.646 -0.5825  0.2258  0.2523
15916TIP3    H169239   1.216   2.831   0.637 -0.5801  0.7936  0.4324
15916TIP3    H269240   1.095   2.743   0.609 -0.0925  0.4202 -0.5643
15917TIP3   OH269241   2.721   2.173  13.740  0.2190  0.4674  0.5341
15917TIP3    H169242   2.667   2.098  13.716 -0.2805  0.4908  1.5084
15917TIP3    H269243   2.659   2.245  13.748  0.3457  0.4602  1.8157
15918TIP3   OH269244   2.305   2.540  13.570 -1.0654  0.0724 -0.0729
15918TIP3    H169245   2.284   2.629  13.541 -0.4039  0.6309  1.0856
15918TIP3    H269246   2.288   2.541  13.664  0.4763 -0.5596  0.2452
15919TIP3   OH269247   0.670   6.814  15.428  0.3122  0.2757 -0.2937
15919TIP3    H169248   0.649   6.722  15.446  0.7513  0.6041  2.2649
15919TIP3    H269249   0.659   6.858  15.512 -1.0707  2.8444 -1.6921
15920TIP3   OH269250   5.533   2.678  15.168 -0.7685 -0.4354 -0.1376
15920TIP3    H169251   5.505   2.696  15.258  1.7684  1.4319  0.4039
15920TIP3    H269252   5.553   2.585  15.167 -0.2947 -0.3793  1.4164
15921TIP3   OH269253   6.653   1.761  14.781 -0.6434  0.0618  0.1690
15921TIP3    H169254   6.716   1.831  14.797  0.5213 -0.6019 -1.2600
15921TIP3    H269255   6.572   1.792  14.821 -0.0166  1.9876  0.0467
15922TIP3   OH269256   3.048   6.667   1.860  0.1027 -0.4948 -0.4171
15922TIP3    H169257   3.113   6.687   1.793  1.5042 -0.3060  0.9579
15922TIP3    H269258   3.049   6.743   1.919  1.3679 -2.0248  1.6765
15923TIP3   OH269259   4.934   5.725   3.001  0.6108  0.0553 -0.0742
15923TIP3    H169260   4.879   5.680   2.937  1.3684 -1.3489  0.2303
15923TIP3    H269261   4.937   5.816   2.970  1.3600 -0.6772 -2.3368
15924TIP3   OH269262   1.426   5.739  12.913 -0.4409  0.0759 -0.4768
15924TIP3    H169263   1.520   5.731  12.927 -0.0954 -0.1262 -2.6869
15924TIP3    H269264   1.389   5.734  13.002  1.5929  0.0996  0.4337
15925TIP3   OH269265   4.527   2.434  11.173  0.0757  0.4862  0.0469
15925TIP3    H169266   4.595   2.413  11.237 -0.4831  0.9928  0.8267
15925TIP3    H269267   4.547   2.378  11.098  0.8693  0.0334  0.5772
15926TIP3   OH269268   5.206   4.113  12.125 -0.2076  0.2750 -0.0668
15926TIP3    H169269   5.150   4.183  12.158 -1.0060 -0.6106  0.5494
15926TIP3    H269270   5.155   4.074  12.054  0.3864  0.5420 -0.6439
15927TIP3   OH269271   2.557   2.991   2.726 -0.0039 -0.1591  0.0418
15927TIP3    H169272   2.474   2.966   2.767 -0.0252 -0.5211 -0.2126
15927TIP3    H269273   2.537   3.068   2.674 -0.2507 -0.4168 -0.2515
15928TIP3   OH269274   5.490   6.192  10.865  0.5047  0.1724 -0.2802
15928TIP3    H169275   5.430   6.209  10.937 -1.0017 -0.3533 -1.3730
15928TIP3    H269276   5.434   6.167  10.791  2.0081  0.4288 -1.5714
15929TIP3   OH269277   1.866   1.483  11.201 -0.3898 -0.5182  0.2054
15929TIP3    H169278   1.907   1.536  11.270  0.3682  1.2218 -1.4809
15929TIP3    H269279   1.812   1.420  11.248 -0.2309  0.8586  2.3732
15930TIP3   OH269280   2.431   4.701  16.385  0.1072 -0.3420  0.1192
15930TIP3    H169281   2.342   4.666  16.392 -0.3295  0.2579 -1.9013
15930TIP3    H269282   2.420   4.795  16.395  0.5555 -0.2849  0.0807
15931TIP3   OH269283   3.108   5.195   1.030  0.2565 -0.2049  0.1557
15931TIP3    H169284   3.108   5.286   1.060 -1.2129  0.2976 -1.2562
15931TIP3    H269285   3.198   5.181   0.999  0.4461  0.8278  0.1902
15932TIP3   OH269286   0.852   1.798  15.576 -0.2849 -0.3573  0.2975
15932TIP3    H169287   0.802   1.856  15.517  0.0646 -0.7166 -0.3667
15932TIP3    H269288   0.882   1.856  15.646  0.3127  0.3416 -0.5123
15933TIP3   OH269289   5.901   6.211   5.151  0.4926 -0.3130 -0.3534
15933TIP3    H169290   5.951   6.137   5.186 -0.5626  0.0094  2.0519
15933TIP3    H269291   5.939   6.288   5.195 -0.7523  0.1548 -0.0557
15934TIP3   OH269292   6.003   5.503   6.697  0.0269 -0.2780 -0.0077
15934TIP3    H169293   5.930   5.442   6.708  0.2094 -0.2139  1.8627
15934TIP3    H269294   5.999   5.560   6.773  1.1306  0.7082 -0.6493
15935TIP3   OH269295   0.572   5.723   0.017 -0.1529  0.2982  0.0115
15935TIP3    H169296   0.622   5.742  -0.063 -2.1341  0.5326 -1.2450
15935TIP3    H269297   0.633   5.674   0.072  1.0698 -0.4961 -1.9290
15936TIP3   OH269298   2.256   6.088  14.654 -0.4289 -0.0472 -0.3142
15936TIP3    H169299   2.269   6.031  14.730 -0.4795  0.5397  0.1498
15936TIP3    H269300   2.337   6.080  14.604 -0.6932 -1.0240 -0.6097
15937TIP3   OH269301   0.208   5.037   6.317 -0.3121  0.4864  0.1551
15937TIP3    H169302   0.148   5.054   6.244 -1.1960  1.1467  0.9993
15937TIP3    H269303   0.151   5.029   6.393  0.5551 -0.7096  0.7073
15938TIP3   OH269304   4.726   4.393  13.876  0.2545  0.2879  0.1043
15938TIP3    H169305   4.814   4.401  13.913 -0.1233 -0.0251  1.1083
15938TIP3    H269306   4.713   4.474  13.828  1.8078 -0.4440 -1.6714
15939TIP3   OH269307   2.518   1.112  10.448  0.2235 -0.2926 -0.2428
15939TIP3    H169308   2.560   1.028  10.431 -2.1438 -1.9983  1.6348
15939TIP3    H269309   2.479   1.137  10.363 -0.7269 -2.1644 -0.4052
15940TIP3   OH269310   3.871   4.197   5.763 -0.3961 -0.2710 -0.0110
15940TIP3    H169311   3.894   4.239   5.846 -1.2634  0.9362 -0.3494
15940TIP3    H269312   3.777   4.179   5.771 -0.7769  1.0269 -1.1908
15941TIP3   OH269313   4.557   1.478   2.280 -0.7083  0.5520 -0.4766
15941TIP3    H169314   4.618   1.469   2.353 -0.4049  0.5522 -0.7297
15941TIP3    H269315   4.471   1.462   2.319 -0.5414  0.4778 -0.1338
15942TIP3   OH269316   2.105   0.089   4.288  0.8739  0.1929 -0.2265
15942TIP3    H169317   2.097   0.013   4.231  0.1172 -0.7919  1.1345
15942TIP3    H269318   2.090   0.164   4.231 -0.7166 -0.7962 -1.1631
15943TIP3   OH269319   1.876   1.329   5.374 -0.7631  0.0666 -0.4164
15943TIP3    H169320   1.805   1.321   5.309 -1.2869  2.2296 -0.1629
15943TIP3    H269321   1.842   1.283   5.451 -0.3669 -2.0402 -1.4274
15944TIP3   OH269322   3.339   6.024  11.613  0.1138 -0.5018  0.2963
15944TIP3    H169323   3.387   6.024  11.696 -0.1696  0.2269  0.4701
15944TIP3    H269324   3.268   6.087  11.627  0.6239  0.3596 -0.8137
15945TIP3   OH269325   1.572   0.013  12.537 -0.5253  0.7647  0.3087
15945TIP3    H169326   1.582   0.094  12.487  0.8629  0.6822  0.4353
15945TIP3    H269327   1.554   0.042  12.626 -1.7907  0.9096  0.0324
15946TIP3   OH269328   0.403   3.689   0.228 -0.2609  0.0069 -0.4387
15946TIP3    H169329   0.479   3.635   0.251 -0.7959 -0.3139  0.6415
15946TIP3    H269330   0.414   3.706   0.135  0.1441 -1.6264 -0.7337
15947TIP3   OH269331   4.538   2.351  12.723  0.3529 -0.2958  0.1745
15947TIP3    H169332   4.496   2.424  12.766  0.3905 -0.8973  1.2557
15947TIP3    H269333   4.523   2.366  12.629 -1.1058  0.1914  0.4662
15948TIP3   OH269334   5.198   0.580   0.151 -0.3030  0.0223 -0.3875
15948TIP3    H169335   5.234   0.496   0.121 -2.2564 -1.3693  0.9386
15948TIP3    H269336   5.228   0.588   0.241  1.2533  1.6640 -0.9716
15949TIP3   OH269337   0.439   6.021   0.393 -0.3654  0.2412  0.6549
15949TIP3    H169338   0.344   6.021   0.379 -0.2459 -3.0994 -1.0907
15949TIP3    H269339   0.477   6.029   0.306  1.0113  1.4707  1.3172
15950TIP3   OH269340   6.198   0.606   2.816  0.3360 -0.3810  0.5611
15950TIP3    H169341   6.111   0.641   2.834  0.5214 -0.2937  1.3694
15950TIP3    H269342   6.257   0.680   2.830  0.4681 -0.1819 -0.9645
15951TIP3   OH269343   4.239   4.797  11.238 -0.6171  0.0181 -0.9736
15951TIP3    H169344   4.225   4.750  11.320  0.0401 -0.0180 -0.8772
15951TIP3    H269345   4.273   4.882  11.265 -3.9644  1.5316 -0.9968
15952TIP3   OH269346   4.133   0.996   1.403  0.3083  0.5360 -0.7839
15952TIP3    H169347   4.184   1.070   1.371 -0.0096  1.9369  1.6417
15952TIP3    H269348   4.043   1.029   1.406 -0.4693 -1.1612 -2.9024
15953TIP3   OH269349   3.707   1.451  13.881 -0.7816  0.3107  0.3368
15953TIP3    H169350   3.742   1.540  13.872  0.2622 -0.1969 -0.8529
15953TIP3    H269351   3.612   1.463  13.884 -0.6237  1.5909  2.0650
15954TIP3   OH269352   6.711   2.439   4.336  0.2547  0.1109  0.0453
15954TIP3    H169353   6.768   2.496   4.388 -1.4436  0.3450  1.7579
15954TIP3    H269354   6.659   2.500   4.283 -0.2878  0.0593  0.5150
15955TIP3   OH269355   6.693   2.302  14.281  0.4441  0.7015 -0.5255
15955TIP3    H169356   6.688   2.355  14.201  1.1143 -0.3861 -1.3269
15955TIP3    H269357   6.786   2.282  14.291  0.2888  0.2954  0.1719
15956TIP3   OH269358   4.775   1.956   2.711 -0.0371  0.1906  0.1046
15956TIP3    H169359   4.776   2.033   2.768  0.0343 -1.0802  1.8955
15956TIP3    H269360   4.786   1.882   2.771 -0.6670 -1.2560 -1.5043
15957TIP3   OH269361   6.417   6.689   2.932  0.4715 -0.3730  0.2758
15957TIP3    H169362   6.339   6.638   2.951 -0.5562  0.9346 -0.2481
15957TIP3    H269363   6.489   6.637   2.967 -0.7380 -1.0241  1.9351
15958TIP3   OH269364   5.124   2.851  16.268  0.0047 -0.1286 -0.0822
15958TIP3    H169365   5.064   2.860  16.342  0.7248 -0.6292  0.5789
15958TIP3    H269366   5.171   2.769  16.285  0.7830  0.1877 -0.6489
15959TIP3   OH269367   1.313   4.326   5.869  0.8158  0.3990 -0.5840
15959TIP3    H169368   1.342   4.266   5.938 -2.8233 -2.1268 -0.9433
15959TIP3    H269369   1.284   4.404   5.916  0.5751 -0.3401  0.5281
15960TIP3   OH269370   2.514   1.320  13.352 -0.3267  0.2739  0.2485
15960TIP3    H169371   2.551   1.250  13.405  0.5687  0.8411  0.4037
15960TIP3    H269372   2.494   1.390  13.414  0.2758  0.7579 -0.0847
15961TIP3   OH269373   5.394   6.682   0.355 -0.0334  0.4748 -0.0139
15961TIP3    H169374   5.430   6.695   0.443  1.5713 -0.4410 -0.5112
15961TIP3    H269375   5.441   6.744   0.300  0.0980 -0.0523 -0.5048
15962TIP3   OH269376   1.572   2.499   1.706  0.0450 -0.1204  0.3326
15962TIP3    H169377   1.565   2.410   1.672 -2.2685  0.2936 -0.4895
15962TIP3    H269378   1.491   2.511   1.757  0.5646  1.3368  0.8588
15963TIP3   OH269379   0.044   2.200  15.463 -0.4595  0.4916 -0.1091
15963TIP3    H169380  -0.040   2.184  15.420 -1.0118  0.3045  1.0057
15963TIP3    H269381   0.109   2.167  15.402 -1.1757  0.9788 -1.1546
15964TIP3   OH269382   4.222   0.642  16.174  0.2361  0.2925 -0.2459
15964TIP3    H169383   4.189   0.663  16.261 -0.4339  0.1777 -0.4659
15964TIP3    H269384   4.301   0.696  16.165 -0.9220  2.0479 -0.4307
15965TIP3   OH269385   6.412   1.135   2.197 -0.4285 -0.1221  0.3605
15965TIP3    H169386   6.468   1.070   2.239 -0.4783  0.4664  1.3783
15965TIP3    H269387   6.413   1.210   2.257 -2.6323 -0.2425  0.6380
15966TIP3   OH269388   4.125   0.738   1.285 -0.1375  0.5811  0.3403
15966TIP3    H169389   4.092   0.822   1.254 -0.7445 -0.2055 -1.2544
15966TIP3    H269390   4.188   0.711   1.218 -0.6594 -0.6595  0.3158
15967TIP3   OH269391   0.064   2.514  17.128  0.0697  0.2160  0.7211
15967TIP3    H169392   0.086   2.526  17.036 -1.6506 -1.1117  0.0938
15967TIP3    H269393   0.047   2.420  17.137 -2.6794  0.7103  1.6837
15968TIP3   OH269394   1.215   4.383  10.905  0.4395  0.0775 -0.0490
15968TIP3    H169395   1.207   4.438  10.827 -4.0228  1.9323  1.3808
15968TIP3    H269396   1.160   4.307  10.886  2.6934 -1.6408 -0.1389
15969TIP3   OH269397   4.611   2.578   4.279  0.2548  0.4813 -0.3079
15969TIP3    H169398   4.604   2.487   4.310 -0.8462 -0.0539 -2.0100
15969TIP3    H269399   4.701   2.603   4.300  0.6098 -1.0300  0.1114
15970TIP3   OH269400   0.025   4.445   4.133  0.1568  0.2220  0.1660
15970TIP3    H169401  -0.034   4.514   4.102  1.8147  2.4856  1.7312
15970TIP3    H269402   0.110   4.468   4.096  0.8359 -0.7474  1.0835
15971TIP3   OH269403   4.009   2.481   2.051  0.1015  0.5339  0.2455
15971TIP3    H169404   3.915   2.492   2.037 -0.0459  2.8898  2.2088
15971TIP3    H269405   4.050   2.544   1.992  0.3866  0.2360  0.1208
15972TIP3   OH269406   4.649   5.422   5.791  0.4144  0.1208 -0.3887
15972TIP3    H169407   4.716   5.394   5.729  0.5677 -0.4588  0.0391
15972TIP3    H269408   4.581   5.461   5.736  1.1933  0.9173 -0.8071
15973TIP3   OH269409   5.523   6.186  16.934 -0.5669  0.3185 -0.1252
15973TIP3    H169410   5.499   6.274  16.963 -0.4175 -0.0864  1.3002
15973TIP3    H269411   5.592   6.159  16.994  0.4225 -0.2243 -1.4590
15974TIP3   OH269412   4.269   4.774   4.656  0.0949  0.1767  0.0907
15974TIP3    H169413   4.342   4.760   4.716  1.2553 -0.6600 -1.4138
15974TIP3    H269414   4.311   4.794   4.572 -1.2780 -2.5784 -1.3873
15975TIP3   OH269415   3.179   4.170   0.274 -0.0474  0.1455  0.4840
15975TIP3    H169416   3.259   4.143   0.320  0.0386 -1.6285 -0.6022
15975TIP3    H269417   3.126   4.090   0.272 -0.5959  0.5299 -1.3068
15976TIP3   OH269418   0.160   2.074   4.648 -0.0870  0.1627 -0.4170
15976TIP3    H169419   0.088   2.137   4.652  0.2724  0.5332  0.8055
15976TIP3    H269420   0.205   2.094   4.566 -1.2103  0.0966 -1.0665
15977TIP3   OH269421   1.666   2.685   0.359 -0.0404  0.5799  0.3538
15977TIP3    H169422   1.571   2.697   0.364  0.0024  0.8050  0.6145
15977TIP3    H269423   1.679   2.638   0.276 -0.5018 -0.6529  0.9417
15978TIP3   OH269424   2.762   4.982  12.430 -0.2179  1.0150  0.3899
15978TIP3    H169425   2.708   4.975  12.509  1.2510  2.4009  1.5855
15978TIP3    H269426   2.725   5.057  12.383 -0.4479  0.8386  0.2880
15979TIP3   OH269427   4.004   0.345  11.237  0.3861  0.0658 -0.7817
15979TIP3    H169428   4.039   0.425  11.276  0.4509 -0.9036  1.2270
15979TIP3    H269429   4.009   0.361  11.142 -0.7692  2.9219 -0.4509
15980TIP3   OH269430   5.434   1.527  11.380 -0.0495 -0.1855 -0.3625
15980TIP3    H169431   5.453   1.602  11.436  2.2164 -0.7958 -0.2351
15980TIP3    H269432   5.370   1.475  11.429 -0.4705  0.8760  0.2254
15981TIP3   OH269433   4.411   1.528   2.855  0.6695 -0.0665 -0.0478
15981TIP3    H169434   4.502   1.544   2.831  0.4083 -0.4897 -1.3692
15981TIP3    H269435   4.372   1.615   2.863  1.0712  0.1042  0.0943
15982TIP3   OH269436   0.590   1.783  16.232 -0.6603 -0.0304  0.2528
15982TIP3    H169437   0.678   1.788  16.195 -0.1443  0.3708  1.4713
15982TIP3    H269438   0.548   1.712  16.185 -0.2079  0.7575 -1.4105
15983TIP3   OH269439   2.291   0.270  15.480 -0.0737  0.4361  0.2701
15983TIP3    H169440   2.234   0.341  15.510  0.4218  0.6831  0.6361
15983TIP3    H269441   2.237   0.191  15.488 -0.2255  0.6087  1.0230
15984TIP3   OH269442   3.653   4.706   0.643  0.3096  0.4024  0.3220
15984TIP3    H169443   3.633   4.786   0.691  0.4143  0.5184  0.1725
15984TIP3    H269444   3.684   4.736   0.558  2.2463  0.2918  0.9360
15985TIP3   OH269445   0.159   6.311   3.502 -0.0585 -0.4304 -0.1522
15985TIP3    H169446   0.101   6.380   3.472  1.2972  0.4969 -0.7714
15985TIP3    H269447   0.105   6.255   3.558 -0.6120  2.5907  2.5865
15986TIP3   OH269448   6.188   1.618   4.109 -0.1073 -0.2892 -0.2272
15986TIP3    H169449   6.136   1.558   4.057 -0.1679  0.2700 -0.8145
15986TIP3    H269450   6.127   1.652   4.175  0.0533 -1.2510  0.4467
15987TIP3   OH269451   3.512   0.423   2.219  0.2374  0.2703 -0.0957
15987TIP3    H169452   3.433   0.378   2.248 -0.6574  0.6775 -1.7726
15987TIP3    H269453   3.493   0.516   2.232  0.0017  0.4354 -1.4254
15988TIP3   OH269454   6.636   6.368  16.358  0.3015 -0.2932 -0.0504
15988TIP3    H169455   6.579   6.291  16.366 -1.3679  0.9791  0.8407
15988TIP3    H269456   6.695   6.361  16.433  0.7970 -1.1571 -0.4930
15989TIP3   OH269457   5.069   4.661   4.649 -0.2114 -0.0576  0.0570
15989TIP3    H169458   5.141   4.645   4.711  0.3749 -0.4251 -0.6947
15989TIP3    H269459   4.991   4.670   4.704  0.4445  0.5941  0.9111
15990TIP3   OH269460   6.201   3.729  11.505  0.2396  0.3900 -0.1053
15990TIP3    H169461   6.113   3.764  11.493  0.5767  0.9467 -1.0440
15990TIP3    H269462   6.241   3.734  11.418  1.4211  0.7925  0.4436
15991TIP3   OH269463   1.000   2.649  15.181 -0.0109 -0.2721  0.2383
15991TIP3    H169464   0.980   2.602  15.100 -0.3743 -2.1222  1.3475
15991TIP3    H269465   0.915   2.659  15.225  0.1857  0.6697  0.4294
15992TIP3   OH269466   5.539   5.766  14.119 -0.0617 -0.1191  0.3473
15992TIP3    H169467   5.515   5.855  14.142 -0.5985  0.1745 -1.2682
15992TIP3    H269468   5.459   5.715  14.132 -0.0808 -0.1418  0.1475
15993TIP3   OH269469   1.841   5.950   0.450 -0.2063 -0.4389  0.1728
15993TIP3    H169470   1.758   5.911   0.477 -2.1971  2.4415 -1.2301
15993TIP3    H269471   1.820   5.998   0.370  2.9537  0.1102 -0.4764
15994TIP3   OH269472   2.805   3.621   1.168  0.6163 -0.0133 -0.2361
15994TIP3    H169473   2.842   3.592   1.084  1.2423 -1.9827  0.6483
15994TIP3    H269474   2.715   3.587   1.167  0.2257  0.9978 -0.5781
15995TIP3   OH269475   5.121   3.442   3.693 -0.1410  0.6792  0.1116
15995TIP3    H169476   5.166   3.367   3.732  0.3018 -0.2220 -2.0096
15995TIP3    H269477   5.074   3.482   3.767 -1.0332 -2.1153  1.2237
15996TIP3   OH269478   2.185   1.751  17.074  0.3958 -0.7342 -0.0115
15996TIP3    H169479   2.227   1.676  17.116  0.6335 -0.3707  0.4090
15996TIP3    H269480   2.244   1.824  17.091  1.3890 -0.8841 -2.4438
15997TIP3   OH269481   3.483   3.684   1.944  0.2425 -0.2474  0.4707
15997TIP3    H169482   3.531   3.755   1.901  1.0098 -0.5795  0.7714
15997TIP3    H269483   3.470   3.715   2.033 -0.3503 -0.0489  0.3254
15998TIP3   OH269484   6.765   1.094   2.688  0.7005 -0.0371 -0.1142
15998TIP3    H169485   6.821   1.038   2.741  2.0566  1.5210  0.1759
15998TIP3    H269486   6.804   1.092   2.601  0.3691 -0.0431 -0.2661
15999TIP3   OH269487   4.242   3.126  12.971  0.2184  0.4640 -0.3689
15999TIP3    H169488   4.214   3.051  13.025  2.0764  0.3560  0.5263
15999TIP3    H269489   4.305   3.172  13.026  3.3377 -0.4247 -2.8849
16000TIP3   OH269490   3.298   5.820   0.970 -0.6560  0.3508  0.6691
16000TIP3    H169491   3.298   5.909   1.004  0.2342  0.2726  0.8868
16000TIP3    H269492   3.238   5.772   1.027 -1.7828  0.9861  0.0536
16001TIP3   OH269493   5.342   4.960   7.115 -0.6294  0.0297  0.3120
16001TIP3    H169494   5.319   4.867   7.119  0.1253 -0.1898 -0.2315
16001TIP3    H269495   5.271   5.000   7.064  0.2509 -0.6898 -1.5941
16002TIP3   OH269496   6.647   2.087  13.748 -0.2331  0.0200 -0.0928
16002TIP3    H169497   6.660   2.180  13.730 -1.6999  0.1247 -0.7053
16002TIP3    H269498   6.667   2.077  13.841  2.2184  0.4887 -0.5064
16003TIP3   OH269499   4.326   6.467   0.623  0.1397  0.1700  0.0428
16003TIP3    H169500   4.323   6.429   0.535  0.5163  2.5666 -1.0761
16003TIP3    H269501   4.235   6.483   0.646  0.0576 -0.1995 -0.0149
16004TIP3   OH269502   3.654   4.864   1.456  0.2084  0.1775  0.0929
16004TIP3    H169503   3.573   4.868   1.506 -0.1147  0.7854 -0.4575
16004TIP3    H269504   3.630   4.894   1.368  0.8202 -0.5766 -0.3554
16005TIP3   OH269505   3.542   0.938  16.428  0.6908  0.4443  0.5580
16005TIP3    H169506   3.598   0.968  16.500 -0.1803  0.9349  1.0680
16005TIP3    H269507   3.469   1.001  16.428  1.4330  1.3943 -1.7731
16006TIP3   OH269508   6.580   5.869   2.385 -0.7603 -0.6884  0.3389
16006TIP3    H169509   6.648   5.910   2.331  0.1087  0.7026  2.3921
16006TIP3    H269510   6.620   5.789   2.418 -0.4328 -0.3386  0.8021
16007TIP3   OH269511   5.984   5.051  16.871 -0.5697  0.3492 -0.0871
16007TIP3    H169512   6.020   4.992  16.937 -0.2367  0.3511 -0.2631
16007TIP3    H269513   5.891   5.029  16.866 -0.5413  0.1686  0.1884
16008TIP3   OH269514   1.655   1.859  12.321  0.3554 -0.3087  0.1454
16008TIP3    H169515   1.719   1.791  12.298  0.0813  0.2406 -2.6512
16008TIP3    H269516   1.706   1.940  12.323  0.2007 -0.2227  0.5996
16009TIP3   OH269517   1.425   2.535   1.956  0.2333  0.4469  0.2803
16009TIP3    H169518   1.434   2.601   2.025  0.6775 -0.2295  0.8853
16009TIP3    H269519   1.331   2.517   1.952  0.4228 -1.8076  2.9735
16010TIP3   OH269520   4.526   1.923  12.921 -0.6628  0.2639 -0.2773
16010TIP3    H169521   4.470   1.863  12.971  0.9765  0.7603  2.3142
16010TIP3    H269522   4.491   2.010  12.939 -1.7724  0.3215 -2.3789
16011TIP3   OH269523   2.060   3.681  11.831 -0.3010 -0.6073  0.2535
16011TIP3    H169524   2.000   3.627  11.779 -0.3582 -0.6576  0.3712
16011TIP3    H269525   2.089   3.623  11.901  1.5330 -1.2789 -0.9776
16012TIP3   OH269526   4.988   6.250   4.089 -0.2261 -0.1764  0.1864
16012TIP3    H169527   4.918   6.313   4.071 -1.9099 -2.1702 -0.5262
16012TIP3    H269528   4.977   6.181   4.024  3.2568  0.0209 -0.8354
16013TIP3   OH269529   2.294   2.815  13.285 -0.0034  0.2160  0.8684
16013TIP3    H169530   2.233   2.741  13.295 -0.1699  0.0054 -1.3423
16013TIP3    H269531   2.380   2.775  13.294 -0.1097 -0.1508  0.3242
16014TIP3   OH269532   2.121   5.403  15.351 -0.4315  0.3822 -0.3611
16014TIP3    H169533   2.127   5.477  15.292  1.2395 -0.7637 -1.7497
16014TIP3    H269534   2.096   5.441  15.435 -0.4221  2.3900 -1.2078
16015TIP3   OH269535   3.224   4.310   5.705  0.4410 -0.3085  0.0610
16015TIP3    H169536   3.227   4.405   5.695 -2.9906 -0.0585  0.0094
16015TIP3    H269537   3.180   4.279   5.626  0.2245 -1.7662  0.7186
16016TIP3   OH269538   6.242   1.850   2.884  0.2846 -0.1680  0.1320
16016TIP3    H169539   6.207   1.815   2.802  0.1898  2.3871 -1.0054
16016TIP3    H269540   6.176   1.827   2.950 -0.2303 -1.1926 -0.7020
16017TIP3   OH269541   2.854   3.582  14.035 -0.0461 -0.0581  0.3236
16017TIP3    H169542   2.942   3.600  14.069  0.6424 -1.4166 -0.6694
16017TIP3    H269543   2.866   3.510  13.973 -2.0469 -1.1761  1.1402
16018TIP3   OH269544   1.006   3.375  14.989  0.4202 -0.4623  0.2749
16018TIP3    H169545   0.930   3.332  15.028 -0.2003 -0.6698 -1.1009
16018TIP3    H269546   1.021   3.452  15.044 -1.4485  0.1667 -0.0178
16019TIP3   OH269547   6.094   3.101  15.841 -0.4519 -0.2070  0.7020
16019TIP3    H169548   6.023   3.039  15.857 -0.6882 -0.3348 -0.7007
16019TIP3    H269549   6.118   3.086  15.749  1.2164  0.0119  1.0778
16020TIP3   OH269550   6.206   2.548  14.786 -0.0079  0.1556 -0.7694
16020TIP3    H169551   6.150   2.544  14.863  0.1794  1.7964 -0.5224
16020TIP3    H269552   6.145   2.550  14.712 -0.1890 -1.1930 -0.6893
16021TIP3   OH269553   0.537   5.976  15.100 -0.6672  0.2318 -0.3237
16021TIP3    H169554   0.536   5.975  15.004  0.1211  1.5538 -0.3747
16021TIP3    H269555   0.588   5.899  15.124 -0.3917  0.1982 -0.9904
16022TIP3   OH269556   2.859   3.137  12.239  0.6587  0.5184  0.4954
16022TIP3    H169557   2.831   3.049  12.215  1.0008  0.1353  1.4170
16022TIP3    H269558   2.808   3.158  12.317  1.6341  0.5073  1.1683
16023TIP3   OH269559   5.447   0.125   0.901  0.0166 -0.0866  0.3313
16023TIP3    H169560   5.540   0.138   0.882 -0.1550  0.1836 -0.3422
16023TIP3    H269561   5.442   0.035   0.933  0.2464 -0.7779 -1.4524
16024TIP3   OH269562   1.536   4.864   2.556  0.1449  0.0595 -0.2439
16024TIP3    H169563   1.507   4.787   2.605  0.3417  0.0498 -0.1443
16024TIP3    H269564   1.558   4.929   2.622 -0.3897  0.3403 -0.3336
16025TIP3   OH269565   6.589   6.461   2.623 -0.1790  0.7241 -0.4177
16025TIP3    H169566   6.670   6.432   2.665  0.5446 -0.2603 -2.3910
16025TIP3    H269567   6.529   6.387   2.633 -0.6105  1.1742  0.4058
16026TIP3   OH269568   3.787   4.323   4.620 -0.5867  0.6919  0.4782
16026TIP3    H169569   3.719   4.306   4.685 -0.3834  0.2396  0.5706
16026TIP3    H269570   3.869   4.318   4.669 -0.4743  1.1497  0.3493
16027TIP3   OH269571   2.583   1.085   2.664  0.1776 -0.4056  0.0219
16027TIP3    H169572   2.584   0.996   2.699 -0.4552 -0.6197 -0.4712
16027TIP3    H269573   2.673   1.116   2.674 -0.2668  0.2087  3.4278
16028TIP3   OH269574   1.333   2.653  13.866  0.0445  0.3525  0.3300
16028TIP3    H169575   1.307   2.619  13.952 -0.2591  1.6203  0.7621
16028TIP3    H269576   1.261   2.709  13.839  0.6633  0.9140 -0.2068
16029TIP3   OH269577   1.213   5.927   5.724  0.8894  0.1324  0.2963
16029TIP3    H169578   1.189   5.858   5.787 -0.9010 -0.8303 -1.3324
16029TIP3    H269579   1.255   5.994   5.778 -0.6195 -0.5899  2.5490
16030TIP3   OH269580   4.561   6.354   4.969  0.5011  0.0176  0.2450
16030TIP3    H169581   4.537   6.413   5.041  1.3406 -1.0430  1.4392
16030TIP3    H269582   4.482   6.349   4.916 -0.6672 -0.2894  1.9119
16031TIP3   OH269583   5.014   1.606  16.613  0.2616  0.2256 -0.0301
16031TIP3    H169584   4.927   1.593  16.649  0.6622 -1.1691  0.5124
16031TIP3    H269585   5.014   1.696  16.580 -1.2523  0.3540  0.2788
16032TIP3   OH269586   6.567   2.738  16.767 -0.4399 -0.2535  0.4095
16032TIP3    H169587   6.534   2.714  16.854 -2.8463 -1.2025 -0.6710
16032TIP3    H269588   6.496   2.713  16.707  0.0457  2.7029 -1.5968
16033TIP3   OH269589   4.333   0.175   2.142  0.0829 -0.2311  0.0865
16033TIP3    H169590   4.360   0.156   2.052 -0.7435  0.4640 -0.3235
16033TIP3    H269591   4.285   0.258   2.136  2.7351  1.5597  1.6656
16034TIP3   OH269592   0.517   6.669   5.583  0.5486 -0.5425  0.3118
16034TIP3    H169593   0.582   6.693   5.518 -1.0667 -0.0523 -1.2128
16034TIP3    H269594   0.495   6.752   5.626 -0.5473 -0.3187 -0.6392
16035TIP3   OH269595   5.267   3.820   4.672 -0.5257  0.2467  0.1840
16035TIP3    H169596   5.190   3.853   4.625  1.4496 -0.3263 -3.8834
16035TIP3    H269597   5.264   3.725   4.658  0.0748  0.0275  1.4519
16036TIP3   OH269598   5.059   2.518  12.446 -0.3980 -0.0630  0.0974
16036TIP3    H169599   5.044   2.592  12.387 -1.1859 -2.0821 -2.4646
16036TIP3    H269600   5.153   2.500  12.439 -0.3915  0.0576 -0.1389
16037TIP3   OH269601   0.451   3.660   1.100 -0.5452  0.0093  0.0986
16037TIP3    H169602   0.535   3.694   1.071 -1.2596  1.7455 -0.0187
16037TIP3    H269603   0.393   3.736   1.102 -2.6270 -1.4113 -1.5805
16038TIP3   OH269604   2.844   1.344  16.649  0.2726 -0.2078  0.0225
16038TIP3    H169605   2.772   1.287  16.622  0.3128 -0.4309  0.3850
16038TIP3    H269606   2.914   1.284  16.675  0.3765  0.0093  0.2474
16039TIP3   OH269607   6.556   2.382   4.060  0.3071 -0.1842 -0.1213
16039TIP3    H169608   6.563   2.436   3.982 -0.1115 -0.9560 -0.7086
16039TIP3    H269609   6.618   2.311   4.047 -0.1124 -0.5849  0.0175
16040TIP3   OH269610   3.351   4.667   2.931  0.0365  0.7019  0.6690
16040TIP3    H169611   3.257   4.668   2.944 -0.0538  1.0743  0.0678
16040TIP3    H269612   3.386   4.618   3.005 -0.5430  1.4474  1.4531
16041TIP3   OH269613   3.993   4.934  13.821  0.0146 -0.1647  0.2878
16041TIP3    H169614   3.910   4.929  13.868  0.0053  1.5252  0.5123
16041TIP3    H269615   4.026   4.844  13.821 -0.4965 -0.4087  2.5649
16042TIP3   OH269616   2.894   5.251  16.755  0.2914  0.4052 -0.2045
16042TIP3    H169617   2.842   5.306  16.697  0.3695  0.3570 -0.3224
16042TIP3    H269618   2.973   5.232  16.704  0.4889  0.5967  0.0286
16043TIP3   OH269619   6.768   4.628   5.935 -0.1283  0.0441 -0.0433
16043TIP3    H169620   6.821   4.708   5.930 -0.3778  0.3131  1.3624
16043TIP3    H269621   6.690   4.653   5.984 -0.4993 -0.9204 -0.1149
16044TIP3   OH269622   2.471   3.904   4.257  0.0144 -0.8707 -0.3224
16044TIP3    H169623   2.497   3.843   4.188 -0.3871  0.4247 -1.6743
16044TIP3    H269624   2.517   3.986   4.235 -1.0400 -0.0928  0.2766
16045TIP3   OH269625   3.997   4.354   4.804  0.3212  0.3084  0.3348
16045TIP3    H169626   4.006   4.264   4.834 -0.6246  0.5586  1.4495
16045TIP3    H269627   4.074   4.399   4.840  1.4931 -0.3062 -1.3302
16046TIP3   OH269628   3.050   0.602   5.167  0.1670  0.0379 -0.1800
16046TIP3    H169629   2.994   0.580   5.241  0.0995 -0.5211 -0.3902
16046TIP3    H269630   3.066   0.696   5.176  0.6335 -0.1306  0.8657
16047TIP3   OH269631   6.143   4.475   5.903 -0.7062  0.6458 -0.7250
16047TIP3    H169632   6.075   4.542   5.912  0.1024  1.2270  1.8352
16047TIP3    H269633   6.218   4.523   5.866 -0.4001  0.9865  0.3103
16048TIP3   OH269634   5.748   2.173  10.379 -0.7085 -0.1857  0.3044
16048TIP3    H169635   5.827   2.217  10.410 -2.2583  3.1528 -0.1098
16048TIP3    H269636   5.772   2.080  10.378  3.1127  0.6203  0.4034
16049TIP3   OH269637   1.664   1.247   4.196  0.0834 -0.3559  0.1690
16049TIP3    H169638   1.669   1.192   4.274 -0.1196  0.3815  0.7077
16049TIP3    H269639   1.577   1.288   4.200 -0.4570 -1.3089 -1.1301
16050TIP3   OH269640   0.881   3.772  13.234 -0.2626 -0.6581  0.1775
16050TIP3    H169641   0.887   3.830  13.157 -1.8912  2.4528  2.1785
16050TIP3    H269642   0.957   3.794  13.287 -1.5084  0.6681  1.5118
16051TIP3   OH269643   3.842   6.253   5.133 -0.0065 -0.1203 -0.2925
16051TIP3    H169644   3.778   6.297   5.189 -1.6775 -0.8375 -1.5323
16051TIP3    H269645   3.924   6.259   5.181 -1.0940  0.4023  1.6191
16052TIP3   OH269646   2.932   2.614  15.799 -0.2097 -0.2775  1.0239
16052TIP3    H169647   2.902   2.698  15.766 -0.5544 -0.9522 -0.4566
16052TIP3    H269648   2.923   2.554  15.725  1.6868 -1.2381  1.5016
16053TIP3   OH269649   4.655   6.559   1.426 -0.2374  0.1850  0.1362
16053TIP3    H169650   4.592   6.492   1.400 -1.0086 -0.0337  2.3002
16053TIP3    H269651   4.677   6.606   1.346 -2.4617 -0.3358 -0.8342
16054TIP3   OH269652   2.921   5.908  16.372 -0.1394  0.4805  0.3202
16054TIP3    H169653   2.927   5.897  16.467 -0.1598 -0.1933  0.2478
16054TIP3    H269654   2.837   5.867  16.348  0.4575 -0.5273 -0.1432
16055TIP3   OH269655   5.820   2.903  16.121  0.0305 -0.1618  0.3587
16055TIP3    H169656   5.815   2.942  16.034 -0.0248 -0.4745  0.2232
16055TIP3    H269657   5.886   2.834  16.113 -1.1144 -1.2552  0.1566
16056TIP3   OH269658   5.441   5.541   6.729 -0.3325 -0.0646 -0.5562
16056TIP3    H169659   5.435   5.445   6.730 -1.0107 -0.0392  1.3097
16056TIP3    H269660   5.530   5.560   6.760 -0.1314 -0.0736 -1.1098
16057TIP3   OH269661   5.709   5.159   3.821  0.0901  0.0644  0.0409
16057TIP3    H169662   5.763   5.206   3.886 -0.6832  2.1878 -0.7484
16057TIP3    H269663   5.771   5.104   3.774  0.7388 -1.2334  2.2645
16058TIP3   OH269664   4.643   3.027  16.572 -0.3911 -0.5705 -0.4266
16058TIP3    H169665   4.700   2.989  16.638  0.2892  1.2896  0.1169
16058TIP3    H269666   4.590   3.090  16.620  0.6117  1.3429 -1.7037
16059TIP3   OH269667   5.784   1.241  15.106 -0.0948  0.5518  1.0365
16059TIP3    H169668   5.791   1.204  15.194  0.9641 -1.3606  0.2197
16059TIP3    H269669   5.696   1.216  15.077 -0.2931  0.8277  1.3879
16060TIP3   OH269670   5.791   2.897   2.889  0.0180 -0.5400 -0.7650
16060TIP3    H169671   5.883   2.881   2.870  0.4799 -1.0122  1.6262
16060TIP3    H269672   5.755   2.811   2.910 -0.6846 -0.2070 -0.5601
16061TIP3   OH269673   1.204   3.925   3.236 -1.0727 -0.1325 -0.2205
16061TIP3    H169674   1.145   3.891   3.303 -0.5701  0.1503  0.3729
16061TIP3    H269675   1.159   4.002   3.202 -0.3904  0.9924  1.3078
16062TIP3   OH269676   0.002   2.593   3.699  0.5299  0.0213  0.4441
16062TIP3    H169677   0.018   2.687   3.714  0.0083  0.6497 -2.2447
16062TIP3    H269678  -0.086   2.579   3.732  0.2563  0.7291  0.0530
16063TIP3   OH269679   0.315   4.145  13.226  0.5774 -0.1737  0.3073
16063TIP3    H169680   0.286   4.173  13.139  0.0978  0.5982  0.7019
16063TIP3    H269681   0.372   4.070  13.210 -1.6492 -1.8189 -0.5404
16064TIP3   OH269682   5.554   0.023   1.836 -0.4129  0.4430 -0.2032
16064TIP3    H169683   5.504   0.103   1.849  0.2756  0.9438 -0.5561
16064TIP3    H269684   5.540   0.000   1.744 -1.4800 -0.4625  0.1584
16065TIP3   OH269685   5.761   5.601  14.732 -0.1945 -1.1119  0.3533
16065TIP3    H169686   5.809   5.671  14.774  0.8221 -1.2939 -0.4568
16065TIP3    H269687   5.681   5.642  14.700  0.5358 -0.2286 -0.3898
16066TIP3   OH269688   6.432   5.078   3.655  0.6767 -0.3610  0.3198
16066TIP3    H169689   6.526   5.093   3.669  0.4714  0.0388  1.3888
16066TIP3    H269690   6.402   5.158   3.611  0.6507 -0.0168  0.9422
16067TIP3   OH269691   3.134   0.481  11.740 -0.5970 -0.5696  0.4002
16067TIP3    H169692   3.137   0.576  11.724  0.0647 -0.9266 -1.9170
16067TIP3    H269693   3.149   0.473  11.835 -1.8417  1.6728  0.8672
16068TIP3   OH269694   3.559   3.744  14.729  0.3099 -0.4758 -0.0527
16068TIP3    H169695   3.645   3.702  14.718  0.8941  0.8554 -0.8887
16068TIP3    H269696   3.577   3.837  14.713 -1.1187 -0.0447  0.7369
16069TIP3   OH269697   5.083   0.363   0.343 -0.0053 -0.0758  0.2045
16069TIP3    H169698   5.170   0.324   0.336  0.0047 -0.3087  1.4247
16069TIP3    H269699   5.090   0.427   0.413 -1.0700 -0.8724  1.0856
16070TIP3   OH269700   3.145   0.697  15.108  0.2675 -0.3359  0.0864
16070TIP3    H169701   3.176   0.674  15.020  1.0171 -2.2191  0.7800
16070TIP3    H269702   3.168   0.789  15.119  1.0943 -0.3526 -1.3163
16071TIP3   OH269703   0.561   1.413   1.367 -0.2788  0.6146 -0.2537
16071TIP3    H169704   0.656   1.418   1.353 -0.2323  0.4137 -0.0133
16071TIP3    H269705   0.530   1.351   1.301  0.0917 -1.1960  1.2077
16072TIP3   OH269706   3.494   6.770  12.981 -0.5360  0.1094 -0.1191
16072TIP3    H169707   3.524   6.764  13.072  0.6405 -0.9731 -0.5610
16072TIP3    H269708   3.407   6.729  12.982 -0.0652 -0.8962  0.3090
16073TIP3   OH269709   4.430   5.665   4.166  0.0023 -0.0320 -0.0222
16073TIP3    H169710   4.410   5.675   4.073 -0.2684 -0.6667 -0.0334
16073TIP3    H269711   4.519   5.699   4.175 -0.0649  0.2728 -0.4614
16074TIP3   OH269712   0.145   0.488  11.372  0.2128  0.0727 -0.0844
16074TIP3    H169713   0.082   0.420  11.349 -0.2147  0.7885 -1.1223
16074TIP3    H269714   0.097   0.547  11.429  0.6799 -0.6439  1.0799
16075TIP3   OH269715   2.344   2.557  11.997  0.3639  0.4879  0.5570
16075TIP3    H169716   2.308   2.625  11.940  1.5449 -0.7889 -1.8642
16075TIP3    H269717   2.438   2.560  11.981  0.6493 -0.4796  1.8879
16076TIP3   OH269718   5.012   3.634  14.008 -0.5299  0.6277  0.2939
16076TIP3    H169719   4.997   3.539  14.008 -0.4764  0.6108 -0.5376
16076TIP3    H269720   5.084   3.647  14.069 -0.9164  0.1943  0.8484
16077TIP3   OH269721   1.720   2.230   4.707  0.3225  0.0781 -0.4448
16077TIP3    H169722   1.626   2.212   4.718  0.4354 -0.3868 -0.2008
16077TIP3    H269723   1.760   2.198   4.788  0.8518 -0.9544 -1.0877
16078TIP3   OH269724   6.675   4.725   3.166 -0.5774  0.1957 -0.1022
16078TIP3    H169725   6.697   4.691   3.253 -0.6322  2.7424  0.9916
16078TIP3    H269726   6.757   4.722   3.117 -0.1567  0.2854  0.5851
16079TIP3   OH269727   0.784   1.738  16.809  0.3606  0.2291  0.1385
16079TIP3    H169728   0.879   1.727  16.818  0.3605 -1.8353 -1.6541
16079TIP3    H269729   0.747   1.682  16.877  0.4302 -0.3001 -0.2569
16080TIP3   OH269730   1.222   3.336  11.941 -0.7325 -0.4272 -0.2220
16080TIP3    H169731   1.166   3.382  11.878  0.2143  0.8723 -0.1464
16080TIP3    H269732   1.178   3.252  11.955 -2.8002  0.6471  0.0274
16081TIP3   OH269733   3.729   1.864   4.159 -0.5281  0.2248  0.0772
16081TIP3    H169734   3.707   1.803   4.229  0.0790  0.9023  0.8842
16081TIP3    H269735   3.716   1.951   4.198 -2.3453  0.6639 -1.3455
16082TIP3   OH269736   0.392   1.617  14.862  0.2593 -0.2058 -0.7366
16082TIP3    H169737   0.484   1.601  14.884 -0.2392 -0.5541  1.2819
16082TIP3    H269738   0.371   1.701  14.903 -0.3387 -0.1288 -1.1761
16083TIP3   OH269739   5.594   3.299  16.614 -0.0490  0.0630  0.0020
16083TIP3    H169740   5.532   3.371  16.623  1.2362  1.2169  0.0001
16083TIP3    H269741   5.615   3.273  16.703  1.6041  1.6352  0.1368
16084TIP3   OH269742   3.672   3.349  15.990 -0.0962  0.3091 -0.6314
16084TIP3    H169743   3.638   3.317  15.907 -0.8395  1.1013 -0.6432
16084TIP3    H269744   3.747   3.403  15.966  0.5433 -0.5869 -0.6796
16085TIP3   OH269745   3.289   5.536  17.191 -0.1841 -0.4617  0.1985
16085TIP3    H169746   3.384   5.545  17.186 -0.1800 -0.7844 -0.4352
16085TIP3    H269747   3.275   5.449  17.229 -0.2333  0.3267  2.0788
16086TIP3   OH269748   1.734   3.635   3.906  0.2691  0.1782 -0.6987
16086TIP3    H169749   1.746   3.554   3.954  0.3264  0.2072 -0.6641
16086TIP3    H269750   1.639   3.646   3.901  0.2647  0.4262 -0.1644
16087TIP3   OH269751   2.427   4.099  11.589  0.0815 -0.2142  0.1027
16087TIP3    H169752   2.447   4.143  11.506  1.0991  0.9704  0.9375
16087TIP3    H269753   2.412   4.170  11.651  0.1524 -1.0714  1.1228
16088TIP3   OH269754   0.723   6.808  15.931 -0.3279  0.7098 -0.2638
16088TIP3    H169755   0.791   6.872  15.909  0.3211 -0.4846 -1.9977
16088TIP3    H269756   0.728   6.743  15.860 -1.3940 -0.9000  1.0591
16089TIP3   OH269757   0.612   5.796  16.059 -0.5916  0.2235  0.6268
16089TIP3    H169758   0.649   5.862  16.118  0.8993  0.1548 -0.1952
16089TIP3    H269759   0.576   5.730  16.118  1.0157  0.0695  1.5093
16090TIP3   OH269760   1.793   6.791  13.366  0.0679 -0.0125 -0.5898
16090TIP3    H169761   1.762   6.775  13.277 -0.1951  0.2854 -0.5557
16090TIP3    H269762   1.857   6.722  13.382 -0.4644 -0.5466 -0.7260
16091TIP3   OH269763   1.887   4.723  16.284 -0.0505  0.2714  0.4082
16091TIP3    H169764   1.794   4.709  16.265 -0.0841 -0.0015  0.7710
16091TIP3    H269765   1.895   4.708  16.378  0.6667 -1.3882  0.1219
16092TIP3   OH269766   3.747   2.097   0.426 -0.0482 -0.0079 -0.0085
16092TIP3    H169767   3.698   2.179   0.418  0.9917  0.7479  1.0577
16092TIP3    H269768   3.783   2.082   0.339 -0.3660  0.5849 -0.2501
16093TIP3   OH269769   3.350   6.763  14.271  0.1398  0.1190  0.8408
16093TIP3    H169770   3.318   6.850  14.247 -0.4922  0.0974  1.5875
16093TIP3    H269771   3.431   6.779  14.318 -0.0389  0.3193  1.0860
16094TIP3   OH269772   2.712   5.142  16.475  0.1581 -0.0724  0.2392
16094TIP3    H169773   2.627   5.177  16.448  0.0696 -1.5556 -1.5681
16094TIP3    H269774   2.700   5.119  16.567 -1.9141 -1.5844 -0.3394
16095TIP3   OH269775   3.570   1.843   4.692 -0.6589  0.5284 -0.3813
16095TIP3    H169776   3.654   1.886   4.704 -0.6294  0.6074 -0.8429
16095TIP3    H269777   3.537   1.829   4.781 -0.9772  2.0818 -0.2246
16096TIP3   OH269778   6.706   3.180   4.537  0.1506 -0.2954  0.0983
16096TIP3    H169779   6.753   3.187   4.454 -1.7210 -0.4169 -1.0271
16096TIP3    H269780   6.617   3.207   4.516 -0.0597  0.9775  2.3901
16097TIP3   OH269781   5.732   5.083   5.359  0.2537  0.4327 -0.1533
16097TIP3    H169782   5.733   5.042   5.272 -1.3083  0.9667 -0.4402
16097TIP3    H269783   5.789   5.028   5.412  2.9526  1.2244 -1.9963
16098TIP3   OH269784   3.292   0.320   1.980  0.4302 -0.0950  0.2402
16098TIP3    H169785   3.346   0.241   1.982  1.4121  0.5509  0.0293
16098TIP3    H269786   3.354   0.391   1.960 -0.7047  0.5015 -1.3423
16099TIP3   OH269787   4.417   1.127   0.217 -0.4125  0.4313  0.5090
16099TIP3    H169788   4.362   1.120   0.295 -0.2420  0.5789  0.6467
16099TIP3    H269789   4.433   1.037   0.190  0.2286  0.3423  1.1514
16100TIP3   OH269790   1.386   4.884  11.306 -0.3577  0.3334  0.6074
16100TIP3    H169791   1.479   4.873  11.327 -0.5563  1.7855  2.5114
16100TIP3    H269792   1.364   4.970  11.341 -2.3568  0.1633 -0.1341
16101TIP3   OH269793   1.899   4.717   5.294 -0.1938  0.0065  0.4641
16101TIP3    H169794   1.973   4.693   5.350  0.3447  2.1043  0.7113
16101TIP3    H269795   1.919   4.676   5.209  0.9864  0.1146  0.6752
16102TIP3   OH269796   1.911   4.277  11.167  0.1189  0.0516 -0.3289
16102TIP3    H169797   1.882   4.254  11.079  0.1391 -0.0083 -0.3200
16102TIP3    H269798   1.883   4.203  11.221  1.3430 -0.5695 -0.5207
16103TIP3   OH269799   4.998   1.356  15.581  0.0343  0.7045  0.3027
16103TIP3    H169800   4.968   1.385  15.667  1.3891  2.0470  0.3609
16103TIP3    H269801   5.077   1.304  15.599  0.6851  1.5120 -0.1404
16104TIP3   OH269802   5.403   6.749  14.102  0.8845  0.0856 -0.2711
16104TIP3    H169803   5.477   6.730  14.044  0.2439  2.1107 -1.8688
16104TIP3    H269804   5.328   6.758  14.043 -0.1759  0.3252  1.0773
16105TIP3   OH269805   2.016   1.339  15.240 -0.4391  0.5029  0.0375
16105TIP3    H169806   1.929   1.342  15.202 -0.3557  1.0398 -0.1083
16105TIP3    H269807   2.069   1.293  15.175 -0.9000 -1.0703  0.7114
16106TIP3   OH269808   5.460   5.461   3.507  0.1534  0.4585 -0.3018
16106TIP3    H169809   5.494   5.480   3.419 -0.3779  0.9099 -0.4154
16106TIP3    H269810   5.429   5.370   3.501  1.3006  0.0351 -0.1955
16107TIP3   OH269811   5.260   3.326   1.912  0.2830  0.0127 -0.6542
16107TIP3    H169812   5.244   3.368   1.827 -2.0415 -1.1870 -0.9031
16107TIP3    H269813   5.174   3.328   1.955  1.2131 -0.2519  1.2898
16108TIP3   OH269814   1.058   3.886   0.113  0.1331  0.5675 -0.0983
16108TIP3    H169815   1.074   3.803   0.157  1.8789 -0.2811 -2.1157
16108TIP3    H269816   0.968   3.909   0.136 -0.4509 -1.9337  0.4355
16109TIP3   OH269817   4.746   0.816   1.193  0.0447 -0.4622 -0.1676
16109TIP3    H169818   4.781   0.727   1.203  0.6699 -0.0693  1.3256
16109TIP3    H269819   4.651   0.805   1.193  0.1209 -1.2139 -0.9328
16110TIP3   OH269820   3.271   2.864   2.310  0.2105 -0.6627  0.0844
16110TIP3    H169821   3.349   2.894   2.264 -0.9459  1.9078 -0.4050
16110TIP3    H269822   3.232   2.798   2.252  1.8011 -1.7580  0.2067
16111TIP3   OH269823   4.714   2.199   5.217  0.2399 -0.3686 -0.4376
16111TIP3    H169824   4.679   2.245   5.293  0.3483  0.1808 -0.7139
16111TIP3    H269825   4.697   2.257   5.143 -0.9046 -1.4000 -1.0296
16112TIP3   OH269826   4.959   0.924   1.918 -0.5087  0.7814  0.1776
16112TIP3    H169827   4.952   0.831   1.898  2.2646  0.1642  1.6873
16112TIP3    H269828   4.888   0.940   1.981  0.3573 -0.9001  1.6664
16113TIP3   OH269829   4.257   2.793   5.174 -0.2065  0.5262 -0.3222
16113TIP3    H169830   4.350   2.786   5.152 -0.4532 -0.8929 -0.9968
16113TIP3    H269831   4.215   2.823   5.093 -0.3774  0.9974 -0.0671
16114TIP3   OH269832   1.866   4.605   0.698  0.1906  0.1997 -0.0800
16114TIP3    H169833   1.895   4.515   0.709 -0.7112 -0.1921 -0.8774
16114TIP3    H269834   1.815   4.624   0.777 -0.1000 -0.1746 -0.1788
16115TIP3   OH269835   3.552   4.789  12.285  0.0986 -0.3721 -0.0071
16115TIP3    H169836   3.556   4.705  12.332  0.5261  0.1293  0.8732
16115TIP3    H269837   3.549   4.855  12.354  0.4557  0.3734 -0.6906
16116TIP3   OH269838   5.518   5.151  11.458  0.4850 -0.6295 -0.1442
16116TIP3    H169839   5.592   5.209  11.444  0.8805 -0.7617  1.2853
16116TIP3    H269840   5.479   5.180  11.540 -0.7932 -0.8434 -0.6481
16117TIP3   OH269841   1.588   2.219   1.734 -0.3127 -0.3050  0.5355
16117TIP3    H169842   1.680   2.221   1.707 -0.0369 -0.8864  1.4072
16117TIP3    H269843   1.551   2.145   1.687 -0.1303 -0.5767  0.8183
16118TIP3   OH269844   0.195   2.690   0.232  0.9596 -0.1276  0.3692
16118TIP3    H169845   0.137   2.702   0.157  0.3126 -2.2627  0.4512
16118TIP3    H269846   0.279   2.725   0.203 -0.5178  4.2009  0.6910
16119TIP3   OH269847   4.438   4.254  15.420 -0.3221  0.0321 -0.0319
16119TIP3    H169848   4.515   4.284  15.469  0.4723 -1.3363 -0.4029
16119TIP3    H269849   4.465   4.256  15.329 -0.4967 -1.0860 -0.1174
16120TIP3   OH269850   5.056   3.908   6.688  0.1445 -0.1964  0.6398
16120TIP3    H169851   5.047   3.853   6.611 -3.0394 -0.9854  1.4470
16120TIP3    H269852   4.987   3.974   6.680  3.3681  3.4887  0.0477
16121TIP3   OH269853   5.967   5.931   5.705  0.2781  0.0844  0.1644
16121TIP3    H169854   5.921   6.000   5.753  0.8952 -0.3077  1.3366
16121TIP3    H269855   5.897   5.872   5.676 -0.2708  1.2063 -0.9309
16122TIP3   OH269856   0.219   6.727  13.003 -0.0201 -0.0082  0.4179
16122TIP3    H169857   0.193   6.783  13.076  1.7684  0.8893  0.4104
16122TIP3    H269858   0.193   6.776  12.925 -1.9838 -0.9930  0.3988
16123TIP3   OH269859   3.864   5.388  11.187  0.1799 -0.4324 -0.1709
16123TIP3    H169860   3.957   5.383  11.165  0.7368  0.5796  1.7228
16123TIP3    H269861   3.836   5.472  11.151 -1.2672 -2.5073 -4.6731
16124TIP3   OH269862   0.458   0.706  16.710 -0.3432 -0.2695  0.3293
16124TIP3    H169863   0.481   0.708  16.617  0.5463 -0.0194  0.5519
16124TIP3    H269864   0.541   0.709  16.756 -0.8187  0.9354  1.1531
16125TIP3   OH269865   0.070   4.248  14.995 -0.4090  0.1092  0.3765
16125TIP3    H169866   0.089   4.160  15.029 -1.1500  0.2600  1.2011
16125TIP3    H269867  -0.017   4.241  14.957 -0.1443  0.2982 -0.2958
16126TIP3   OH269868   5.422   2.268  14.610  0.3045  0.3796 -0.4835
16126TIP3    H169869   5.510   2.242  14.581  0.7919  1.2123  0.1688
16126TIP3    H269870   5.410   2.224  14.694  0.1753  0.4046 -0.4882
16127TIP3   OH269871   0.601   2.636  12.374 -0.0112  0.6077  0.3372
16127TIP3    H169872   0.676   2.659  12.429  1.4774 -1.0066 -0.8937
16127TIP3    H269873   0.595   2.540  12.381 -1.5277  0.6413 -0.1446
16128TIP3   OH269874   1.184   3.524  13.351  0.5099 -0.1141  0.4948
16128TIP3    H169875   1.272   3.525  13.390  0.9532 -1.4250 -0.4006
16128TIP3    H269876   1.200   3.532  13.257 -0.5364  2.9359  0.4511
16129TIP3   OH269877   1.143   1.258   2.355 -0.1158  0.1026  0.3366
16129TIP3    H169878   1.115   1.334   2.407 -1.6247  0.0631 -0.3625
16129TIP3    H269879   1.182   1.198   2.419 -1.2241  0.3832  1.3045
16130TIP3   OH269880   0.072   5.563   5.311 -0.1851 -0.3465 -0.7160
16130TIP3    H169881   0.087   5.657   5.322 -1.8888 -0.1281  0.0186
16130TIP3    H269882   0.000   5.543   5.371  1.4291 -2.5262  0.6384
16131TIP3   OH269883   4.252   3.292   0.966 -0.2241 -0.6402  0.2788
16131TIP3    H169884   4.175   3.239   0.943 -0.5623 -0.6734  1.4539
16131TIP3    H269885   4.304   3.236   1.023  0.3982 -0.4041 -0.0423
16132TIP3   OH269886   2.436   2.531   2.205  0.3441  0.4052 -0.0360
16132TIP3    H169887   2.405   2.602   2.261  1.7338  1.1741 -0.2093
16132TIP3    H269888   2.474   2.468   2.266 -0.3735  0.0645  0.0700
16133TIP3   OH269889   2.936   6.308  16.369 -0.2563  0.2039  0.0839
16133TIP3    H169890   2.997   6.264  16.311 -0.3236  1.1595 -0.7317
16133TIP3    H269891   2.850   6.291  16.330 -0.3256  0.6204  0.0557
16134TIP3   OH269892   1.751   5.418  13.124 -0.0560  0.3186  0.1098
16134TIP3    H169893   1.763   5.500  13.077  0.1494 -0.2402 -0.8480
16134TIP3    H269894   1.768   5.440  13.216 -2.0267  1.7806  0.1862
16135TIP3   OH269895   3.810   0.575   2.381  0.4639 -0.2041 -0.7700
16135TIP3    H169896   3.774   0.626   2.454  0.8453 -0.7489 -0.1795
16135TIP3    H269897   3.781   0.621   2.302 -0.5901 -0.0196 -0.2961
16136TIP3   OH269898   0.402   2.279  17.078  0.2289 -0.7815 -0.2108
16136TIP3    H169899   0.335   2.314  17.020  0.4798 -0.8654 -0.5521
16136TIP3    H269900   0.455   2.222  17.022  2.0295  1.0972 -0.5052
16137TIP3   OH269901   3.206   3.851   3.837  0.5390 -0.6637 -0.6131
16137TIP3    H169902   3.212   3.933   3.788 -0.2613 -0.0297  0.3071
16137TIP3    H269903   3.290   3.843   3.882 -0.2596  1.0417  1.3637
16138TIP3   OH269904   0.255   1.523   3.590 -0.0136  0.0507 -0.4259
16138TIP3    H169905   0.314   1.469   3.642  1.4804  1.9244 -0.0432
16138TIP3    H269906   0.275   1.501   3.499  1.4626  0.8029 -0.3038
16139TIP3   OH269907   1.658   3.554  11.622 -0.3924 -0.1293 -0.0985
16139TIP3    H169908   1.737   3.586  11.578 -1.1132 -0.3287 -1.5840
16139TIP3    H269909   1.665   3.458  11.618 -0.0755 -0.1598  0.9617
16140TIP3   OH269910   1.590   4.827  16.230  0.3654  0.2193 -0.2097
16140TIP3    H169911   1.605   4.807  16.322 -0.8726  0.2701  0.0298
16140TIP3    H269912   1.571   4.921  16.228 -0.4929  0.0527 -0.3782
16141TIP3   OH269913   2.716   5.069  13.202  0.0605 -0.2107  0.5492
16141TIP3    H169914   2.707   4.998  13.139 -1.4554  2.2923 -2.3092
16141TIP3    H269915   2.626   5.089  13.228  0.5467 -0.0177  2.2233
16142TIP3   OH269916   2.028   5.685  11.767  0.0494  0.1615  0.5226
16142TIP3    H169917   1.968   5.616  11.740 -0.2784  0.4206  0.5817
16142TIP3    H269918   2.030   5.745  11.693  0.8991 -0.2757  0.1773
16143TIP3   OH269919   5.350   2.531   1.083 -0.0980  0.1817 -0.5505
16143TIP3    H169920   5.261   2.537   1.116 -0.4141  0.2456 -1.3866
16143TIP3    H269921   5.405   2.556   1.157 -0.7910  0.5032 -0.1344
16144TIP3   OH269922   0.776   5.085   2.902  0.3690 -0.1011  0.2014
16144TIP3    H169923   0.779   5.014   2.966 -0.1921 -0.7928 -0.5055
16144TIP3    H269924   0.867   5.100   2.878  0.4975 -0.5716  0.3789
16145TIP3   OH269925   0.606   0.737  12.594  0.1869  0.0711 -0.4617
16145TIP3    H169926   0.555   0.656  12.586 -0.2323  0.3763 -0.9400
16145TIP3    H269927   0.581   0.774  12.678  0.6504 -0.4747 -0.0743
16146TIP3   OH269928   5.215   4.183   5.989  0.1407 -0.7001  0.3919
16146TIP3    H169929   5.125   4.164   5.964 -0.1443 -1.4430  1.9118
16146TIP3    H269930   5.212   4.196   6.084  1.3244  1.1512  0.2370
16147TIP3   OH269931   3.618   4.854  15.219  0.0180 -0.1495  0.0502
16147TIP3    H169932   3.605   4.941  15.182 -1.7995 -0.0838  0.7262
16147TIP3    H269933   3.706   4.828  15.191  0.2908  1.5771 -0.7910
16148TIP3   OH269934   6.769   4.009  14.868  0.1597 -0.0393  0.3655
16148TIP3    H169935   6.708   3.936  14.865  1.4118 -1.1184  0.3696
16148TIP3    H269936   6.838   3.981  14.927  0.6181  1.1998  0.4532
16149TIP3   OH269937   2.168   4.424  13.522  0.3857 -0.0659  0.4453
16149TIP3    H169938   2.249   4.443  13.474 -0.7128  0.9235 -1.1162
16149TIP3    H269939   2.107   4.492  13.494 -2.0101 -2.5742 -0.9381
16150TIP3   OH269940   5.731   3.533  11.856  0.2720 -0.5012 -0.1883
16150TIP3    H169941   5.670   3.572  11.794 -0.3305 -2.7058 -1.1015
16150TIP3    H269942   5.808   3.510  11.804 -0.3890 -2.7140 -0.2906
16151TIP3   OH269943   1.430   6.744   3.656 -0.1124 -1.0047  0.1155
16151TIP3    H169944   1.467   6.682   3.593  0.8161 -0.3514  0.0016
16151TIP3    H269945   1.434   6.829   3.612  1.2366 -0.4131  1.3058
16152TIP3   OH269946   1.155   0.401   3.618  0.1776  0.4161 -0.1357
16152TIP3    H169947   1.207   0.323   3.596 -0.9172 -0.6066  0.7971
16152TIP3    H269948   1.202   0.473   3.576  0.6029 -0.8712 -1.9983
16153TIP3   OH269949   2.951   4.535   5.580  0.1128 -0.2438  0.2321
16153TIP3    H169950   2.903   4.532   5.663 -0.3153 -1.6374 -0.0467
16153TIP3    H269951   3.043   4.533   5.605  0.1028  2.2836  0.7685
16154TIP3   OH269952   2.071   0.011   1.845 -0.0134  0.1609  0.1035
16154TIP3    H169953   2.147   0.055   1.806  0.6812  1.0418  2.2856
16154TIP3    H269954   2.001   0.076   1.843 -0.0506  0.1204  0.0921
16155TIP3   OH269955   0.806   2.880  14.433  0.7660 -0.5430  0.4196
16155TIP3    H169956   0.823   2.808  14.372  0.8745 -0.3098  0.1739
16155TIP3    H269957   0.736   2.930  14.392  0.8148 -0.4061  0.5025
16156TIP3   OH269958   3.206   2.901   3.994  0.4212 -0.4739 -0.3732
16156TIP3    H169959   3.270   2.964   3.961  0.5460 -0.1530  0.4827
16156TIP3    H269960   3.181   2.850   3.916  0.1282  0.7760 -1.1150
16157TIP3   OH269961   6.072   3.619   6.321  0.3519 -0.3629 -0.6637
16157TIP3    H169962   5.978   3.602   6.332  0.4461 -0.2756  0.3263
16157TIP3    H269963   6.083   3.710   6.348  0.7818 -0.4882 -0.4164
16158TIP3   OH269964   5.607   6.524   6.706 -0.2304 -0.1945 -0.7616
16158TIP3    H169965   5.589   6.590   6.773  0.0587 -0.8885  0.0260
16158TIP3    H269966   5.673   6.564   6.649  0.0180  0.1643 -0.2324
16159TIP3   OH269967   5.618   6.331  12.806 -0.4756 -0.0754 -0.3750
16159TIP3    H169968   5.703   6.296  12.834 -0.0683 -1.0686 -2.6733
16159TIP3    H269969   5.572   6.256  12.769 -1.9578  0.6756 -0.1412
16160TIP3   OH269970   5.124   5.241  16.277 -0.0601  0.0015  0.2731
16160TIP3    H169971   5.052   5.300  16.253 -0.1742 -0.7318 -1.2941
16160TIP3    H269972   5.128   5.177  16.206  1.1700 -0.8796  1.0892
16161TIP3   OH269973   6.183   5.781   6.129 -0.4797 -0.0939 -0.0904
16161TIP3    H169974   6.145   5.854   6.178  1.9919  0.3756  1.3033
16161TIP3    H269975   6.175   5.807   6.037  1.6831  2.7895  0.3835
16162TIP3   OH269976   4.264   3.608   3.496  0.2810  0.1490 -0.2482
16162TIP3    H169977   4.359   3.604   3.505  0.3746  0.4127 -1.0681
16162TIP3    H269978   4.238   3.518   3.476  0.4489  0.2260 -0.8273
16163TIP3   OH269979   2.715   0.478  11.555 -0.3575  0.2430  0.1781
16163TIP3    H169980   2.639   0.435  11.517 -0.2471  1.3386 -1.3624
16163TIP3    H269981   2.679   0.554  11.602 -0.2899  0.3232  0.1024
16164TIP3   OH269982   3.850   3.416  12.074  0.2730  0.1770  0.0701
16164TIP3    H169983   3.873   3.335  12.119  1.7657 -0.8090 -2.2821
16164TIP3    H269984   3.795   3.388  12.001  1.4345  1.1373 -1.2358
16165TIP3   OH269985   5.179   0.356  12.816  0.1745  0.4585  0.0717
16165TIP3    H169986   5.141   0.428  12.868 -0.6849  0.7016 -0.8672
16165TIP3    H269987   5.136   0.278  12.849  0.9076  0.3891  0.9047
16166TIP3   OH269988   0.346   6.558   1.331  0.6122  0.0138 -0.7759
16166TIP3    H169989   0.307   6.550   1.244  1.7287  1.6158 -1.4634
16166TIP3    H269990   0.439   6.571   1.315  0.9416 -0.3191  0.7050
16167TIP3   OH269991   3.766   2.993   4.558  0.1664 -0.3497  0.1013
16167TIP3    H169992   3.787   2.936   4.484 -0.3949  0.4657 -0.7072
16167TIP3    H269993   3.847   3.039   4.577 -0.1419  0.8109 -1.2496
16168TIP3   OH269994   6.084   2.946   2.398  0.0206 -0.4143  0.6225
16168TIP3    H169995   6.016   3.013   2.412  0.4279 -0.1866  1.5547
16168TIP3    H269996   6.041   2.880   2.343 -0.1004  1.0640 -1.1781
16169TIP3   OH269997   0.130   4.766   6.807 -0.0866  0.4837 -0.3404
16169TIP3    H169998   0.074   4.703   6.854  0.4612  0.6597  0.5690
16169TIP3    H269999   0.216   4.725   6.805 -0.1090  0.4566 -1.2672
16170TIP3   OH270000   0.796   5.813  15.853  0.1715 -0.4610  0.1158
16170TIP3    H170001   0.751   5.825  15.937  1.4644 -3.0904  1.3074
16170TIP3    H270002   0.779   5.722  15.830  1.3974 -0.3060 -1.5647
16171TIP3   OH270003   0.861   5.733   5.607  0.4016  0.0520 -0.7142
16171TIP3    H170004   0.846   5.758   5.699 -0.2815  1.5545 -1.1852
16171TIP3    H270005   0.835   5.641   5.603  3.0081 -0.8776  1.1496
16172TIP3   OH270006   3.518   2.863   5.712  0.1016  0.2598  0.4307
16172TIP3    H170007   3.505   2.769   5.727  0.4318  0.4721  2.2675
16172TIP3    H270008   3.604   2.882   5.750 -0.2378  1.4245  0.6715
16173TIP3   OH270009   3.179   4.247   5.333  0.3137  0.1206 -0.3704
16173TIP3    H170010   3.092   4.267   5.370  0.1279 -0.5997 -0.4037
16173TIP3    H270011   3.162   4.227   5.241  0.5425  0.1259 -0.4146
16174TIP3   OH270012   4.925   6.198  16.748 -0.4280 -0.7759 -0.2935
16174TIP3    H170013   5.012   6.236  16.732 -0.7075  0.5558  1.1225
16174TIP3    H270014   4.864   6.269  16.733 -1.0707 -0.9893  1.0941
16175TIP3   OH270015   1.282   0.471   2.621  0.6313  0.1769  0.3733
16175TIP3    H170016   1.349   0.492   2.556  0.4724  0.8180  0.4036
16175TIP3    H270017   1.328   0.426   2.691  0.9887  0.4042  0.2843
16176TIP3   OH270018   3.993   2.653   1.795  0.0670 -0.0693  0.3284
16176TIP3    H170019   4.082   2.686   1.806  0.5901 -1.3595  0.2305
16176TIP3    H270020   4.005   2.563   1.765 -1.2867 -0.0400 -0.3763
16177TIP3   OH270021   4.439   0.791  12.411  0.0985  0.1371 -0.3961
16177TIP3    H170022   4.485   0.832  12.485  2.1116 -1.7430 -0.5124
16177TIP3    H270023   4.492   0.815  12.334 -0.6788  0.1730 -0.9321
16178TIP3   OH270024   3.271   0.416  12.864  0.0322  0.3527 -0.1040
16178TIP3    H170025   3.341   0.396  12.801 -0.5005 -1.5411 -0.1652
16178TIP3    H270026   3.282   0.352  12.934 -1.2898  0.3757  0.1577
16179TIP3   OH270027   4.270   1.051  10.430  0.8216 -0.7160  0.3093
16179TIP3    H170028   4.345   1.014  10.382  0.3971 -0.6395 -0.4207
16179TIP3    H270029   4.193   1.018  10.383  0.3961 -0.6194  0.9304
16180TIP3   OH270030   0.582   3.887   2.586  0.2794 -0.1621 -0.5293
16180TIP3    H170031   0.560   3.794   2.593  1.5341 -0.3561  1.6906
16180TIP3    H270032   0.499   3.933   2.599  0.2048 -0.9475  2.4038
16181TIP3   OH270033   4.817   2.258  17.026 -0.4375 -0.6693  0.2444
16181TIP3    H170034   4.745   2.206  16.990 -0.3548 -1.6314  1.4004
16181TIP3    H270035   4.885   2.194  17.045  0.1855  0.0541  0.4580
16182TIP3   OH270036   6.486   2.065  13.283 -0.1001  0.1573 -0.2045
16182TIP3    H170037   6.486   2.123  13.359 -1.1269 -0.9169  0.6638
16182TIP3    H270038   6.442   2.116  13.215 -0.9231  0.4452  0.5188
16183TIP3   OH270039   6.585   0.316   3.029  0.2358  0.4200  0.0913
16183TIP3    H170040   6.622   0.228   3.039  2.9639  1.5458  0.9008
16183TIP3    H270041   6.515   0.319   3.094  0.8594 -0.7997  0.8772
16184TIP3   OH270042   1.252   1.123   3.757 -0.0149 -0.4680 -0.1607
16184TIP3    H170043   1.336   1.080   3.771  0.7074  1.1058  0.5859
16184TIP3    H270044   1.273   1.206   3.715 -0.9092  1.0045  2.0986
16185TIP3   OH270045   4.582   5.820   3.442 -0.3149  0.2454  0.2442
16185TIP3    H170046   4.575   5.907   3.402  0.6027  1.2584  2.1354
16185TIP3    H270047   4.556   5.760   3.372  1.8128  1.8113 -2.1006
16186TIP3   OH270048   4.546   2.352  15.098 -0.7391 -0.2805 -0.4349
16186TIP3    H170049   4.484   2.288  15.133  2.1219 -1.8655  2.2908
16186TIP3    H270050   4.579   2.398  15.176  0.6292  1.3177 -1.8670
16187TIP3   OH270051   5.670   4.816  13.232 -0.0161  0.1290  0.3046
16187TIP3    H170052   5.603   4.880  13.258 -0.6022  0.0102 -0.8146
16187TIP3    H270053   5.633   4.775  13.154  1.8562  0.8677 -1.0349
16188TIP3   OH270054   5.611   3.893  11.821  0.3517  0.0705 -0.1941
16188TIP3    H170055   5.669   3.967  11.836 -0.4002  0.6092  0.0980
16188TIP3    H270056   5.557   3.888  11.900 -0.1215 -0.3058 -0.5360
16189TIP3   OH270057   6.407   5.814  14.781  0.2233  0.1864 -0.1613
16189TIP3    H170058   6.451   5.735  14.751  1.9343  1.2268 -0.5046
16189TIP3    H270059   6.397   5.802  14.876 -0.5915 -0.9064 -0.3687
16190TIP3   OH270060   3.255   5.959  15.075  0.2066 -0.2233  0.1139
16190TIP3    H170061   3.332   6.013  15.060 -0.6028  1.1979  0.8714
16190TIP3    H270062   3.183   6.022  15.084 -0.5722 -1.3071  2.3309
16191TIP3   OH270063   4.651   0.009   2.794 -0.0954 -0.0812  0.1387
16191TIP3    H170064   4.639  -0.014   2.702  1.8856 -0.0328 -0.1881
16191TIP3    H270065   4.663   0.104   2.792  2.3316 -0.3129  0.0640
16192TIP3   OH270066   6.161   2.283  12.573 -0.2687 -0.1357  0.9315
16192TIP3    H170067   6.121   2.287  12.486 -1.3800  2.1583  1.4638
16192TIP3    H270068   6.093   2.244  12.628 -0.5339  0.7289  1.2238
16193TIP3   OH270069   3.178   5.068  13.758 -0.2741 -0.0277 -0.8191
16193TIP3    H170070   3.163   4.973  13.759  0.9597 -0.2426 -0.6586
16193TIP3    H270071   3.272   5.077  13.740 -0.1237  1.1220  0.3595
16194TIP3   OH270072   1.490   0.088   0.598  0.0115 -0.2485 -0.1950
16194TIP3    H170073   1.406   0.065   0.640  0.9367 -1.7272  0.9553
16194TIP3    H270074   1.515   0.009   0.550  1.6527 -0.5256  1.0516
16195TIP3   OH270075   5.928   2.085   2.571 -0.3383  0.3736 -0.4730
16195TIP3    H170076   5.934   2.016   2.505 -1.3921 -0.3524  0.1485
16195TIP3    H270077   5.854   2.139   2.542 -1.7414 -0.7586  0.7695
16196TIP3   OH270078   1.645   4.774  16.487  0.1527  0.2182 -0.3705
16196TIP3    H170079   1.596   4.743  16.563  1.2263 -1.0182 -0.1454
16196TIP3    H270080   1.736   4.775  16.516  0.8564 -2.1656 -2.1510
16197TIP3   OH270081   0.222   0.134  14.809 -0.1857  0.1811  0.2327
16197TIP3    H170082   0.256   0.188  14.737  0.9522 -0.7918  0.0192
16197TIP3    H270083   0.300   0.096  14.850 -0.7756  1.0414  2.2723
16198TIP3   OH270084   2.288   5.077  11.702 -0.1440  0.1434 -0.6388
16198TIP3    H170085   2.321   5.077  11.792 -1.8204  0.8883  0.0198
16198TIP3    H270086   2.268   4.985  11.684 -2.0457  0.2479  0.6748
16199TIP3   OH270087   3.831   6.370   4.892 -0.5049 -0.3149  0.0116
16199TIP3    H170088   3.876   6.305   4.838  0.9723  0.2050  0.5622
16199TIP3    H270089   3.838   6.334   4.981  3.4045  2.0399  0.9075
16200TIP3   OH270090   0.911   1.662   5.863 -0.0925  0.6557 -0.9269
16200TIP3    H170091   0.902   1.608   5.785  1.2392 -2.1802  0.7101
16200TIP3    H270092   0.963   1.609   5.923  0.5070  3.4417  1.2395
16201TIP3   OH270093   3.817   0.200  13.600 -0.1197 -0.2374 -0.3400
16201TIP3    H170094   3.889   0.142  13.577  0.0217 -0.3408  0.3529
16201TIP3    H270095   3.768   0.211  13.519 -0.0682 -1.2101 -0.5089
16202TIP3   OH270096   5.373   4.280  14.959  0.1877  0.2744  0.4190
16202TIP3    H170097   5.353   4.187  14.953  1.4444 -0.0979  1.6458
16202TIP3    H270098   5.445   4.294  14.898  0.2082  0.3904  0.4675
16203TIP3   OH270099   4.837   5.229  12.315  0.1833  0.4743 -0.2823
16203TIP3    H170100   4.895   5.204  12.387  1.3503 -0.8546 -1.6182
16203TIP3    H270101   4.765   5.276  12.357  0.8564 -0.2052  1.7280
16204TIP3   OH270102   1.654   0.941  10.904  0.3945 -0.0762 -0.6186
16204TIP3    H170103   1.628   1.018  10.853  0.2499 -0.3437 -0.9504
16204TIP3    H270104   1.714   0.893  10.846  2.0396  0.7749  0.3105
16205TIP3   OH270105   6.007   2.024  14.974  0.0512 -1.0729 -0.6319
16205TIP3    H170106   6.034   1.964  15.044  0.2223 -0.5703 -0.2622
16205TIP3    H270107   5.988   1.967  14.899 -0.8736 -1.6903  0.0513
16206TIP3   OH270108   6.072   2.114   6.159  0.2086 -0.2861  0.2929
16206TIP3    H170109   6.063   2.069   6.242 -0.0441 -0.9727 -0.0993
16206TIP3    H270110   6.166   2.130   6.150  0.3317 -0.9675  0.3202
16207TIP3   OH270111   2.281   5.726  16.176  1.1623 -0.0072  0.1078
16207TIP3    H170112   2.295   5.760  16.264  0.9579 -4.0792  1.9131
16207TIP3    H270113   2.348   5.658  16.165  1.0235  0.1988 -2.8242
16208TIP3   OH270114   3.269   3.143  12.144  0.3030  0.0746 -0.0269
16208TIP3    H170115   3.255   3.065  12.090 -0.1811  0.3346 -0.2830
16208TIP3    H270116   3.187   3.192  12.136  0.9402  1.0663 -0.6128
16209TIP3   OH270117   4.848   1.488  13.400  0.2938 -0.1942  0.3161
16209TIP3    H170118   4.872   1.401  13.433  0.3640 -0.2302  0.1743
16209TIP3    H270119   4.913   1.505  13.332  0.8856  0.3948  1.0134
16210TIP3   OH270120   3.678   2.599  12.698 -0.0074  0.0357  0.0120
16210TIP3    H170121   3.615   2.529  12.714  0.1315  0.2290  1.5378
16210TIP3    H270122   3.742   2.560  12.638 -0.4157 -0.8631  0.1463
16211TIP3   OH270123   6.791   5.706  13.770 -0.0128  0.2388 -0.0620
16211TIP3    H170124   6.854   5.777  13.753 -1.0388  1.4992  1.1681
16211TIP3    H270125   6.707   5.751  13.781 -0.6888 -1.1703  0.7734
16212TIP3   OH270126   0.241   0.182  12.089 -0.2272 -0.2559 -0.4396
16212TIP3    H170127   0.191   0.114  12.133 -1.8199 -0.9936 -3.1425
16212TIP3    H270128   0.184   0.259  12.092  0.7765  0.4783  0.9729
16213TIP3   OH270129   1.930   4.345   0.780  0.3168  0.2060  0.5339
16213TIP3    H170130   1.978   4.323   0.860  0.8184 -0.7242 -0.0124
16213TIP3    H270131   1.889   4.264   0.753  0.5141  0.4024 -0.3934
16214TIP3   OH270132   5.014   2.470   4.631  0.4352  0.0490  0.0848
16214TIP3    H170133   5.109   2.480   4.638  0.8828 -1.1228 -2.8802
16214TIP3    H270134   4.994   2.387   4.674  1.2558 -1.1320 -1.6889
16215TIP3   OH270135   1.783   6.453   3.367 -0.3609  0.5619  0.2003
16215TIP3    H170136   1.802   6.383   3.429  1.0777  1.3507  0.7043
16215TIP3    H270137   1.719   6.415   3.307  1.9947 -1.9815 -0.9208
16216TIP3   OH270138   0.274   6.244  11.279 -0.1455 -0.0209  0.4298
16216TIP3    H170139   0.211   6.196  11.226  1.4578 -1.4741 -0.2444
16216TIP3    H270140   0.349   6.259  11.221  1.4698 -1.2443  2.0869
16217TIP3   OH270141   4.264   2.423  11.092 -0.1302 -0.4307  0.0646
16217TIP3    H170142   4.344   2.456  11.132 -0.7357  0.0692  0.9022
16217TIP3    H270143   4.277   2.436  10.998  0.0214  1.3742  0.3026
16218TIP3   OH270144   1.759   5.950   5.441  0.1412 -0.3150 -0.2595
16218TIP3    H170145   1.779   5.927   5.350  0.5428 -0.0701 -0.2364
16218TIP3    H270146   1.836   6.000   5.470  0.2913 -0.9242  0.4151
16219TIP3   OH270147   6.378   5.121  16.010  0.0209  0.4536 -0.2165
16219TIP3    H170148   6.323   5.046  16.032  1.3736 -0.0624  1.6329
16219TIP3    H270149   6.324   5.197  16.033 -0.4200 -0.0002  0.2770
16220TIP3   OH270150   5.885   5.409   0.495 -0.1168  0.0593 -0.2714
16220TIP3    H170151   5.970   5.403   0.537  0.0716 -0.8628 -0.7559
16220TIP3    H270152   5.872   5.502   0.478  0.4571  0.2786  0.4818
16221TIP3   OH270153   4.101   4.672  13.752  0.6510  0.3560  0.2205
16221TIP3    H170154   4.022   4.657  13.699  0.5907  0.3933  0.2989
16221TIP3    H270155   4.092   4.611  13.825 -0.5340  2.0516  1.5713
16222TIP3   OH270156   2.751   3.104   0.788  0.4878 -0.3855 -0.6585
16222TIP3    H170157   2.777   3.072   0.874 -1.1097  0.7561  0.3057
16222TIP3    H270158   2.816   3.172   0.767  1.6419 -1.5435 -0.9960
16223TIP3   OH270159   1.171   4.999  16.480  0.3243 -0.0842  0.0290
16223TIP3    H170160   1.247   4.950  16.511 -0.0622 -0.7355 -0.0489
16223TIP3    H270161   1.201   5.039  16.398  0.4432 -0.7120 -0.2402
16224TIP3   OH270162   1.143   1.835  11.199 -0.4988 -0.1905  0.2510
16224TIP3    H170163   1.142   1.931  11.200 -0.6011 -0.1869  0.0421
16224TIP3    H270164   1.223   1.811  11.244  1.3064  0.0762 -2.5350
16225TIP3   OH270165   5.103   5.686  14.248  0.2814 -0.1824  0.0656
16225TIP3    H170166   5.036   5.631  14.208 -0.8372  0.3815  1.1153
16225TIP3    H270167   5.067   5.774  14.245  1.6704  0.3950 -0.7812
16226TIP3   OH270168   0.195   0.921   2.811  0.2745  0.0437  0.7788
16226TIP3    H170169   0.227   0.981   2.879 -0.8506 -0.0781  1.4322
16226TIP3    H270170   0.115   0.883   2.848  0.1293 -0.6973 -0.2614
16227TIP3   OH270171   2.519   5.170   0.500  0.1140  0.6671  0.7180
16227TIP3    H170172   2.605   5.140   0.470 -0.7207 -0.2414 -0.9089
16227TIP3    H270173   2.457   5.115   0.452 -1.4171  2.5157  0.4915
16228TIP3   OH270174   0.188   6.454   4.055  0.1784 -0.0224  0.3175
16228TIP3    H170175   0.135   6.526   4.021  1.7711  0.1644 -2.0469
16228TIP3    H270176   0.185   6.387   3.986  3.1017  0.1081 -0.0648
16229TIP3   OH270177   4.470   1.857   5.261  0.1877 -0.5970  0.2103
16229TIP3    H170178   4.457   1.918   5.189 -1.5907 -1.3079 -0.1336
16229TIP3    H270179   4.455   1.770   5.223 -1.6906 -0.9362  1.5312
16230TIP3   OH270180   0.269   5.148   1.364  0.1147  0.6167 -0.0975
16230TIP3    H170181   0.328   5.082   1.399  1.6323  1.6208 -0.6426
16230TIP3    H270182   0.327   5.221   1.338 -1.4153  1.8746 -0.1427
16231TIP3   OH270183   1.952   3.711   1.761 -0.1500  0.9383  0.2341
16231TIP3    H170184   1.878   3.713   1.821  1.2653  2.7477  2.0443
16231TIP3    H270185   1.931   3.778   1.695 -0.2861  1.1882  0.5299
16232TIP3   OH270186   4.713   0.240  11.971  0.2684  0.1486  0.3004
16232TIP3    H170187   4.803   0.217  11.994  0.4491 -0.5640 -1.0471
16232TIP3    H270188   4.670   0.253  12.056  1.0152 -1.8760  1.0494
16233TIP3   OH270189   3.636   5.479   5.909 -0.0481  0.3853  0.6086
16233TIP3    H170190   3.548   5.443   5.919 -0.1066  0.6294  0.9992
16233TIP3    H270191   3.631   5.565   5.950  0.4015  0.3576  0.7211
16234TIP3   OH270192   0.313   5.628   2.504  0.3135 -0.0303 -0.0347
16234TIP3    H170193   0.258   5.582   2.440 -0.5994 -1.5369  1.7587
16234TIP3    H270194   0.268   5.711   2.519  0.7294  0.5147 -1.5539
16235TIP3   OH270195   3.156   3.565   4.748  1.2882 -0.7182 -0.3325
16235TIP3    H170196   3.187   3.649   4.715 -1.6401  0.0407 -1.4059
16235TIP3    H270197   3.181   3.502   4.681  0.2749 -0.0670 -1.3553
16236TIP3   OH270198   6.383   5.198   1.874  0.2878 -0.0185  0.0360
16236TIP3    H170199   6.353   5.258   1.805 -1.2461 -0.6453  0.1082
16236TIP3    H270200   6.464   5.160   1.840 -0.3365 -0.1670 -1.3469
16237TIP3   OH270201   0.043   2.208   1.673  0.1867  0.6898  0.2861
16237TIP3    H170202   0.065   2.280   1.731  1.7109  0.2248  0.3286
16237TIP3    H270203   0.114   2.145   1.685 -1.6701 -1.3693  1.1128
16238TIP3   OH270204   2.024   6.747  14.395  0.1889 -0.1614  0.1376
16238TIP3    H170205   2.003   6.839  14.384  1.1205 -0.1101 -1.3546
16238TIP3    H270206   1.977   6.722  14.475 -0.6875  1.3937  0.1509
16239TIP3   OH270207   0.646   6.494   5.261  0.7159 -0.2589 -0.5922
16239TIP3    H170208   0.589   6.451   5.197  1.9466 -0.8618 -1.3284
16239TIP3    H270209   0.734   6.469   5.234  1.2502 -1.6702  2.1183
16240TIP3   OH270210   4.060   5.509   6.131  0.3792 -0.2819  0.5092
16240TIP3    H170211   4.078   5.421   6.164  1.2805  0.3748  1.8873
16240TIP3    H270212   4.102   5.567   6.194 -0.1355  1.1463 -0.4065
16241TIP3   OH270213   5.829   3.541  16.761 -0.0889  0.3070 -0.2258
16241TIP3    H170214   5.904   3.586  16.801  0.8059 -1.5648  0.3443
16241TIP3    H270215   5.811   3.468  16.821  0.4744 -1.8791 -2.5635
16242TIP3   OH270216   0.238   0.355   3.090  0.2405  0.3400 -0.0023
16242TIP3    H170217   0.147   0.383   3.096  0.3184  0.6826 -0.3300
16242TIP3    H270218   0.276   0.378   3.174  0.3759  1.5187 -0.3665
16243TIP3   OH270219   4.097   4.609  14.598  0.6168  0.0805 -0.4280
16243TIP3    H170220   4.134   4.666  14.665 -1.7333  2.0288 -0.6582
16243TIP3    H270221   4.142   4.634  14.518 -1.3426  2.8062 -0.8075
16244TIP3   OH270222   0.391   3.995   4.246 -0.0105  0.1504  0.2214
16244TIP3    H170223   0.386   4.090   4.232  1.5825  0.0169 -1.6525
16244TIP3    H270224   0.361   3.958   4.163 -0.3162 -1.0074  0.8369
16245TIP3   OH270225   1.467   1.033   0.550 -0.2447  0.2702 -0.3391
16245TIP3    H170226   1.532   0.994   0.608 -0.1653 -0.8874 -1.1787
16245TIP3    H270227   1.501   1.121   0.531  0.7587 -0.1071 -0.3000
16246TIP3   OH270228   2.210   4.509  11.746 -0.2826 -0.6309  0.3010
16246TIP3    H170229   2.236   4.422  11.776  1.5140 -0.4062 -0.4419
16246TIP3    H270230   2.129   4.527  11.793 -1.2246 -3.0697 -0.2070
16247TIP3   OH270231   5.443   4.302  11.268 -0.0605 -0.0081 -0.3066
16247TIP3    H170232   5.438   4.370  11.201 -1.1933 -1.2164 -1.4904
16247TIP3    H270233   5.536   4.300  11.293  0.0845  1.5714 -0.6337
16248TIP3   OH270234   5.420   1.814   3.930 -0.2490  0.0292  0.0172
16248TIP3    H170235   5.502   1.826   3.978  0.8554  0.0465 -1.7821
16248TIP3    H270236   5.396   1.723   3.947 -0.7402  0.4624  1.8314
16249TIP3   OH270237   5.958   1.408  12.378 -0.0487 -0.4224 -0.3695
16249TIP3    H170238   5.917   1.357  12.309  1.0718 -0.4979 -0.9886
16249TIP3    H270239   6.039   1.442  12.339 -0.3560  1.1494  0.2748
16250TIP3   OH270240   0.220   2.052  15.308  0.4184  0.3586  0.2474
16250TIP3    H170241   0.226   1.962  15.338  0.9754  0.3934  0.2394
16250TIP3    H270242   0.152   2.050  15.240 -1.3123  0.3891  1.8821
16251TIP3   OH270243   1.507   2.521  15.325 -0.0693 -0.9493  0.5138
16251TIP3    H170244   1.538   2.593  15.380 -0.6900 -0.9215  0.8341
16251TIP3    H270245   1.474   2.564  15.246  0.8521 -0.9915  0.0930
16252TIP3   OH270246   4.742   0.383   1.395  0.9782  0.0047  0.7585
16252TIP3    H170247   4.709   0.297   1.367 -0.8598  0.8941  0.0792
16252TIP3    H270248   4.740   0.379   1.491 -0.5229 -0.2198  0.7391
16253TIP3   OH270249   3.334   3.411   0.086  0.1116  0.0570 -0.2104
16253TIP3    H170250   3.347   3.321   0.115 -1.4178  0.9427  3.9521
16253TIP3    H270251   3.423   3.447   0.076  0.7862 -1.0196  1.5082
16254TIP3   OH270252   0.377   1.725  14.104  0.8525  0.4355 -0.3875
16254TIP3    H170253   0.321   1.649  14.093  0.2179  0.8251  0.0615
16254TIP3    H270254   0.447   1.696  14.162  0.2781  0.3639  0.2716
16255TIP3   OH270255   0.839   5.625   0.191  0.1105 -0.1680 -0.0966
16255TIP3    H170256   0.875   5.581   0.114  3.0534  0.5099  0.7803
16255TIP3    H270257   0.834   5.556   0.258 -0.2619 -0.2623 -0.2188
16256TIP3   OH270258   5.876   4.201  17.188 -0.2224 -0.3745 -0.4171
16256TIP3    H170259   5.934   4.155  17.128  0.7112 -0.6692  0.6768
16256TIP3    H270260   5.915   4.188  17.274 -2.1016 -0.8953  0.4167
16257TIP3   OH270261   3.423   6.621  12.024  0.5806 -0.2241  0.0805
16257TIP3    H170262   3.449   6.531  12.042 -0.3340 -0.6159 -0.4849
16257TIP3    H270263   3.329   6.616  12.004  0.0312  1.1027  1.9834
16258TIP3   OH270264   5.950   4.684   4.748 -0.0261 -0.1625  0.2835
16258TIP3    H170265   6.018   4.720   4.692 -0.4330  0.1871  0.0111
16258TIP3    H270266   5.964   4.726   4.833 -0.7648  0.9988 -0.1413
16259TIP3   OH270267   6.188   0.140   1.653  0.3841 -0.4898  0.1409
16259TIP3    H170268   6.254   0.071   1.655  1.4459  0.3002 -2.5698
16259TIP3    H270269   6.236   0.220   1.677  0.2836 -0.0314 -1.0985
16260TIP3   OH270270   5.757   1.472   1.438 -0.1338 -0.0289 -0.5811
16260TIP3    H170271   5.730   1.392   1.483 -0.2202  0.2908 -0.0543
16260TIP3    H270272   5.711   1.542   1.485 -1.3597  0.2015 -2.0442
16261TIP3   OH270273   5.052   2.958  13.128  0.1342  0.0422  0.8640
16261TIP3    H170274   4.990   2.986  13.195 -0.1331  1.2507  0.1431
16261TIP3    H270275   5.100   3.038  13.105 -0.9675  0.0618 -1.6179
16262TIP3   OH270276   6.039   0.978   0.135 -0.4716 -0.6256  0.4825
16262TIP3    H170277   6.094   1.053   0.159 -1.0297 -0.0886  0.1374
16262TIP3    H270278   5.952   1.001   0.168 -0.6523 -1.1205  0.3620
16263TIP3   OH270279   4.308   2.746   5.689 -0.0741  0.0473 -0.3154
16263TIP3    H170280   4.259   2.750   5.772  1.5562  0.4105  0.6756
16263TIP3    H270281   4.339   2.656   5.684 -1.4572 -0.4028 -1.3465
16264TIP3   OH270282   3.556   2.143  16.083  0.0930  0.5171 -0.0998
16264TIP3    H170283   3.567   2.155  16.178 -1.2275  0.3464  0.0940
16264TIP3    H270284   3.601   2.061  16.064  4.1534  2.6051 -0.4284
16265TIP3   OH270285   5.599   0.591   5.864 -0.1642 -1.1791 -0.6720
16265TIP3    H170286   5.530   0.529   5.886  0.9300 -1.5707  1.9317
16265TIP3    H270287   5.582   0.668   5.919  1.0085 -0.9721 -0.5596
16266TIP3   OH270288   2.018   1.197  13.570  0.1099  0.7889  0.2140
16266TIP3    H170289   2.026   1.260  13.498  1.4471  0.2060 -0.1899
16266TIP3    H270290   1.942   1.227  13.620 -0.6632  1.4083 -1.2447
16267TIP3   OH270291   5.073   1.532   0.745  0.0095  0.5801  0.7031
16267TIP3    H170292   5.119   1.448   0.745  0.9061  1.0492  0.8610
16267TIP3    H270293   4.987   1.513   0.709 -0.2544 -0.6520  1.8872
16268TIP3   OH270294   3.819   1.409   4.733 -0.6322 -0.3665  0.2199
16268TIP3    H170295   3.764   1.487   4.735  0.2832  0.3353 -0.8668
16268TIP3    H270296   3.785   1.354   4.804 -2.0081  0.5176  0.2898
16269TIP3   OH270297   4.484   6.322   2.138  0.4516  0.3315 -0.1284
16269TIP3    H170298   4.445   6.237   2.157  0.2558  0.6369  0.8972
16269TIP3    H270299   4.468   6.335   2.045  1.5865 -1.2949 -0.5814
16270TIP3   OH270300   1.944   2.051  10.927 -0.0932 -0.3923  0.1588
16270TIP3    H170301   1.959   2.001  10.847 -1.5041 -0.2146 -0.2371
16270TIP3    H270302   2.029   2.090  10.948  0.2322 -0.2216 -1.4081
16271TIP3   OH270303   4.440   6.667   3.982  0.0326 -0.2791 -0.5289
16271TIP3    H170304   4.440   6.702   3.893 -0.7238  0.8013 -0.1373
16271TIP3    H270305   4.355   6.623   3.990  0.4885 -1.1964 -0.6311
16272TIP3   OH270306   4.634   4.951  14.413 -0.2728 -0.2413 -0.1288
16272TIP3    H170307   4.712   4.897  14.399 -0.6730 -0.6013 -1.0703
16272TIP3    H270308   4.591   4.911  14.489  1.2085  0.8712  1.3478
16273TIP3   OH270309   1.079   3.309  11.418  0.2126 -0.0826  0.2186
16273TIP3    H170310   1.162   3.351  11.395 -0.2823  1.2517  0.7664
16273TIP3    H270311   1.104   3.219  11.443  1.4883  0.2909  0.3687
16274TIP3   OH270312   0.756   6.423  14.270  0.0107  0.4871  0.6087
16274TIP3    H170313   0.795   6.482  14.206  0.1791  0.4202  0.6502
16274TIP3    H270314   0.755   6.337  14.227 -2.1404  0.8836 -0.2731
16275TIP3   OH270315   4.209   1.706  11.382 -0.0019 -0.3121  0.8107
16275TIP3    H170316   4.125   1.716  11.428 -0.1963  0.4949  0.3145
16275TIP3    H270317   4.246   1.795  11.381  0.9163 -0.6843  1.1236
16276TIP3   OH270318   6.436   3.979  13.536  0.4171 -0.0456  0.2520
16276TIP3    H170319   6.479   4.034  13.470 -0.7117  0.7975  0.1805
16276TIP3    H270320   6.508   3.947  13.591  1.2979 -0.1279 -0.9056
16277TIP3   OH270321   0.738   2.539  11.497  0.1316 -0.2493  0.7564
16277TIP3    H170322   0.715   2.475  11.564  0.9503  0.4394  1.7271
16277TIP3    H270323   0.697   2.620  11.525  0.7287  0.1223  0.5914
16278TIP3   OH270324   0.440   3.203  16.331  0.2796 -0.3688 -0.3531
16278TIP3    H170325   0.405   3.290  16.348  2.8451  0.5670  0.7394
16278TIP3    H270326   0.470   3.206  16.240  2.7604  0.9230  0.4077
16279TIP3   OH270327   0.981   0.312  14.589 -0.5636  0.2483 -0.4046
16279TIP3    H170328   0.957   0.350  14.674  0.7245 -0.3568  0.2688
16279TIP3    H270329   1.053   0.366  14.558  1.1512 -1.4087  0.4686
16280TIP3   OH270330   1.649   5.873  13.720  0.2324  0.1903 -0.2895
16280TIP3    H170331   1.713   5.930  13.761  1.6860 -0.8065 -1.0817
16280TIP3    H270332   1.567   5.923  13.723  0.7865  1.0861  1.6528
16281TIP3   OH270333   4.972   6.038  16.989  0.0989 -0.1919  0.3330
16281TIP3    H170334   5.043   6.074  17.042 -0.3147  0.4779  0.4313
16281TIP3    H270335   4.975   6.089  16.908 -3.2207  3.2067  2.0544
16282TIP3   OH270336   5.744   3.934   6.697 -0.4243 -0.4664  0.2951
16282TIP3    H170337   5.785   3.849   6.687 -0.1170 -0.1937 -1.0258
16282TIP3    H270338   5.816   3.997   6.691 -0.9853  0.0669 -3.0532
16283TIP3   OH270339   4.479   3.038   2.357  0.4995  0.4267 -0.0932
16283TIP3    H170340   4.556   2.981   2.350  0.2147 -0.0456  0.5525
16283TIP3    H270341   4.474   3.061   2.449 -0.1931  0.3695 -0.1092
16284TIP3   OH270342   5.093   4.087  11.131  0.2468 -0.1973 -0.1689
16284TIP3    H170343   5.037   4.010  11.134  1.0586 -0.7844  2.5052
16284TIP3    H270344   5.034   4.161  11.139 -0.3326 -0.6924  0.1618
16285TIP3   OH270345   0.301   3.222   2.646  0.8948 -0.7719 -0.0794
16285TIP3    H170346   0.364   3.267   2.589 -3.4071  1.3654 -3.7772
16285TIP3    H270347   0.253   3.164   2.587 -3.6463  1.2620  1.1897
16286TIP3   OH270348   1.554   1.965  16.704 -0.0611 -0.1268 -0.1113
16286TIP3    H170349   1.570   1.875  16.732 -0.6251 -0.3344 -0.4397
16286TIP3    H270350   1.571   2.017  16.783  0.9140 -0.4468 -0.0928
16287TIP3   OH270351   6.543   3.600   3.583  0.7561 -0.6572  0.3528
16287TIP3    H170352   6.507   3.548   3.655 -4.5530 -1.3355 -2.3668
16287TIP3    H270353   6.557   3.687   3.621  0.2915 -1.5191  2.6560
16288TIP3   OH270354   2.117   1.317   0.139  0.9873 -0.0445 -0.5374
16288TIP3    H170355   2.179   1.255   0.099  1.3988 -0.5980  0.9052
16288TIP3    H270356   2.048   1.262   0.175  1.8179  0.2162  1.5741
16289TIP3   OH270357   2.989   1.058   3.826  0.2973  0.0169 -0.2459
16289TIP3    H170358   3.077   1.089   3.804 -0.2113  0.5532 -1.7024
16289TIP3    H270359   2.943   1.136   3.856 -0.2260  0.1848 -1.4003
16290TIP3   OH270360   2.809   6.215  13.397  0.5535  0.1928  0.1960
16290TIP3    H170361   2.821   6.281  13.328  0.2243  0.3129  0.2497
16290TIP3    H270362   2.853   6.251  13.473 -1.5488  1.4589  0.9165
16291TIP3   OH270363   4.795   2.038  14.079  0.0904  0.2588  0.1514
16291TIP3    H170364   4.726   1.982  14.115 -0.1188 -0.3087 -1.0975
16291TIP3    H270365   4.749   2.108  14.034  0.2612 -0.8766 -1.8878
16292TIP3   OH270366   4.086   1.432  17.014  0.0616 -0.0064  0.4444
16292TIP3    H170367   4.050   1.384  17.089 -1.1172  2.2532  1.4187
16292TIP3    H270368   4.164   1.382  16.989 -0.4664 -1.7737  2.0617
16293TIP3   OH270369   2.435   6.094  11.104  0.0020  0.5721 -0.2544
16293TIP3    H170370   2.344   6.096  11.077 -0.1132  1.8668  0.1888
16293TIP3    H270371   2.440   6.150  11.181  0.8600 -0.8370  0.7691
16294TIP3   OH270372   2.887   3.338   5.777 -0.4489 -0.2305 -0.1444
16294TIP3    H170373   2.843   3.255   5.758  1.9581 -1.8425  0.7789
16294TIP3    H270374   2.898   3.379   5.691  0.8230 -2.2958 -1.0681
16295TIP3   OH270375   5.642   0.104  14.222  0.0542 -0.6207  0.2072
16295TIP3    H170376   5.627   0.199  14.223 -1.7013 -0.8770  0.2821
16295TIP3    H270377   5.555   0.066  14.210 -0.2458 -2.4015  5.3875
16296TIP3   OH270378   6.195   1.861  15.558 -0.3811  0.1416 -0.3690
16296TIP3    H170379   6.126   1.907  15.511  0.7903  1.1056 -1.2269
16296TIP3    H270380   6.149   1.807  15.623 -1.8901  1.0724 -0.6214
16297TIP3   OH270381   3.643   1.251   1.274 -0.2474 -0.3550  0.4021
16297TIP3    H170382   3.677   1.237   1.363 -1.3504 -2.2199  0.5753
16297TIP3    H270383   3.686   1.183   1.222  1.4228  1.5457 -0.8377
16298TIP3   OH270384   4.450   5.040   2.471  0.0005  0.3020 -0.5498
16298TIP3    H170385   4.486   4.990   2.399 -1.6209 -0.1031 -1.1297
16298TIP3    H270386   4.429   5.126   2.433  3.0459  1.6672  0.5025
16299TIP3   OH270387   6.121   0.024  12.069 -0.5175  0.2334 -0.0891
16299TIP3    H170388   6.072  -0.044  12.114 -0.1903 -0.9572 -1.4599
16299TIP3    H270389   6.132   0.093  12.135 -0.5265 -1.1812  1.4781
16300TIP3   OH270390   2.940   4.547   1.446  0.6933  0.5302 -0.5208
16300TIP3    H170391   2.862   4.500   1.477  0.6276  1.0427  0.1229
16300TIP3    H270392   3.004   4.536   1.517  0.9130  0.8169 -0.6742
16301TIP3   OH270393   2.990   4.605   1.179 -0.6101 -0.4927  0.3715
16301TIP3    H170394   3.045   4.528   1.164  0.3822  0.4438 -0.9986
16301TIP3    H270395   2.978   4.608   1.274  2.7986 -0.0310  0.8918
16302TIP3   OH270396   2.922   5.067   0.619  0.0381 -0.0277 -0.2115
16302TIP3    H170397   2.878   5.084   0.536  1.3096 -1.3348 -1.1991
16302TIP3    H270398   3.015   5.064   0.598  0.6511  2.2269  1.7494
16303TIP3   OH270399   3.763   4.651  15.362 -0.0415  0.9497  0.3256
16303TIP3    H170400   3.681   4.639  15.315 -0.0006 -0.1036  0.4925
16303TIP3    H270401   3.756   4.738  15.402 -1.1138  0.8390  0.4055
16304TIP3   OH270402   6.102   2.665  11.378  0.0284 -0.0929  0.2013
16304TIP3    H170403   6.097   2.724  11.454 -2.1901  0.6643 -0.4658
16304TIP3    H270404   6.145   2.717  11.310  0.7743 -0.3095  0.4889
16305TIP3   OH270405   1.835   4.534   4.846 -0.3258 -0.4926  0.2333
16305TIP3    H170406   1.785   4.452   4.848 -1.0202 -0.2238 -2.4331
16305TIP3    H270407   1.886   4.530   4.765  1.9024  0.4798  1.5000
16306TIP3   OH270408   4.487   6.488   4.366  0.0633  0.0321 -0.1972
16306TIP3    H170409   4.463   6.398   4.343 -0.2614 -0.2717  1.2265
16306TIP3    H270410   4.413   6.540   4.337 -0.9816 -0.5188  1.3187
16307TIP3   OH270411   2.494   2.606  15.425  0.2291  0.0052  0.0287
16307TIP3    H170412   2.416   2.631  15.475  0.5150  1.4904 -0.2262
16307TIP3    H270413   2.459   2.560  15.349 -0.3638  0.1638  0.1963
16308TIP3   OH270414   0.390   3.555   5.687  0.2783  0.3962  0.5452
16308TIP3    H170415   0.360   3.490   5.623 -0.2608  0.6072  0.5725
16308TIP3    H270416   0.437   3.504   5.753 -0.7702 -0.0817  0.9556
16309TIP3   OH270417   0.051   6.177  12.214  0.0649 -0.2175 -0.6245
16309TIP3    H170418   0.027   6.132  12.133 -1.1122  1.2646 -1.1461
16309TIP3    H270419   0.119   6.239  12.187  0.0262 -0.0636 -0.3682
16310TIP3   OH270420   6.309   3.155   0.559 -0.3016 -0.0717  0.3323
16310TIP3    H170421   6.316   3.200   0.475 -1.7352 -0.0179  0.2160
16310TIP3    H270422   6.391   3.108   0.568  0.1350  0.4406 -0.7958
16311TIP3   OH270423   4.701   0.887   2.313 -0.0900  0.0859  0.5203
16311TIP3    H170424   4.663   0.888   2.401 -1.4381  1.3439 -0.0361
16311TIP3    H270425   4.673   0.970   2.274 -0.4851 -0.9437 -1.5037
16312TIP3   OH270426   0.572   4.456  11.532  0.0378  0.3105 -0.7928
16312TIP3    H170427   0.560   4.549  11.547 -1.3058  0.0535 -0.0498
16312TIP3    H270428   0.559   4.444  11.438  1.2000  0.9916 -1.0470
16313TIP3   OH270429   1.417   5.083  16.009  0.0163  0.2298 -0.2652
16313TIP3    H170430   1.462   5.013  15.961 -2.4284  0.3204 -2.9708
16313TIP3    H270431   1.469   5.161  15.993 -0.2033  0.0439 -2.0301
16314TIP3   OH270432   6.465   0.972  16.580  0.1276 -0.6320 -0.4776
16314TIP3    H170433   6.469   0.884  16.617  1.7603  0.1116  1.3356
16314TIP3    H270434   6.394   1.015  16.628  0.0571 -0.6314 -0.5805
16315TIP3   OH270435   4.287   0.866   1.879 -0.1065  0.3336 -0.3060
16315TIP3    H170436   4.227   0.873   1.953  0.1262  0.8329 -0.1665
16315TIP3    H270437   4.243   0.912   1.808  0.0526  0.5860 -0.2409
16316TIP3   OH270438   5.010   2.497  13.618  0.1206  0.1270  0.3344
16316TIP3    H170439   5.003   2.554  13.695 -0.4935  0.2584  0.1847
16316TIP3    H270440   5.049   2.416  13.651  1.6426  0.8631  0.4355
16317TIP3   OH270441   5.784   3.753   3.095  0.2376  0.0408 -0.1090
16317TIP3    H170442   5.842   3.829   3.090 -0.4894  0.5941 -0.3432
16317TIP3    H270443   5.812   3.697   3.022 -0.3405  0.9093 -1.0351
16318TIP3   OH270444   4.842   3.375   0.542 -0.0997  0.1399 -0.1402
16318TIP3    H170445   4.773   3.401   0.604  0.4378  1.4686 -0.0724
16318TIP3    H270446   4.848   3.280   0.552 -3.4416 -0.3898 -1.7212
16319TIP3   OH270447   2.791   1.391   3.238  0.4109  0.6178 -0.1083
16319TIP3    H170448   2.726   1.455   3.208  2.7264  3.1810 -0.0103
16319TIP3    H270449   2.819   1.346   3.159 -1.4779 -0.6546 -0.1374
16320TIP3   OH270450   3.363   2.684   4.082  0.1317  0.4456  0.1033
16320TIP3    H170451   3.289   2.654   4.137 -0.4345  0.9534 -0.3693
16320TIP3    H270452   3.368   2.778   4.099  2.6535  0.0123  2.4907
16321TIP3   OH270453   6.816   1.957  10.376 -0.3623 -0.7548 -0.0972
16321TIP3    H170454   6.867   2.037  10.370 -0.9447 -0.4543 -1.5026
16321TIP3    H270455   6.881   1.887  10.373  0.2778 -0.3744  2.6883
16322TIP3   OH270456   0.068   0.610  16.213  0.3217 -0.0627 -0.0816
16322TIP3    H170457   0.036   0.520  16.201  0.1836  0.1334 -1.3084
16322TIP3    H270458   0.159   0.607  16.183 -0.1809  0.5603 -1.7612
16323TIP3   OH270459   5.245   4.504  13.182 -0.0415 -0.2397  0.3441
16323TIP3    H170460   5.250   4.420  13.138  0.2361  0.7832 -1.7269
16323TIP3    H270461   5.154   4.512  13.210 -0.2084 -0.9719  0.0207
16324TIP3   OH270462   5.828   4.028   5.548 -0.0653 -0.4521 -0.0027
16324TIP3    H170463   5.749   3.976   5.532  0.2631 -0.9915  0.1251
16324TIP3    H270464   5.796   4.104   5.598 -0.4764 -0.7696  0.2308
16325TIP3   OH270465   6.265   5.129  14.820 -0.0290  0.1726 -0.4449
16325TIP3    H170466   6.263   5.132  14.725  1.2287  0.0330 -0.4952
16325TIP3    H270467   6.192   5.072  14.844  1.0821 -1.7577 -1.4498
16326TIP3   OH270468   6.721   3.964   4.493  0.2299 -0.0970 -0.6319
16326TIP3    H170469   6.753   3.884   4.533  3.1124  1.5112  0.6268
16326TIP3    H270470   6.668   4.006   4.561 -2.3392 -1.3954 -1.7142
16327TIP3   OH270471   1.280   3.233   3.418 -0.3265 -0.4320 -0.1927
16327TIP3    H170472   1.244   3.175   3.486 -1.4053  0.6022  0.1476
16327TIP3    H270473   1.358   3.271   3.459 -0.6705 -0.2188  0.2784
16328TIP3   OH270474   3.321   2.703  12.718 -0.2545 -0.8325 -0.0420
16328TIP3    H170475   3.229   2.678  12.728 -0.0217 -2.2634 -1.1299
16328TIP3    H270476   3.348   2.727  12.807 -1.9776  0.8805  0.0965
16329TIP3   OH270477   4.485   0.417  16.053  0.1398  0.6947 -0.2011
16329TIP3    H170478   4.534   0.484  16.005  0.0397  1.3294  0.5608
16329TIP3    H270479   4.402   0.410  16.005  0.6242  0.2240 -0.9963
16330TIP3   OH270480   4.163   5.487   2.264  0.2480  0.4629  0.4018
16330TIP3    H170481   4.085   5.538   2.283 -0.0863  0.0014  0.2701
16330TIP3    H270482   4.212   5.541   2.201 -0.1812  0.5463  0.1325
16331TIP3   OH270483   4.536   2.643  15.858 -0.2661  0.5629 -0.2331
16331TIP3    H170484   4.586   2.716  15.824  2.0333 -0.6353  0.3796
16331TIP3    H270485   4.560   2.639  15.951  0.1543 -1.3061 -0.3804
16332TIP3   OH270486   5.935   2.817  12.010 -0.3574  0.3386 -0.4955
16332TIP3    H170487   5.961   2.890  11.953  0.5847 -0.7722 -1.5535
16332TIP3    H270488   6.017   2.770  12.027 -0.8669 -0.1816  0.5957
16333TIP3   OH270489   1.290   0.524   5.657  0.3252 -0.4520 -0.1386
16333TIP3    H170490   1.224   0.540   5.725 -0.4161  0.3232 -1.0134
16333TIP3    H270491   1.332   0.442   5.683 -0.2266 -0.3894  1.0225
16334TIP3   OH270492   1.489   2.995  14.538 -0.1389  0.0234 -0.3567
16334TIP3    H170493   1.496   2.930  14.608 -0.0328  0.0338 -0.3591
16334TIP3    H270494   1.484   3.079  14.584 -0.0579  0.0311 -0.3619
16335TIP3   OH270495   1.743   6.646  16.746  0.1642 -0.2434 -0.0281
16335TIP3    H170496   1.762   6.698  16.824 -0.3222  0.3309 -0.2773
16335TIP3    H270497   1.775   6.558  16.766 -0.9550 -0.3913  1.2480
16336TIP3   OH270498   3.709   2.456  15.726  0.1991  0.5892 -0.0083
16336TIP3    H170499   3.634   2.467  15.784 -0.0390  1.0311 -0.3949
16336TIP3    H270500   3.725   2.362  15.725  1.9721  0.7311  2.9921
16337TIP3   OH270501   2.365   2.287  14.510  0.2534 -0.2150  0.3796
16337TIP3    H170502   2.417   2.232  14.569  0.3675 -1.3789 -0.7567
16337TIP3    H270503   2.276   2.280  14.543  0.7033  1.5231  2.1405
16338TIP3   OH270504   1.538   3.115   2.902 -0.1094  0.2461  0.0799
16338TIP3    H170505   1.591   3.118   2.981 -1.5060 -2.1345  1.2229
16338TIP3    H270506   1.497   3.201   2.898  2.8877  1.7747 -0.2647
16339TIP3   OH270507   3.256   3.822  14.469  0.2441 -0.5465  0.4621
16339TIP3    H170508   3.293   3.884  14.405  0.4092 -0.4431  0.6582
16339TIP3    H270509   3.241   3.742  14.418  0.5138 -0.5126  0.3265
16340TIP3   OH270510   5.824   4.409  13.617 -0.7314  0.0099  0.0352
16340TIP3    H170511   5.899   4.353  13.638  1.1221  2.4042  0.3164
16340TIP3    H270512   5.813   4.399  13.522  0.8375  0.5819 -0.2377
16341TIP3   OH270513   1.066   2.934  12.688 -0.3717 -0.4706 -0.4685
16341TIP3    H170514   0.984   2.903  12.726  0.0330  0.5748  1.3558
16341TIP3    H270515   1.039   2.992  12.617 -1.1450 -2.0075 -1.4876
16342TIP3   OH270516   5.758   6.298  15.772 -0.0543  0.0270 -0.1219
16342TIP3    H170517   5.702   6.241  15.718 -1.4238 -0.0491  1.3098
16342TIP3    H270518   5.756   6.382  15.727 -1.0443 -0.0720 -0.2901
16343TIP3   OH270519   0.273   0.748  12.873 -0.0187 -0.4260 -0.0901
16343TIP3    H170520   0.218   0.765  12.797  0.4647 -1.0673 -0.6014
16343TIP3    H270521   0.213   0.750  12.948 -0.1920  2.1261 -0.2364
16344TIP3   OH270522   5.153   6.459  14.127  0.4856  0.0649 -0.5629
16344TIP3    H170523   5.174   6.498  14.042 -0.2820 -0.0598 -0.8245
16344TIP3    H270524   5.160   6.531  14.189 -0.1052  0.4419 -0.9211
16345TIP3   OH270525   1.240   1.064  16.460 -0.1394  0.6588  0.2074
16345TIP3    H170526   1.145   1.066  16.467 -0.2751 -0.6378 -0.7644
16345TIP3    H270527   1.271   1.135  16.517 -1.6889  1.3321  0.2491
16346TIP3   OH270528   1.926   2.312  12.161  0.4298 -0.0979 -0.1347
16346TIP3    H170529   1.927   2.259  12.081  1.1865 -0.5537  0.1737
16346TIP3    H270530   2.003   2.368  12.153 -0.5270  1.2036 -0.6062
16347TIP3   OH270531   0.475   5.038   4.494 -0.1094 -0.7649 -0.0245
16347TIP3    H170532   0.527   5.024   4.415 -2.3387 -0.5191 -1.6371
16347TIP3    H270533   0.435   4.953   4.511  1.4030 -1.1863  1.7186
16348TIP3   OH270534   3.758   1.042   6.406 -0.2732  0.1190  0.3337
16348TIP3    H170535   3.787   0.974   6.345 -1.3359  0.0653 -0.1315
16348TIP3    H270536   3.725   1.112   6.350  0.3368  0.8185  0.8225
16349TIP3   OH270537   2.340   5.997   4.635 -0.5461  0.3176  0.7551
16349TIP3    H170538   2.373   5.960   4.553 -2.1655  0.2725  0.0948
16349TIP3    H270539   2.385   6.081   4.643  0.1190  0.0313  0.1703
16350TIP3   OH270540   4.041   1.895  13.665 -0.3655  0.0683  0.4618
16350TIP3    H170541   3.981   1.833  13.622 -1.1454  0.8870  0.3475
16350TIP3    H270542   4.030   1.977  13.617  1.8854 -0.1077 -0.4560
16351TIP3   OH270543   0.948   6.774   5.297  0.5388 -0.1166  0.0996
16351TIP3    H170544   0.936   6.810   5.209  1.2176 -1.3999 -0.5615
16351TIP3    H270545   0.958   6.850   5.354 -2.7130  0.8500 -0.4294
16352TIP3   OH270546   0.785   6.213  14.822 -0.1049  0.1618  0.3471
16352TIP3    H170547   0.841   6.143  14.790 -0.8071  0.3101 -1.3486
16352TIP3    H270548   0.698   6.192  14.786  0.0288  2.8444 -1.8864
16353TIP3   OH270549   3.919   6.584  14.706  0.3059  0.2024 -0.0780
16353TIP3    H170550   3.991   6.632  14.747  0.6818  1.5690 -2.2115
16353TIP3    H270551   3.861   6.652  14.671 -1.8350 -0.8629  1.1510
16354TIP3   OH270552   4.637   5.424  11.517 -0.6359 -0.5141  0.8413
16354TIP3    H170553   4.612   5.362  11.449 -0.3953 -1.0270  1.2052
16354TIP3    H270554   4.561   5.430  11.574 -0.2773 -1.3935  1.4556
16355TIP3   OH270555   0.055   4.419   4.954 -0.3353  0.3478 -0.2416
16355TIP3    H170556   0.056   4.436   4.860 -0.8537 -1.5304 -0.6285
16355TIP3    H270557   0.139   4.374   4.971 -1.0321 -0.9956 -0.1928
16356TIP3   OH270558   3.212   2.095  15.848  0.2088 -0.0200 -0.6826
16356TIP3    H170559   3.301   2.129  15.838 -0.1038  0.5852 -1.5501
16356TIP3    H270560   3.219   2.026  15.914  0.9319  1.5380  0.9480
16357TIP3   OH270561   1.852   0.130   6.570 -0.3458  0.0040  0.3922
16357TIP3    H170562   1.945   0.148   6.556 -0.2362  0.8450  1.9363
16357TIP3    H270563   1.842   0.037   6.547  1.0418 -0.3069  0.9251
16358TIP3   OH270564   5.035   4.748   0.805 -0.4072 -0.1790 -0.0778
16358TIP3    H170565   5.044   4.653   0.813 -0.3871 -0.4018 -2.0846
16358TIP3    H270566   5.038   4.781   0.895 -0.3895 -2.0659  0.6541
16359TIP3   OH270567   4.401   0.775   3.908 -0.1182 -0.7512  0.1428
16359TIP3    H170568   4.374   0.684   3.894 -1.5851 -0.5974  1.6316
16359TIP3    H270569   4.356   0.825   3.840  2.0168 -1.2576 -1.7664
16360TIP3   OH270570   3.072   2.575   0.796  0.9624  0.2285  0.1937
16360TIP3    H170571   3.132   2.649   0.790 -0.5312  1.4011 -0.8895
16360TIP3    H270572   3.043   2.576   0.887  0.1329  1.6842 -0.0561
16361TIP3   OH270573   6.370   3.858   5.828 -0.5374 -0.0671  0.6981
16361TIP3    H170574   6.367   3.950   5.803  0.7570 -0.1484  0.1738
16361TIP3    H270575   6.352   3.858   5.922 -0.3444  0.7404  0.7416
16362TIP3   OH270576   6.556   6.071  16.738  0.5173  0.5153  0.3277
16362TIP3    H170577   6.479   6.021  16.764  0.2472  1.5276  1.6115
16362TIP3    H270578   6.575   6.127  16.814  0.1813  3.1174 -1.3526
16363TIP3   OH270579   3.587   6.506  14.484  0.3830 -0.3936  0.1539
16363TIP3    H170580   3.666   6.468  14.522  1.6217  1.1355 -0.7872
16363TIP3    H270581   3.557   6.440  14.421  1.4093 -0.6288 -0.1089
16364TIP3   OH270582   2.828   3.043  15.340 -0.2455 -0.4641  0.5860
16364TIP3    H170583   2.788   3.030  15.253  0.7398  1.1881 -0.1666
16364TIP3    H270584   2.756   3.077  15.394 -0.1988  1.5070 -0.4806
16365TIP3   OH270585   6.321   6.784   4.825 -0.0436 -0.4680  0.1061
16365TIP3    H170586   6.242   6.778   4.771  1.1446  0.7427 -1.9319
16365TIP3    H270587   6.303   6.853   4.888 -0.8312 -0.6500  0.0825
16366TIP3   OH270588   4.125   5.865  13.410 -0.1603  0.0676 -0.2865
16366TIP3    H170589   4.087   5.801  13.350  0.0430  0.4137 -0.7890
16366TIP3    H270590   4.193   5.908  13.359  1.4061 -1.0046  0.7819
16367TIP3   OH270591   1.412   2.081   1.918 -0.0517  0.1807 -0.6694
16367TIP3    H170592   1.413   2.170   1.884  2.2666  0.5462  0.1795
16367TIP3    H270593   1.456   2.029   1.851 -0.3756 -0.1133 -0.6551
16368TIP3   OH270594   2.929   3.408  11.963  0.1247 -0.6583 -0.1034
16368TIP3    H170595   2.841   3.378  11.984  0.0015  0.4377  1.0960
16368TIP3    H270596   2.921   3.448  11.877 -0.1626 -2.0614 -0.7561
16369TIP3   OH270597   0.562   1.652   5.715  0.0744  0.2366 -0.4910
16369TIP3    H170598   0.587   1.736   5.754 -2.1476  1.0392 -0.6765
16369TIP3    H270599   0.472   1.637   5.744 -1.3885  0.3628 -4.3208
16370TIP3   OH270600   1.361   1.175   5.744  0.3038 -0.6211 -0.2455
16370TIP3    H170601   1.382   1.243   5.808 -2.2294 -2.6055  3.0420
16370TIP3    H270602   1.398   1.095   5.781 -1.2181 -1.8602 -1.2665
16371TIP3   OH270603   4.644   5.940   2.739  0.0781  0.1865 -0.1143
16371TIP3    H170604   4.702   5.867   2.717 -1.0137 -0.5017 -0.8125
16371TIP3    H270605   4.556   5.908   2.718 -0.4824  1.4926  0.1403
16372TIP3   OH270606   0.230   2.331  13.390  0.5260  0.1876 -0.0594
16372TIP3    H170607   0.161   2.298  13.332 -1.5479  2.0242  1.1893
16372TIP3    H270608   0.250   2.257  13.447  0.1940 -0.6397 -0.9778
16373TIP3   OH270609   2.800   4.941   6.468  0.1724  0.2721  0.1897
16373TIP3    H170610   2.778   4.883   6.396 -0.3396 -0.9687  1.3043
16373TIP3    H270611   2.817   5.026   6.427  2.3840 -0.9530 -1.6619
16374TIP3   OH270612   0.154   6.548   6.095  0.0456  0.5738 -0.0130
16374TIP3    H170613   0.193   6.631   6.124  0.2901  0.3076  0.4153
16374TIP3    H270614   0.124   6.567   6.006  2.8607  0.2548 -1.1270
16375TIP3   OH270615   3.972   4.078   4.898  0.4194 -0.0595 -0.5245
16375TIP3    H170616   3.933   4.117   4.976  0.6991 -2.4956  0.9111
16375TIP3    H270617   3.908   4.013   4.869  0.1206  1.0792 -2.6601
16376TIP3   OH270618   3.322   1.975  13.823 -0.4694  0.2659 -0.0252
16376TIP3    H170619   3.227   1.964  13.821 -0.3857 -0.6575  0.6574
16376TIP3    H270620   3.345   1.972  13.915  0.3216 -0.5123 -0.2289
16377TIP3   OH270621   2.234   5.221  13.013 -0.6834 -0.7452  0.0403
16377TIP3    H170622   2.170   5.248  12.948  0.7845  1.3274 -0.6339
16377TIP3    H270623   2.305   5.182  12.962 -0.1992 -0.5049  0.5184
16378TIP3   OH270624   0.159   3.567   1.758  0.2185  0.3934 -0.5393
16378TIP3    H170625   0.203   3.652   1.769  0.2674  0.4088 -0.8697
16378TIP3    H270626   0.066   3.588   1.763  0.2254  0.4966 -0.8324
16379TIP3   OH270627   3.732   5.370   1.115 -0.0507  0.0684  0.4799
16379TIP3    H170628   3.706   5.374   1.023 -0.3876  1.6446  0.6228
16379TIP3    H270629   3.651   5.389   1.163 -0.2749 -2.3615  1.2023
16380TIP3   OH270630   1.856   5.804  12.313 -0.0270  0.1162  0.2018
16380TIP3    H170631   1.844   5.722  12.360 -1.2746  0.9921  1.4841
16380TIP3    H270632   1.911   5.781  12.239 -0.9555 -2.0221  0.1086
16381TIP3   OH270633   3.082   5.837  11.217  0.3731 -0.2217 -0.2674
16381TIP3    H170634   3.102   5.775  11.147  1.3590  0.7735 -0.8959
16381TIP3    H270635   3.147   5.906  11.208  0.0050  0.3565  1.1193
16382TIP3   OH270636   4.648   3.345  16.067  0.0016  0.1322 -0.1453
16382TIP3    H170637   4.604   3.304  15.992 -0.8816  0.4667  0.1706
16382TIP3    H270638   4.634   3.283  16.139  0.9982 -0.2709 -0.2873
16383TIP3   OH270639   2.671   5.888   2.950 -0.4312  0.9310  0.4153
16383TIP3    H170640   2.615   5.834   2.895 -0.6232  1.2540  0.2915
16383TIP3    H270641   2.727   5.826   2.996  2.0328  0.7056 -2.5434
16384TIP3   OH270642   0.988   1.078   2.840 -0.0628 -0.5027 -0.0496
16384TIP3    H170643   1.042   1.060   2.763  1.3010 -0.6448  0.8930
16384TIP3    H270644   0.924   1.007   2.843 -0.2553 -0.3834 -1.1500
16385TIP3   OH270645   0.519   1.014  13.427 -0.4442 -0.0480 -0.2829
16385TIP3    H170646   0.531   0.951  13.497  1.4296  0.4084 -0.1528
16385TIP3    H270647   0.464   1.082  13.465 -1.8429 -1.1816 -0.1923
16386TIP3   OH270648   0.635   6.472  12.567  0.1971 -0.3212 -0.3292
16386TIP3    H170649   0.556   6.483  12.619  0.1956 -0.5791 -0.2775
16386TIP3    H270650   0.612   6.504  12.480  0.0062 -0.4941 -0.3410
16387TIP3   OH270651   1.103   3.186  11.116 -0.3302 -0.2202 -0.3411
16387TIP3    H170652   1.041   3.233  11.061  0.5468  2.1421  0.5789
16387TIP3    H270653   1.188   3.224  11.096  0.7386 -2.6285 -0.7586
16388TIP3   OH270654   1.562   2.088  11.282 -0.6005  0.1963 -0.5709
16388TIP3    H170655   1.629   2.084  11.214 -1.4100 -1.6713 -1.3627
16388TIP3    H270656   1.489   2.135  11.241 -0.0436  1.6330  0.0526
16389TIP3   OH270657   4.941   3.316   3.887 -0.6096  0.0511 -0.7203
16389TIP3    H170658   4.877   3.324   3.958  0.5904 -0.9959  0.5343
16389TIP3    H270659   5.026   3.323   3.930  0.1774 -1.5470 -1.8900
16390TIP3   OH270660   4.028   2.137  13.525  0.2266 -0.0623  0.0359
16390TIP3    H170661   4.088   2.212  13.528  0.3821 -0.2028  0.5541
16390TIP3    H270662   3.941   2.176  13.517  0.4219  0.1318 -1.4948
16391TIP3   OH270663   1.002   2.393  11.651 -0.0833 -1.0765  0.0464
16391TIP3    H170664   1.034   2.313  11.693  0.6167 -0.9027 -0.1291
16391TIP3    H270665   0.907   2.390  11.661 -0.5513 -3.8074 -3.1341
16392TIP3   OH270666   1.214   5.741  16.852 -0.0431  0.5321  0.3876
16392TIP3    H170667   1.273   5.808  16.886  0.5015 -0.0631  0.6329
16392TIP3    H270668   1.176   5.781  16.774  1.8877  0.3691 -0.6996
16393TIP3   OH270669   6.143   5.147   4.503  1.0264  0.6002 -0.3202
16393TIP3    H170670   6.119   5.238   4.486  0.7500  0.7329  0.6721
16393TIP3    H270671   6.238   5.145   4.494  1.3032  1.5012  1.6692
16394TIP3   OH270672   2.726   3.287   4.938 -0.4002 -0.2868  0.2521
16394TIP3    H170673   2.697   3.370   4.976 -1.1435 -1.1787  1.7705
16394TIP3    H270674   2.808   3.308   4.895 -1.7085  1.7015 -1.4673
16395TIP3   OH270675   4.132   2.110  14.532 -0.4386 -0.2599  0.3174
16395TIP3    H170676   4.106   2.024  14.565 -1.3065  0.1178  0.6395
16395TIP3    H270677   4.147   2.096  14.438 -2.8844 -0.2938 -0.1322
16396TIP3   OH270678   1.204   1.666   5.482 -0.3230 -0.5824  0.2028
16396TIP3    H170679   1.217   1.700   5.393  0.9335 -1.7796 -0.1135
16396TIP3    H270680   1.248   1.581   5.481 -2.2110 -1.6412  1.3173
16397TIP3   OH270681   3.861   5.620   1.974 -0.5840 -0.4548 -0.2945
16397TIP3    H170682   3.808   5.562   1.919 -0.2529 -2.1157  1.0214
16397TIP3    H270683   3.848   5.586   2.063  2.3750 -0.7242  0.1311
16398TIP3   OH270684   1.550   1.987   3.866  0.5531 -0.0182  0.4116
16398TIP3    H170685   1.476   2.013   3.921 -0.8730 -3.6722  0.5237
16398TIP3    H270686   1.512   1.975   3.779  1.5364  0.2427 -0.0667
16399TIP3   OH270687   6.656   0.511   5.454  0.3058  0.1139 -0.1428
16399TIP3    H170688   6.655   0.473   5.542  1.6308  2.3058  0.9274
16399TIP3    H270689   6.715   0.456   5.404  1.0916 -0.0508  0.9384
16400TIP3   OH270690   1.456   1.503  16.073  0.5187 -0.2384 -0.7638
16400TIP3    H170691   1.440   1.521  15.980 -2.0944  1.0331 -0.1605
16400TIP3    H270692   1.408   1.571  16.119  1.0726 -1.3318  1.5688
16401TIP3   OH270693   0.908   6.460  14.865  0.2244 -0.1255 -0.7154
16401TIP3    H170694   0.851   6.392  14.830  0.1537  0.5697 -2.0243
16401TIP3    H270695   0.963   6.486  14.791  2.8676 -1.3398  0.6837
16402TIP3   OH270696   0.430   1.468  12.949 -0.1906 -0.2992  0.4273
16402TIP3    H170697   0.337   1.457  12.928 -0.6755  0.8291  1.8106
16402TIP3    H270698   0.472   1.486  12.865 -1.3193 -0.2801 -0.1480
16403TIP3   OH270699   3.983   0.072   3.338 -0.0399 -0.1931 -0.3895
16403TIP3    H170700   4.075   0.083   3.312  0.2100 -0.4826  0.3458
16403TIP3    H270701   3.950   0.002   3.282  0.5000 -0.8298  0.0653
16404TIP3   OH270702   3.051   1.373   4.876 -0.3107 -0.3946 -0.5254
16404TIP3    H170703   3.027   1.371   4.784 -2.2016 -3.7844 -0.0893
16404TIP3    H270704   2.968   1.376   4.923  0.5442 -0.8367  1.0809
16405TIP3   OH270705   6.514   2.769   3.164  0.5184 -0.1500 -0.4035
16405TIP3    H170706   6.499   2.818   3.083  1.1134 -0.2292 -0.5651
16405TIP3    H270707   6.490   2.679   3.142  0.7386 -0.1832 -0.5167
16406TIP3   OH270708   5.988   5.402   3.172 -0.2864  0.1693  0.5347
16406TIP3    H170709   6.083   5.395   3.164 -0.3991  0.7801 -2.8415
16406TIP3    H270710   5.958   5.312   3.189  0.7836 -0.4306 -0.6017
16407TIP3   OH270711   5.556   5.786  11.779 -0.0903 -0.1201 -0.1080
16407TIP3    H170712   5.624   5.784  11.711 -0.0024 -1.1468 -0.0132
16407TIP3    H270713   5.512   5.870  11.767  0.1021 -0.1645 -1.2533
16408TIP3   OH270714   0.226   6.256   6.751 -0.4904  0.0806  0.2999
16408TIP3    H170715   0.311   6.218   6.731 -0.0106  0.0445  2.2684
16408TIP3    H270716   0.245   6.333   6.804 -1.6530  0.4808  0.1742
16409TIP3   OH270717   5.146   0.312   6.192  0.3361  0.4621  0.4082
16409TIP3    H170718   5.140   0.292   6.098  0.2429 -1.6627  0.8148
16409TIP3    H270719   5.099   0.241   6.234  0.9220  1.0434  2.1146
16410TIP3   OH270720   2.340   4.966   4.180  0.1051  0.2997 -0.2670
16410TIP3    H170721   2.358   5.032   4.112 -1.1855  1.5408  0.5512
16410TIP3    H270722   2.248   4.944   4.168 -0.1198  0.4774  1.0085
16411TIP3   OH270723   6.682   3.231   1.228  0.2420  0.2910  0.0805
16411TIP3    H170724   6.646   3.316   1.253  0.3268  0.7860 -1.3672
16411TIP3    H270725   6.615   3.168   1.255 -0.8654  1.0235 -0.8176
16412TIP3   OH270726   1.412   3.053  13.619  0.2204  0.3770  0.5709
16412TIP3    H170727   1.335   3.100  13.653  0.7766  3.8077 -2.2995
16412TIP3    H270728   1.484   3.086  13.673  0.3573  1.5482 -0.2843
16413TIP3   OH270729   5.869   6.354  14.307 -0.3389  0.6811  0.0757
16413TIP3    H170730   5.866   6.448  14.294  0.3896  0.8075  0.7497
16413TIP3    H270731   5.896   6.343  14.398  0.6166 -0.1723 -0.2923
16414TIP3   OH270732   5.271   6.101  11.053  0.1498  0.2442 -0.2492
16414TIP3    H170733   5.231   6.088  11.139 -0.1156  1.8059 -0.1125
16414TIP3    H270734   5.323   6.022  11.039  0.2328 -0.0206  1.3523
16415TIP3   OH270735   5.559   3.560  16.178 -0.1573  0.6676  0.1841
16415TIP3    H170736   5.542   3.467  16.192 -0.1188  0.7626  0.8858
16415TIP3    H270737   5.637   3.578  16.230  1.1343  0.6123 -1.6374
16416TIP3   OH270738   2.325   4.149  13.813 -0.2452  0.5260  0.1137
16416TIP3    H170739   2.289   4.123  13.898 -2.1758 -0.8052 -1.0364
16416TIP3    H270740   2.420   4.146  13.825 -0.4473  1.6576  2.5547
16417TIP3   OH270741   5.958   2.159   5.653 -0.2629 -0.0006  0.5451
16417TIP3    H170742   6.026   2.173   5.719 -0.0812  0.4876  0.2547
16417TIP3    H270743   6.003   2.164   5.569 -0.7585  0.9808  0.3249
16418TIP3   OH270744   3.672   2.181   6.481 -0.0174 -0.2674 -0.0907
16418TIP3    H170745   3.742   2.160   6.542 -1.0432  1.0713  1.6477
16418TIP3    H270746   3.621   2.100   6.474  1.7712 -1.3317 -1.5850
16419TIP3   OH270747   5.413   6.149   2.831 -0.0423  0.0762  0.3046
16419TIP3    H170748   5.386   6.195   2.752  0.7776  0.5181  0.2702
16419TIP3    H270749   5.397   6.211   2.902 -1.2612 -0.5102  0.5544
16420TIP3   OH270750   4.732   4.193   3.419 -0.8409 -0.1922 -0.1614
16420TIP3    H170751   4.747   4.100   3.435 -1.9418 -0.2593  0.6304
16420TIP3    H270752   4.687   4.224   3.498  1.5147  1.5541  0.6019
16421TIP3   OH270753   1.718   1.944  15.170  0.1108 -0.2634  0.3444
16421TIP3    H170754   1.725   1.962  15.077  0.3769 -0.7741  0.2577
16421TIP3    H270755   1.663   2.014  15.205  0.8228  0.4962 -0.0244
16422TIP3   OH270756   1.746   4.080   5.710 -0.6596  0.0227 -0.0885
16422TIP3    H170757   1.825   4.043   5.669  2.1178  2.5221  2.4799
16422TIP3    H270758   1.711   4.139   5.644 -0.5202 -1.2668 -1.3602
16423TIP3   OH270759   2.427   5.690  12.045  0.0241 -0.5435  0.0885
16423TIP3    H170760   2.480   5.610  12.045 -0.6626 -1.0030  0.4018
16423TIP3    H270761   2.339   5.661  12.020  0.1037  0.3483 -1.3252
16424TIP3   OH270762   3.016   3.404   3.381  0.6234  0.1883  0.1366
16424TIP3    H170763   2.958   3.479   3.384 -0.3810 -0.5655 -0.0161
16424TIP3    H270764   3.063   3.407   3.464  0.9375  1.2387 -0.0659
16425TIP3   OH270765   1.077   6.512   3.064 -0.0992 -0.5985 -0.8194
16425TIP3    H170766   1.000   6.456   3.057  0.0539 -0.7490 -1.3955
16425TIP3    H270767   1.044   6.594   3.100 -0.3856 -0.9335 -0.3101
16426TIP3   OH270768   1.147   4.667   3.722  0.7396 -0.0951  0.4841
16426TIP3    H170769   1.141   4.751   3.675  2.0329 -0.5111 -0.5067
16426TIP3    H270770   1.235   4.667   3.759  0.7146 -0.9602  0.5639
16427TIP3   OH270771   1.482   4.008  15.107  0.8617 -0.4656 -1.1028
16427TIP3    H170772   1.433   3.927  15.105  0.5327 -0.4522  2.1053
16427TIP3    H270773   1.574   3.981  15.110  0.7161 -0.9052  1.8860
16428TIP3   OH270774   0.222   5.887  13.155 -0.1616  0.4858 -0.4761
16428TIP3    H170775   0.212   5.982  13.158  0.1751  0.5076  1.3190
16428TIP3    H270776   0.177   5.855  13.233  0.5317 -0.7434 -0.5416
16429TIP3   OH270777   6.385   3.140   0.861  0.8759  0.3330 -0.4019
16429TIP3    H170778   6.347   3.218   0.820  0.7967  0.7623  0.4735
16429TIP3    H270779   6.443   3.104   0.794  0.4916  0.8337 -1.0132
16430TIP3   OH270780   6.245   3.014  15.283 -0.1639  0.2399  0.2394
16430TIP3    H170781   6.278   2.981  15.366  0.5951 -0.6307 -0.3736
16430TIP3    H270782   6.208   2.936  15.239 -0.3596  0.6381 -0.3183
16431TIP3   OH270783   2.948   6.003  15.373  0.4748 -0.0580  0.1398
16431TIP3    H170784   2.865   5.958  15.356 -0.0464  0.2248  1.7929
16431TIP3    H270785   2.971   6.041  15.288 -0.6629 -0.8249 -0.5483
16432TIP3   OH270786   2.952   4.392  16.184  0.2349 -0.1160 -0.0345
16432TIP3    H170787   2.947   4.328  16.114 -2.2971 -0.8002  0.6820
16432TIP3    H270788   2.889   4.460  16.159 -0.2751 -0.0827  1.2880
16433TIP3   OH270789   6.039   3.081   4.254  0.3159  0.2365  0.3722
16433TIP3    H170790   6.122   3.119   4.283 -1.3695  2.1753  3.1529
16433TIP3    H270791   6.039   2.992   4.289  0.5820  0.7803  1.8189
16434TIP3   OH270792   2.652   0.953   5.385 -0.3795  0.0234 -0.1712
16434TIP3    H170793   2.680   0.899   5.460  0.5892  0.1853 -0.4002
16434TIP3    H270794   2.616   1.032   5.425 -0.5811 -0.2201  0.1378
16435TIP3   OH270795   0.257   6.106  15.160  0.1195  1.1343 -0.4119
16435TIP3    H170796   0.212   6.026  15.184 -2.2099  1.9200 -1.7967
16435TIP3    H270797   0.256   6.106  15.064 -0.9683  3.2800 -0.4683
16436TIP3   OH270798   0.608   6.554  14.657 -0.3696 -0.1137  0.1890
16436TIP3    H170799   0.663   6.568  14.580  0.7294  2.9451  1.3845
16436TIP3    H270800   0.564   6.638  14.671 -3.7272 -1.7555  0.6479
16437TIP3   OH270801   3.167   2.652  13.989  0.5762  0.4549  1.0916
16437TIP3    H170802   3.167   2.722  13.924  0.7286  1.0345  1.7021
16437TIP3    H270803   3.205   2.577  13.943 -0.7244  0.3875  0.0476
16438TIP3   OH270804   0.381   2.025   6.151  0.4884  0.3313 -0.1223
16438TIP3    H170805   0.470   2.045   6.121  0.8739 -0.1393  0.6830
16438TIP3    H270806   0.387   2.026   6.246 -0.6329  1.4149 -0.0341
16439TIP3   OH270807   0.080   3.465  16.510  0.2788 -0.1407  0.2936
16439TIP3    H170808   0.103   3.540  16.455  0.4015  1.0004  1.8393
16439TIP3    H270809   0.151   3.459  16.574  0.2078 -1.5169  0.2835
16440TIP3   OH270810   6.773   3.878  13.354 -0.3904 -0.3230  0.0580
16440TIP3    H170811   6.864   3.880  13.382  0.2828 -2.2752 -1.6966
16440TIP3    H270812   6.731   3.950  13.401  1.9064  0.2666  1.3401
16441TIP3   OH270813   1.706   6.230  13.504  0.2061  0.2564 -0.1778
16441TIP3    H170814   1.755   6.249  13.423  0.5826 -1.3730 -0.3773
16441TIP3    H270815   1.774   6.221  13.571  0.4479 -3.3245 -0.7073
16442TIP3   OH270816   1.994   3.377   3.452  0.1221  0.1976 -0.4601
16442TIP3    H170817   2.011   3.319   3.378  1.3485  1.5384 -1.2934
16442TIP3    H270818   2.061   3.355   3.516 -0.0443  0.0068 -0.3520
16443TIP3   OH270819   6.670   3.301  13.952 -0.1170  0.6680  0.3417
16443TIP3    H170820   6.650   3.356  13.876 -0.2810 -1.7768 -1.5163
16443TIP3    H270821   6.588   3.298  14.001 -0.2786  1.5468  0.1529
16444TIP3   OH270822   3.046   5.329  15.570 -0.0959  0.7298  0.0383
16444TIP3    H170823   2.989   5.405  15.553  0.0322  0.7907 -0.1158
16444TIP3    H270824   3.084   5.308  15.485 -1.0572 -0.2570 -0.1683
16445TIP3   OH270825   6.088   5.759   2.382  0.1622  0.8945 -0.0617
16445TIP3    H170826   6.086   5.713   2.298 -2.5385 -1.1345  0.9645
16445TIP3    H270827   6.070   5.850   2.360 -3.1566  0.0052 -1.5992
16446TIP3   OH270828   6.506   6.776  13.531 -0.6108 -0.0233  0.3281
16446TIP3    H170829   6.525   6.797  13.623 -0.0560  1.5036 -0.1099
16446TIP3    H270830   6.586   6.735  13.499 -0.4591  0.3254  0.2635
16447TIP3   OH270831   0.096   2.940  13.307 -0.1866  0.4011 -0.5161
16447TIP3    H170832   0.163   2.907  13.246  0.5077  0.0859  0.4029
16447TIP3    H270833   0.069   2.863  13.356 -1.0781  0.5723 -0.7149
16448TIP3   OH270834   4.928   5.200  13.053 -0.2940 -0.1442  0.2135
16448TIP3    H170835   4.950   5.288  13.022  0.1231 -0.1523  0.4782
16448TIP3    H270836   4.837   5.187  13.028 -0.6194  0.6974  0.9317
16449TIP3   OH270837   4.059   2.930   0.406  0.0881 -0.4409 -0.2125
16449TIP3    H170838   3.974   2.901   0.372  0.3277  0.6899 -1.9087
16449TIP3    H270839   4.062   2.895   0.495 -2.2036 -0.4101 -0.0462
16450TIP3   OH270840   5.596   0.339  11.830  0.2081 -0.0906  0.3925
16450TIP3    H170841   5.602   0.411  11.892  1.2887 -0.7484  1.0709
16450TIP3    H270842   5.679   0.292  11.839  0.0431 -0.6821 -0.9524
16451TIP3   OH270843   6.343   6.168   0.104  0.0487 -0.0489  0.2654
16451TIP3    H170844   6.277   6.229   0.070  1.1796  0.4150 -1.1719
16451TIP3    H270845   6.426   6.213   0.091  0.7699 -1.1800  0.8400
16452TIP3   OH270846   5.208   1.794  14.516 -0.1297  0.4792 -0.0057
16452TIP3    H170847   5.251   1.716  14.480 -0.8367 -1.2517  2.5922
16452TIP3    H270848   5.115   1.778  14.503 -0.3268  0.4302  1.3449
16453TIP3   OH270849   4.543   3.403   0.151 -0.4025 -0.4641  0.4658
16453TIP3    H170850   4.632   3.440   0.146 -0.2394 -0.8915  0.0765
16453TIP3    H270851   4.526   3.371   0.062 -0.7061 -0.9314  0.6877
16454TIP3   OH270852   3.560   5.014   5.038 -0.2919  0.6116  0.1009
16454TIP3    H170853   3.610   5.048   4.964  0.4169 -2.0687 -0.7605
16454TIP3    H270854   3.620   5.021   5.112 -0.4335  1.8388  0.1265
16455TIP3   OH270855   6.138   4.145   0.425  0.0478  0.2133 -0.5856
16455TIP3    H170856   6.153   4.237   0.400  0.1631  0.2112 -0.5245
16455TIP3    H270857   6.047   4.143   0.453 -0.8063 -0.2482 -3.1186
16456TIP3   OH270858   1.381   2.018  15.051  0.2467  0.3616 -0.4685
16456TIP3    H170859   1.427   2.097  15.024  0.0163  0.8299  0.4704
16456TIP3    H270860   1.308   2.010  14.991  0.8187  0.3225 -1.1674
16457TIP3   OH270861   3.240   5.518   1.892  1.2408  0.5184 -0.0478
16457TIP3    H170862   3.256   5.560   1.807 -3.0698  0.2502 -1.2196
16457TIP3    H270863   3.198   5.586   1.945  2.3394  0.1725  1.3274
16458TIP3   OH270864   6.219   1.338   5.056  0.0586 -0.9230  0.3201
16458TIP3    H170865   6.307   1.375   5.055 -1.3148  2.6746 -1.3118
16458TIP3    H270866   6.213   1.288   4.974  0.2514 -0.3388 -0.0513
16459TIP3   OH270867   5.102   5.546   4.922  0.1130 -0.7262 -0.6432
16459TIP3    H170868   5.176   5.591   4.962  0.0269 -1.5486  0.4947
16459TIP3    H270869   5.076   5.602   4.849 -0.3854  1.4147  1.0619
16460TIP3   OH270870   5.705   6.433  11.324 -0.0593 -0.0943  0.5854
16460TIP3    H170871   5.717   6.521  11.359 -2.5185  0.3880  0.4348
16460TIP3    H270872   5.735   6.439  11.234  0.0179  0.5429  0.6449
16461TIP3   OH270873   1.123   3.467  15.689 -0.0486 -0.3474  0.3954
16461TIP3    H170874   1.095   3.454  15.599  2.1813  0.6687 -0.5082
16461TIP3    H270875   1.178   3.391  15.708  1.2771  0.5272  0.1143
16462TIP3   OH270876   2.030   0.410   0.443 -0.4259  0.0921  0.5123
16462TIP3    H170877   2.091   0.350   0.486 -1.1659 -0.8212  0.3275
16462TIP3    H270878   1.987   0.455   0.516 -0.1193  0.1386  0.6669
16463TIP3   OH270879   4.201   3.847   1.524  0.7879 -0.7159 -0.5896
16463TIP3    H170880   4.263   3.858   1.452 -1.0607 -0.0717 -2.1446
16463TIP3    H270881   4.122   3.813   1.484 -0.1634 -0.7802  1.2204
16464TIP3   OH270882   3.296   0.413   2.757 -0.0955  0.4305 -0.3374
16464TIP3    H170883   3.316   0.409   2.664  0.4780  0.8267 -0.2397
16464TIP3    H270884   3.287   0.322   2.784  2.5412  0.1330 -0.2214
16465TIP3   OH270885   3.166   6.818   2.072  0.0629  0.8639  0.0696
16465TIP3    H170886   3.245   6.764   2.071 -0.4381  0.0049  1.6552
16465TIP3    H270887   3.191   6.899   2.029  1.5691  0.3087 -0.1652
16466TIP3   OH270888   4.676   1.746  16.034 -0.6280 -1.0146  0.5657
16466TIP3    H170889   4.735   1.761  15.960 -2.8254 -1.1446 -1.3413
16466TIP3    H270890   4.642   1.658  16.020 -2.9954 -0.1425  0.1947
16467TIP3   OH270891   0.835   3.438  15.799  0.4035 -0.0931 -0.4517
16467TIP3    H170892   0.789   3.517  15.828  2.3314  1.1797 -0.6399
16467TIP3    H270893   0.918   3.471  15.764  0.5444 -2.0757 -2.1559
16468TIP3   OH270894   0.271   6.387   5.335  0.1877 -0.4557 -0.1010
16468TIP3    H170895   0.335   6.317   5.348  2.1605  1.2134 -0.3268
16468TIP3    H270896   0.275   6.439   5.415 -1.4005 -0.6812  0.1519
16469TIP3   OH270897   5.355   1.114   0.947 -0.2686 -0.3586 -0.1422
16469TIP3    H170898   5.438   1.110   0.993 -1.6011 -1.3865  2.3957
16469TIP3    H270899   5.331   1.207   0.948  0.8640 -0.0385 -1.0161
16470TIP3   OH270900   2.625   4.140  13.173 -0.3301 -0.4780 -0.2849
16470TIP3    H170901   2.644   4.063  13.227  0.1789 -0.1063  0.0794
16470TIP3    H270902   2.530   4.145  13.169 -0.5020  1.0708  2.9365
16471TIP3   OH270903   1.155   3.968  12.704  0.3647 -0.0170  0.0865
16471TIP3    H170904   1.193   3.896  12.654 -1.3196 -1.2423  0.4730
16471TIP3    H270905   1.061   3.957  12.694  0.0520  2.2146  0.0989
16472TIP3   OH270906   1.293   0.414  16.718 -0.1323  0.1093  0.0293
16472TIP3    H170907   1.339   0.411  16.633 -0.1234  0.4088  0.0197
16472TIP3    H270908   1.311   0.329  16.758  3.6816  1.4881  1.7268
16473TIP3   OH270909   1.411   3.817   0.697 -0.5173  0.2741 -0.5384
16473TIP3    H170910   1.415   3.803   0.602 -0.3900  1.0353 -0.6553
16473TIP3    H270911   1.439   3.908   0.709  0.4601 -0.1204  0.3279
16474TIP3   OH270912   6.609   2.598  10.881  0.1945  0.3888  0.0545
16474TIP3    H170913   6.639   2.579  10.792 -1.0680 -1.6743  0.0038
16474TIP3    H270914   6.666   2.547  10.937  0.2506  0.7703  0.3458
16475TIP3   OH270915   2.536   2.984   0.414 -0.5675  0.7411  0.1063
16475TIP3    H170916   2.551   2.890   0.410  0.4294  0.9118 -0.3008
16475TIP3    H270917   2.443   2.994   0.392 -0.4746 -0.0810 -0.7194
16476TIP3   OH270918   2.718   4.164   4.888  0.7181 -0.3516 -0.6131
16476TIP3    H170919   2.683   4.221   4.820 -0.5841  0.2585  0.5100
16476TIP3    H270920   2.807   4.195   4.903 -0.2234  2.0652  0.5712
16477TIP3   OH270921   5.327   1.121   2.885  0.4366 -0.0859 -0.1391
16477TIP3    H170922   5.282   1.116   2.801 -0.2346 -1.4801  0.2713
16477TIP3    H270923   5.418   1.096   2.865  0.4069  0.1316 -0.5420
16478TIP3   OH270924   5.715   2.826  13.417 -0.1329  0.1494 -0.1585
16478TIP3    H170925   5.665   2.828  13.499  0.3265  0.4442  0.1229
16478TIP3    H270926   5.680   2.899  13.366 -0.7047 -0.2904 -0.4006
16479TIP3   OH270927   3.879   2.640   5.974  0.0307 -0.3007 -0.1343
16479TIP3    H170928   3.896   2.701   5.902 -1.3094  0.5897  0.2697
16479TIP3    H270929   3.791   2.662   6.004  0.8487 -0.0503  2.3456
16480TIP3   OH270930   1.137   4.073   2.112 -0.2609 -0.1322 -0.0175
16480TIP3    H170931   1.104   4.154   2.073 -1.6204 -0.1650  0.9888
16480TIP3    H270932   1.085   4.062   2.191  3.0252  0.4910  2.4526
16481TIP3   OH270933   1.555   6.373  17.088  0.0917  0.2386  0.5294
16481TIP3    H170934   1.618   6.354  17.157 -0.7778  0.6893  1.4812
16481TIP3    H270935   1.606   6.370  17.007  1.2539  0.2650  1.2372
16482TIP3   OH270936   2.278   3.737   1.005  0.4065 -0.5296  0.0674
16482TIP3    H170937   2.193   3.694   1.007  0.5990 -1.0485 -1.4805
16482TIP3    H270938   2.269   3.811   1.066 -1.1283 -0.6071 -0.0199
16483TIP3   OH270939   6.102   3.875   3.662 -0.3090 -0.1220 -0.7043
16483TIP3    H170940   6.138   3.789   3.642 -2.0500 -0.9075 -0.6962
16483TIP3    H270941   6.049   3.860   3.740 -1.4893  0.6978 -1.3166
16484TIP3   OH270942   1.134   6.625  14.199  0.6899  0.0810 -0.1335
16484TIP3    H170943   1.155   6.563  14.130 -0.4600  1.2683 -1.6153
16484TIP3    H270944   1.121   6.708  14.154 -2.5863  0.3970  1.0967
16485TIP3   OH270945   2.128   4.613   5.374 -0.2730 -0.1183  0.3563
16485TIP3    H170946   2.178   4.589   5.296 -0.2071 -0.1972  0.4218
16485TIP3    H270947   2.195   4.634   5.439 -0.3328  1.6796 -0.1258
16486TIP3   OH270948   3.610   6.783  11.898  0.5025  0.1163 -0.4680
16486TIP3    H170949   3.539   6.747  11.951  0.5923 -0.7956 -0.9440
16486TIP3    H270950   3.585   6.874  11.882  0.0077  0.1240  0.3208
16487TIP3   OH270951   5.450   6.706  15.258 -0.1607 -0.1446  0.8102
16487TIP3    H170952   5.358   6.678  15.248 -0.5246  1.5911 -1.6042
16487TIP3    H270953   5.445   6.791  15.302  0.2064  0.3308 -0.0501
16488TIP3   OH270954   2.726   6.529  14.044  0.5304  0.3275  0.2399
16488TIP3    H170955   2.755   6.469  14.113 -1.3426  0.7489  1.4709
16488TIP3    H270956   2.700   6.608  14.091 -2.6379 -0.0504 -0.6567
16489TIP3   OH270957   4.806   2.845   5.022  0.4939 -0.3026 -0.4812
16489TIP3    H170958   4.826   2.885   4.938 -1.9102  0.6576 -0.6848
16489TIP3    H270959   4.853   2.899   5.086 -0.2606  1.0351 -1.0009
16490TIP3   OH270960   0.868   4.403  14.747 -0.4452 -0.5223 -0.2584
16490TIP3    H170961   0.916   4.399  14.830  2.5789 -1.0729 -1.8853
16490TIP3    H270962   0.884   4.490  14.713 -0.4740 -0.7659 -0.9173
16491TIP3   OH270963   0.924   4.855  12.950 -0.7878 -0.5542  0.6667
16491TIP3    H170964   1.008   4.846  12.904 -0.2052  0.0765  1.5665
16491TIP3    H270965   0.936   4.803  13.030 -1.8043 -1.6897  0.1008
16492TIP3   OH270966   5.610   1.676   1.542 -1.0275  0.1353 -0.1158
16492TIP3    H170967   5.562   1.696   1.622 -2.2853 -1.6932 -0.3567
16492TIP3    H270968   5.658   1.757   1.522 -2.2830  1.3110  1.3456
16493TIP3   OH270969   3.419   1.454   0.881 -0.3245  0.1784 -0.3289
16493TIP3    H170970   3.334   1.414   0.866 -0.3275  0.1036 -0.1196
16493TIP3    H270971   3.405   1.516   0.953 -0.0697 -0.2831  0.1219
16494TIP3   OH270972   3.335   6.249  14.730  0.2426  0.3300  0.0759
16494TIP3    H170973   3.402   6.193  14.692  0.8442 -0.8430  2.6663
16494TIP3    H270974   3.267   6.254  14.663  0.8709 -2.2022 -0.8533
16495TIP3   OH270975   4.945   2.345   1.275  0.4602 -0.3394  0.2726
16495TIP3    H170976   4.880   2.275   1.278  0.2464 -0.1316  0.7902
16495TIP3    H270977   4.994   2.330   1.195 -1.3873  0.5216 -1.1004
16496TIP3   OH270978   5.696   4.836  14.930 -0.1680 -0.2172 -0.2174
16496TIP3    H170979   5.742   4.888  14.996 -0.1461 -0.8575  0.2815
16496TIP3    H270980   5.639   4.777  14.980 -0.6950 -0.2120 -0.7949
16497TIP3   OH270981   6.555   3.761   4.355  0.5133 -0.2926  0.0864
16497TIP3    H170982   6.524   3.831   4.298 -0.5308 -0.2749  0.6556
16497TIP3    H270983   6.615   3.804   4.416  1.3168 -0.2396 -0.7254
16498TIP3   OH270984   4.655   6.608   2.951  0.0343  0.2926 -0.5055
16498TIP3    H170985   4.584   6.546   2.931 -0.8240  0.4824  1.7089
16498TIP3    H270986   4.648   6.674   2.882 -1.4337 -0.1098 -0.7841
16499TIP3   OH270987   5.777   2.545   1.421  0.0752  0.4608  0.1326
16499TIP3    H170988   5.842   2.595   1.371 -0.5726  1.0344 -0.1616
16499TIP3    H270989   5.828   2.486   1.476  0.8383 -1.0168 -2.0063
16500TIP3   OH270990   6.198   2.375   3.465  0.6673 -0.2745  0.0228
16500TIP3    H170991   6.222   2.421   3.545 -0.7398  1.7325 -0.6273
16500TIP3    H270992   6.102   2.380   3.463  0.5545 -2.1382 -0.7571
16501TIP3   OH270993   5.934   5.774  14.319  0.1396  0.0329  0.0005
16501TIP3    H170994   5.951   5.742  14.231 -0.9713 -3.1348  0.8159
16501TIP3    H270995   5.981   5.712  14.376 -0.6816  0.9055  1.6822
16502TIP3   OH270996   3.862   6.381  14.535  0.7436  0.1734 -0.1803
16502TIP3    H170997   3.839   6.321  14.606 -1.3873 -0.8023 -1.5641
16502TIP3    H270998   3.876   6.465  14.578 -0.7492 -0.3151  1.3804
16503TIP3   OH270999   4.660   4.480   0.857  0.6273  0.2108  0.4250
16503TIP3    H171000   4.692   4.390   0.852  1.5036  0.5300  0.1999
16503TIP3    H271001   4.636   4.502   0.767 -2.0830 -0.6565  0.8276
16504TIP3   OH271002   5.485   2.667  15.974 -1.0428 -0.2912 -0.4021
16504TIP3    H171003   5.493   2.576  16.002  0.5058 -0.6530 -1.8973
16504TIP3    H271004   5.508   2.718  16.052  2.4325 -1.2682 -0.6017
16505TIP3   OH271005   0.433   2.836  16.313  0.1471  0.7760 -0.4988
16505TIP3    H171006   0.349   2.828  16.359  0.2257 -3.6610 -0.6475
16505TIP3    H271007   0.412   2.888  16.235 -2.3834  0.2808 -0.2537
16506TIP3   OH271008   4.623   3.933   4.027  0.6870  0.2946 -0.4694
16506TIP3    H171009   4.713   3.906   4.008  1.5498  2.4151  0.2441
16506TIP3    H271010   4.613   4.015   3.978 -1.4835 -0.7283 -1.8956
16507TIP3   OH271011   5.798   2.613   4.464  0.1914 -0.3362  0.6447
16507TIP3    H171012   5.729   2.547   4.455 -0.3412  0.3459 -0.5810
16507TIP3    H271013   5.864   2.571   4.520 -1.3406 -0.8833  2.1383
16508TIP3   OH271014   2.697   3.251   2.219 -0.0010 -0.0152  0.0516
16508TIP3    H171015   2.689   3.280   2.309 -2.9619 -0.1539 -0.0718
16508TIP3    H271016   2.753   3.174   2.223 -0.6944 -0.4683  1.8978
16509TIP3   OH271017   1.414   1.133  15.470 -0.4442 -0.4320 -0.2600
16509TIP3    H171018   1.442   1.139  15.378  0.4469 -0.4899  0.0033
16509TIP3    H271019   1.456   1.054  15.503  1.1009  0.7787  0.8194
16510TIP3   OH271020   1.130   4.930   4.105  0.6567  0.5251 -0.0028
16510TIP3    H171021   1.085   4.929   4.190  0.4889 -3.1355  0.0312
16510TIP3    H271022   1.223   4.937   4.127  0.6463 -0.7936  0.5908
16511TIP3   OH271023   0.700   5.855  13.343 -0.0098 -0.4204 -0.2634
16511TIP3    H171024   0.729   5.943  13.369  0.5892 -0.6538 -0.1288
16511TIP3    H271025   0.655   5.869  13.259 -0.3128  0.0745 -0.0247
16512TIP3   OH271026   2.500   1.247  13.634  0.7438 -0.0300  0.3043
16512TIP3    H171027   2.541   1.167  13.602  3.0525  1.6118 -1.1558
16512TIP3    H271028   2.569   1.292  13.683 -0.6142  0.9045  1.4444
16513TIP3   OH271029   5.007   3.322   6.030  0.2031 -0.6752  0.4054
16513TIP3    H171030   4.972   3.405   6.064 -0.9910 -0.5336 -1.0983
16513TIP3    H271031   4.930   3.272   6.003  1.0346 -0.3439 -3.0387
16514TIP3   OH271032   4.240   6.405  17.052 -0.0578 -0.0614 -0.1780
16514TIP3    H171033   4.148   6.383  17.069  0.4366 -1.8996  0.4480
16514TIP3    H271034   4.268   6.340  16.988  0.1322  2.1838 -2.5002
16515TIP3   OH271035   3.459   1.687  14.651 -0.0788  0.2247 -0.0899
16515TIP3    H171036   3.545   1.647  14.661  0.3061  0.2663 -2.5967
16515TIP3    H271037   3.422   1.687  14.739  0.3820 -4.5062  0.3385
16516TIP3   OH271038   4.418   2.337   4.591  0.8699 -0.4414 -0.0119
16516TIP3    H171039   4.504   2.336   4.549  2.3471 -0.3697  2.7771
16516TIP3    H271040   4.392   2.429   4.591  0.4287 -0.5432 -1.4541
16517TIP3   OH271041   0.768   4.027   4.635  0.0226  0.2036  0.2511
16517TIP3    H171042   0.845   3.997   4.587  0.6552 -1.2920  2.1124
16517TIP3    H271043   0.728   3.947   4.669 -1.3823  1.0865  0.7706
16518TIP3   OH271044   2.330   0.211  12.809  0.4510  0.4471 -0.7128
16518TIP3    H171045   2.404   0.263  12.840  1.0226 -0.2562 -0.8543
16518TIP3    H271046   2.320   0.235  12.717 -0.4702  1.6434 -0.3226
16519TIP3   OH271047   4.469   5.818  15.849  0.0136 -0.0243 -0.1578
16519TIP3    H171048   4.458   5.908  15.821  0.5822  0.6634  1.6991
16519TIP3    H271049   4.549   5.789  15.804  0.2428  0.6355 -0.1851
16520TIP3   OH271050   6.538   3.291   1.517 -0.3249 -0.1449 -0.0964
16520TIP3    H171051   6.537   3.202   1.481 -0.0627  0.4877 -1.7200
16520TIP3    H271052   6.629   3.305   1.542 -0.1573  0.0320 -0.7955
16521TIP3   OH271053   5.648   3.378   3.708 -0.5348  0.0881 -0.6577
16521TIP3    H171054   5.702   3.373   3.629  0.3699 -0.6436 -0.0202
16521TIP3    H271055   5.558   3.369   3.677 -0.2209  0.2375 -1.6433
16522TIP3   OH271056   0.036   6.738  16.887  0.3483 -0.3649 -0.0655
16522TIP3    H171057   0.063   6.672  16.951  1.0579  0.7205  0.8023
16522TIP3    H271058   0.005   6.812  16.940  0.5962  0.4136 -0.9642
16523TIP3   OH271059   5.920   0.161  16.947  0.2247 -0.0695  0.1287
16523TIP3    H171060   5.952   0.102  16.879  1.4454  1.5671 -0.7715
16523TIP3    H271061   5.998   0.183  16.998 -0.7275 -1.6298  2.4332
16524TIP3   OH271062   6.219   2.931  14.513 -0.0956  0.1739  0.0038
16524TIP3    H171063   6.242   2.867  14.581 -1.9143 -2.1620 -1.4071
16524TIP3    H271064   6.279   2.912  14.441 -2.2745 -1.9741 -1.4428
16525TIP3   OH271065   5.366   5.868   0.372  0.3719  0.0086 -0.3649
16525TIP3    H171066   5.294   5.804   0.371  2.5257 -2.5604 -0.0597
16525TIP3    H271067   5.402   5.865   0.283  2.2758 -1.4523  0.3891
16526TIP3   OH271068   0.960   0.292   2.336 -0.1925 -0.5065 -0.0671
16526TIP3    H171069   0.951   0.387   2.341 -0.3616 -0.5901  3.1831
16526TIP3    H271070   0.955   0.272   2.242 -1.8453  2.4986 -0.7263
16527TIP3   OH271071   1.354   3.469  13.661 -0.4221 -0.0293 -0.4353
16527TIP3    H171072   1.286   3.536  13.667  0.4376  0.7802  0.7631
16527TIP3    H271073   1.428   3.514  13.619 -0.3352 -0.6748 -1.0047
16528TIP3   OH271074   3.838   2.265   1.589  0.2342 -0.1892 -0.2132
16528TIP3    H171075   3.743   2.264   1.600  0.3641 -1.9459  1.1735
16528TIP3    H271076   3.869   2.194   1.644  2.4337  0.7813 -0.1078
16529TIP3   OH271077   6.398   5.801   3.475  0.1974 -0.2073  0.2689
16529TIP3    H171078   6.408   5.714   3.436  0.2156 -0.0285 -0.1304
16529TIP3    H271079   6.335   5.845   3.417  0.0792 -0.0042  0.5532
16530TIP3   OH271080   3.107   5.847  12.093  0.6347 -0.0902 -0.0528
16530TIP3    H171081   3.132   5.881  12.179  0.6565  0.9738 -0.4589
16530TIP3    H271082   3.037   5.784  12.112  0.3807  0.4058  0.7205
16531TIP3   OH271083   4.699   1.929   1.040  0.5058  0.6586  0.0863
16531TIP3    H171084   4.722   1.953   0.951 -0.0628  0.4915 -0.1147
16531TIP3    H271085   4.613   1.887   1.032  0.5268  0.4824  0.6879
16532TIP3   OH271086   3.733   4.813  12.628  0.4065 -0.5087 -0.3073
16532TIP3    H171087   3.685   4.742  12.669 -0.7383 -0.1340 -0.9633
16532TIP3    H271088   3.666   4.876  12.603  1.3329  0.4765 -0.3893
16533TIP3   OH271089   5.844   1.302  15.851  0.7666 -0.2939  0.4476
16533TIP3    H171090   5.906   1.349  15.907  0.7036  0.7448 -0.3206
16533TIP3    H271091   5.758   1.322  15.889  0.8008 -0.5278  0.6487
16534TIP3   OH271092   3.382   5.744  13.573  1.1400 -0.3791  0.1437
16534TIP3    H171093   3.291   5.760  13.547  1.1734 -1.1950 -0.5207
16534TIP3    H271094   3.398   5.806  13.644  0.9416  1.7201 -1.5477
16535TIP3   OH271095   2.583   0.220   1.441  0.0809 -0.1108 -0.2452
16535TIP3    H171096   2.620   0.261   1.362 -1.3785  0.4106 -0.6880
16535TIP3    H271097   2.553   0.294   1.494  1.9750 -0.3909  1.3301
16536TIP3   OH271098   4.433   2.147  11.712 -0.2619  0.3661  0.4357
16536TIP3    H171099   4.496   2.171  11.780 -0.2823  0.5886  0.3761
16536TIP3    H271100   4.485   2.099  11.648 -0.0902  0.8156  0.2362
16537TIP3   OH271101   0.376   4.188  16.853 -0.4000 -0.3061  0.2269
16537TIP3    H171102   0.312   4.195  16.925 -0.5709 -0.3520  0.0804
16537TIP3    H271103   0.325   4.205  16.774  0.1642  1.7279  0.2504
16538TIP3   OH271104   6.012   6.700  13.024 -0.0434 -0.7641  0.0264
16538TIP3    H171105   6.076   6.733  13.087 -1.1759  0.3620  0.6498
16538TIP3    H271106   6.047   6.724  12.938 -1.1983  3.0806  0.4426
16539TIP3   OH271107   2.329   1.246   0.814 -0.0985 -0.4068  0.5884
16539TIP3    H171108   2.270   1.270   0.742 -1.4953  1.4070  2.2398
16539TIP3    H271109   2.329   1.150   0.814 -0.7461 -0.4483 -1.2597
16540TIP3   OH271110   6.582   3.379   4.818  0.0714  0.1884 -0.0962
16540TIP3    H171111   6.614   3.416   4.735 -0.2054  0.6496 -0.0005
16540TIP3    H271112   6.493   3.351   4.799  0.6602 -1.5401 -0.4956
16541TIP3   OH271113   5.505   5.490  13.629 -0.0378 -0.1367  0.3783
16541TIP3    H171114   5.476   5.496  13.721  1.1109 -0.6199  0.7928
16541TIP3    H271115   5.556   5.409  13.626  0.3444  0.1328 -0.5819
16542TIP3   OH271116   4.092   3.881  11.315  0.4171  0.3096  0.2195
16542TIP3    H171117   4.117   3.827  11.390 -2.3429 -1.4934 -0.0297
16542TIP3    H271118   4.040   3.952  11.354  0.6915  0.5194  0.2005
16543TIP3   OH271119   3.670   2.056  14.039  0.0505 -0.0200 -0.5457
16543TIP3    H171120   3.702   2.099  14.118  0.8226 -0.5016 -0.5837
16543TIP3    H271121   3.620   1.981  14.071  0.4140 -0.2499 -0.5086
16544TIP3   OH271122   2.239   1.118   5.106  0.1460  0.4531 -0.0898
16544TIP3    H171123   2.218   1.038   5.153  0.0238 -0.5697 -1.7726
16544TIP3    H271124   2.164   1.132   5.048  1.5179 -0.0733 -2.1162
16545TIP3   OH271125   2.368   6.782  15.492  0.4302  0.1836 -0.1472
16545TIP3    H171126   2.309   6.722  15.538  0.4438 -1.4642 -2.1177
16545TIP3    H271127   2.350   6.868  15.530 -1.0104 -0.7643  1.4378
16546TIP3   OH271128   5.543   2.725  11.356  0.3812  0.2306  0.2058
16546TIP3    H171129   5.595   2.722  11.436 -0.4358  1.5506  0.8159
16546TIP3    H271130   5.468   2.669  11.374 -0.5775  1.7115  0.9685
16547TIP3   OH271131   6.074   1.713  12.403 -0.1371 -0.4449  0.6452
16547TIP3    H171132   6.020   1.738  12.327 -0.4180 -0.5056  0.8240
16547TIP3    H271133   6.030   1.753  12.478  0.7235  0.5162  0.6637
16548TIP3   OH271134   3.965   0.406  17.100 -0.0845  0.2588  0.3026
16548TIP3    H171135   4.001   0.493  17.116  0.0512  0.3782 -0.6324
16548TIP3    H271136   3.943   0.405  17.007  0.9229 -1.0746  0.0361
16549TIP3   OH271137   0.088   4.312   3.847  0.3046 -0.0292 -0.5807
16549TIP3    H171138   0.096   4.405   3.870  2.2794 -0.7654  2.3497
16549TIP3    H271139   0.015   4.280   3.900  2.1348 -0.8482  1.6398
16550TIP3   OH271140   4.585   4.541   2.071  0.5410  0.2001  0.0821
16550TIP3    H171141   4.554   4.576   2.155  2.4920  0.5091  0.7283
16550TIP3    H271142   4.530   4.465   2.055  0.5483 -0.2765  2.0078
16551TIP3   OH271143   3.180   0.607  10.446  0.2031 -0.2709  0.3372
16551TIP3    H171144   3.228   0.686  10.467  0.7316 -0.4655 -0.1067
16551TIP3    H271145   3.131   0.586  10.526 -0.5664  0.9314  0.2139
16552TIP3   OH271146   5.168   5.257  14.338 -0.1435 -0.0968 -0.0521
16552TIP3    H171147   5.129   5.330  14.386 -0.4586  0.7375 -1.5231
16552TIP3    H271148   5.154   5.181  14.394  1.5299  1.1712  2.2624
16553TIP3   OH271149   1.794   0.709  13.975 -0.0605 -0.2710  0.2006
16553TIP3    H171150   1.874   0.662  14.000  1.9238  2.4317 -0.6097
16553TIP3    H271151   1.778   0.769  14.048 -2.1811 -1.5846  0.9277
16554TIP3   OH271152   5.733   2.211   3.022  0.5129 -0.0228  0.1284
16554TIP3    H171153   5.784   2.191   2.943 -1.6340  0.1378 -1.3888
16554TIP3    H271154   5.798   2.239   3.086  2.2931  0.4884 -1.7927
16555TIP3   OH271155   1.343   4.596   5.755 -0.4038 -0.0587 -0.8300
16555TIP3    H171156   1.438   4.594   5.754 -0.4094 -0.2427 -1.3732
16555TIP3    H271157   1.320   4.636   5.839  0.1389 -0.7551 -0.3427
16556TIP3   OH271158   4.407   6.425   3.547 -0.0523  0.4884 -0.3679
16556TIP3    H171159   4.446   6.342   3.522 -0.9361  0.2543 -1.0082
16556TIP3    H271160   4.418   6.481   3.470 -1.8534  0.0905 -0.9668
16557TIP3   OH271161   0.160   0.530  12.264  0.2831  0.0944  0.8139
16557TIP3    H171162   0.092   0.585  12.224  1.2919 -0.2005 -1.5050
16557TIP3    H271163   0.127   0.441  12.255  0.2961  0.0603  1.1058
16558TIP3   OH271164   5.674   3.783   3.357 -0.4554 -0.1832  0.0807
16558TIP3    H171165   5.721   3.788   3.273 -0.0797 -1.3564  0.2085
16558TIP3    H271166   5.743   3.777   3.423 -0.7612 -0.8807  0.3488
16559TIP3   OH271167   5.761   1.981   5.139  0.0618 -0.1416 -0.7082
16559TIP3    H171168   5.812   1.997   5.060 -1.2881 -2.4327 -2.1658
16559TIP3    H271169   5.823   1.941   5.200  1.5273  3.0882  0.1472
16560TIP3   OH271170   2.707   1.734   4.985 -0.0784  0.0971  0.1225
16560TIP3    H171171   2.635   1.714   4.926  1.2797  1.0326 -1.9585
16560TIP3    H271172   2.679   1.812   5.033 -1.1401 -0.5939  0.6584
16561TIP3   OH271173   0.633   6.518   0.651  0.3199 -0.3888 -0.0141
16561TIP3    H171174   0.681   6.589   0.694 -2.9554  2.8871 -1.2891
16561TIP3    H271175   0.702   6.464   0.612  3.0965  0.5316  3.1548
16562TIP3   OH271176   1.542   6.234   2.705 -0.4215 -0.2739 -0.2471
16562TIP3    H171177   1.450   6.216   2.685 -0.6727  0.1052  0.5522
16562TIP3    H271178   1.560   6.185   2.785 -0.6681  1.6308  1.0535
16563TIP3   OH271179   1.119   2.197   3.984  0.3959  0.5220  0.4783
16563TIP3    H171180   1.176   2.121   3.976 -0.7398 -0.1887 -1.5853
16563TIP3    H271181   1.065   2.195   3.905  0.3240  3.4892  0.3306
16564TIP3   OH271182   5.124   2.622   1.205 -0.1353  0.0544 -0.3976
16564TIP3    H171183   5.126   2.636   1.300  2.0262  1.6217 -0.5950
16564TIP3    H271184   5.092   2.705   1.170  1.0143  0.2034 -1.1188
16565TIP3   OH271185   0.907   5.852  16.728  0.1120 -0.7295 -0.1189
16565TIP3    H171186   0.865   5.766  16.726 -1.2633 -0.0902 -1.5393
16565TIP3    H271187   0.836   5.913  16.705  0.7354  0.9425  2.0035
16566TIP3   OH271188   0.903   5.179  13.167  0.3307  0.2581 -0.2467
16566TIP3    H171189   0.937   5.185  13.078  0.1673 -1.2725 -0.4385
16566TIP3    H271190   0.884   5.269  13.192  2.7481  0.9791 -0.8181
16567TIP3   OH271191   5.900   1.955  10.430  0.1407 -0.0385  0.0154
16567TIP3    H171192   5.900   1.860  10.414  0.3177  0.2857 -2.1685
16567TIP3    H271193   5.989   1.974  10.460  0.1805 -0.5249  0.2170
16568TIP3   OH271194   5.578   1.658   2.643  0.7637  0.0368  0.5736
16568TIP3    H171195   5.613   1.614   2.721  0.5806  1.2600  1.3764
16568TIP3    H271196   5.543   1.587   2.589  0.0777 -0.7783  2.0179
16569TIP3   OH271197   2.370   5.499  13.452  0.3010  0.5066  0.3115
16569TIP3    H171198   2.463   5.477  13.442 -0.1553 -2.6752  1.7654
16569TIP3    H271199   2.333   5.486  13.364  0.8859 -0.3878  0.1825
16570TIP3   OH271200   6.391   1.353  15.043  0.3079  0.4386 -0.2144
16570TIP3    H171201   6.484   1.375  15.052  0.0438  1.3692  0.4039
16570TIP3    H271202   6.368   1.310  15.125  0.1289  0.4397 -0.2626
16571TIP3   OH271203   2.942   1.472  15.010 -0.3333  0.2507  0.6362
16571TIP3    H171204   2.847   1.476  14.998 -0.3369 -0.1926  0.5051
16571TIP3    H271205   2.968   1.389  14.971  0.0973  0.3246  0.7583
16572TIP3   OH271206   2.593   5.024   2.879 -0.6730  0.2690 -0.2295
16572TIP3    H171207   2.582   5.070   2.962 -0.9692  0.5939 -0.4446
16572TIP3    H271208   2.684   4.996   2.878 -0.6671  0.2733  0.2014
16573TIP3   OH271209   3.900   2.731   2.721  0.2683 -0.2717  0.4429
16573TIP3    H171210   3.945   2.743   2.637 -1.6051 -3.2154 -1.1810
16573TIP3    H271211   3.851   2.813   2.733 -0.6499 -0.2930 -2.2630
16574TIP3   OH271212   6.003   3.702   0.860 -0.1765  0.0956 -0.0333
16574TIP3    H171213   6.035   3.668   0.776 -0.1380 -0.1732  0.0855
16574TIP3    H271214   5.998   3.624   0.916 -1.2170  0.1074 -0.0963
16575TIP3   OH271215   1.008   3.195  16.218  0.2047  0.2775 -0.0324
16575TIP3    H171216   0.915   3.187  16.198  0.4589  0.3332 -1.3940
16575TIP3    H271217   1.030   3.112  16.260 -0.2549 -0.1658 -0.6391
16576TIP3   OH271218   5.979   4.649   0.069  0.6618 -0.3697  0.2176
16576TIP3    H171219   5.948   4.661   0.159  1.2956  0.9122  0.2876
16576TIP3    H271220   6.073   4.635   0.077  0.8002  0.2351 -0.2696
16577TIP3   OH271221   5.976   1.103   4.640  0.4935 -0.2873 -0.4562
16577TIP3    H171222   5.887   1.067   4.639  0.5195 -0.3445 -0.8263
16577TIP3    H271223   6.012   1.081   4.554  1.1026 -0.8542 -0.0705
16578TIP3   OH271224   5.812   2.680   0.307 -0.0033  0.0611  0.0629
16578TIP3    H171225   5.839   2.734   0.232  2.0997 -0.1951  0.5858
16578TIP3    H271226   5.778   2.743   0.370 -0.3171  0.4452 -0.4746
16579TIP3   OH271227   3.865   5.647   6.018  0.3608  0.1118 -0.0370
16579TIP3    H171228   3.937   5.602   6.062 -0.2782 -1.1076 -0.2108
16579TIP3    H271229   3.808   5.577   5.986 -0.7193  1.0420 -0.2186
16580TIP3   OH271230   0.845   0.082   2.483 -0.4220 -0.9290  0.3133
16580TIP3    H171231   0.777   0.089   2.416 -0.0519 -2.0085 -0.2006
16580TIP3    H271232   0.893   0.164   2.478 -0.7330 -0.7867 -0.3709
16581TIP3   OH271233   3.406   3.122  13.812  0.4405  0.1407  0.1049
16581TIP3    H171234   3.318   3.119  13.851  0.2534 -0.7815 -0.3713
16581TIP3    H271235   3.397   3.077  13.728  1.1811  0.7970 -0.3388
16582TIP3   OH271236   2.844   3.731  14.777  0.3136  0.7316  0.4599
16582TIP3    H171237   2.842   3.746  14.682 -0.5894 -0.6902  0.2221
16582TIP3    H271238   2.917   3.671  14.791 -0.9668 -0.9180  0.3260
16583TIP3   OH271239   5.904   6.146   4.881  0.0626 -0.7381  0.6000
16583TIP3    H171240   5.909   6.179   4.971 -0.1716 -1.0150  0.7145
16583TIP3    H271241   5.811   6.129   4.867  0.0484 -0.3155  0.1670
16584TIP3   OH271242   0.933   2.490  13.253 -0.0111 -0.0327 -0.5017
16584TIP3    H171243   0.930   2.419  13.317  1.0452  0.9074  0.6599
16584TIP3    H271244   0.847   2.531  13.259  0.2546  0.3972  0.7933
16585TIP3   OH271245   6.510   3.358  15.462  0.3494  0.0743 -0.3867
16585TIP3    H171246   6.426   3.394  15.491  0.2498  0.3267 -0.9873
16585TIP3    H271247   6.567   3.435  15.455 -0.0284  0.2279 -2.2498
16586TIP3   OH271248   2.628   0.817  11.341 -0.5812  0.0345 -0.5258
16586TIP3    H171249   2.548   0.870  11.348 -1.4472 -1.3413  0.6128
16586TIP3    H271250   2.599   0.729  11.364  1.3824 -0.4016  0.4472
16587TIP3   OH271251   5.378   4.495   0.733 -0.2489  0.0450 -0.1338
16587TIP3    H171252   5.356   4.588   0.722 -0.0449  0.2205  0.8810
16587TIP3    H271253   5.473   4.493   0.728 -0.3016 -0.2874 -1.3521
16588TIP3   OH271254   6.070   1.143  15.805 -0.1308 -0.2148 -0.5279
16588TIP3    H171255   5.996   1.204  15.809 -0.3144 -0.3922 -1.1413
16588TIP3    H271256   6.138   1.191  15.758  1.4142  1.2356  2.8395
16589TIP3   OH271257   5.281   0.872   0.111  0.6501  0.3689 -0.3015
16589TIP3    H171258   5.348   0.916   0.058  1.5251 -0.3168  0.1908
16589TIP3    H271259   5.224   0.830   0.047  0.8273  0.7709 -0.7330
16590TIP3   OH271260   1.569   4.041  11.079  0.2424  0.4338  0.0426
16590TIP3    H171261   1.487   3.995  11.097  0.7851 -0.1983  0.9707
16590TIP3    H271262   1.622   4.029  11.158  0.9467  1.4742 -0.2433
16591TIP3   OH271263   1.642   4.644   4.403 -0.0263  0.5380 -0.2740
16591TIP3    H171264   1.624   4.582   4.474 -3.1223  0.6494 -0.8128
16591TIP3    H271265   1.684   4.718   4.445  0.0719 -0.2589  1.0842
16592TIP3   OH271266   4.888   6.807   0.695  0.6569  0.0422 -0.6338
16592TIP3    H171267   4.981   6.794   0.709  0.4028  0.4064  1.8994
16592TIP3    H271268   4.847   6.724   0.720  0.3354 -0.5266 -2.8720
16593TIP3   OH271269   2.801   4.906   3.855 -0.0301  0.1243  0.1806
16593TIP3    H171270   2.717   4.860   3.852 -1.5223  2.6361 -0.6794
16593TIP3    H271271   2.776   4.999   3.860  2.7389  0.8975  1.1961
16594TIP3   OH271272   5.463   2.412   5.662 -0.0605 -0.6179  0.0643
16594TIP3    H171273   5.545   2.451   5.634 -0.3178 -0.0559  0.0735
16594TIP3    H271274   5.404   2.486   5.675 -0.2041 -0.9107  1.2676
16595TIP3   OH271275   1.282   0.223  13.357  0.0794 -0.1894  0.4822
16595TIP3    H171276   1.333   0.299  13.384 -0.3986 -0.2639  1.6617
16595TIP3    H271277   1.202   0.260  13.320  0.2438 -0.1134  0.1928
16596TIP3   OH271278   1.830   5.412   3.777 -0.0683  0.3572 -0.2943
16596TIP3    H171279   1.862   5.483   3.833  2.3702  0.0904 -1.2469
16596TIP3    H271280   1.739   5.436   3.758 -0.2090  1.6965  1.7418
16597TIP3   OH271281   3.098   4.677  11.903 -0.2309 -0.1362  0.0496
16597TIP3    H171282   3.154   4.724  11.841  1.6740 -0.8049  1.1667
16597TIP3    H271283   3.107   4.725  11.985 -3.0083  0.9476 -0.1716
16598TIP3   OH271284   1.648   4.925   1.717 -0.2848  0.1702 -0.1755
16598TIP3    H171285   1.719   4.976   1.756 -0.7918  0.3108  0.5859
16598TIP3    H271286   1.618   4.868   1.787 -1.4077  0.6306 -0.2574
16599TIP3   OH271287   3.974   2.247  12.887 -0.1009  0.3416 -0.5738
16599TIP3    H171288   3.894   2.201  12.914 -0.4608  0.5027 -1.3459
16599TIP3    H271289   3.951   2.340  12.893 -0.2451  0.3782 -1.5979
16600TIP3   OH271290   3.009   6.322  16.846 -0.0387  0.5549 -0.2888
16600TIP3    H171291   2.967   6.281  16.771 -0.3397 -0.9312  0.6454
16600TIP3    H271292   3.076   6.378  16.808  0.6158 -1.0591 -1.6680
16601TIP3   OH271293   5.785   3.659  13.063  0.1531 -0.3386  0.1420
16601TIP3    H171294   5.858   3.693  13.012 -0.0325  1.4703  0.9971
16601TIP3    H271295   5.823   3.638  13.148 -0.2728  0.5881  0.5832
16602TIP3   OH271296   6.511   1.510  13.066 -0.1638 -0.3649  0.2987
16602TIP3    H171297   6.529   1.589  13.118 -1.1286  0.0747 -0.0019
16602TIP3    H271298   6.564   1.522  12.987 -0.3769  0.0338  0.2108
16603TIP3   OH271299   1.747   4.501   3.716 -0.0383 -0.4034  0.3672
16603TIP3    H171300   1.808   4.503   3.790  0.9544  0.8083 -0.4455
16603TIP3    H271301   1.721   4.409   3.708  2.4720 -1.1627  0.1106
16604TIP3   OH271302   3.574   1.236   6.335 -0.0320  0.5143 -0.2026
16604TIP3    H171303   3.552   1.288   6.413 -0.8680 -1.6400  1.0795
16604TIP3    H271304   3.491   1.195   6.310  0.7449 -0.8074 -0.6840
16605TIP3   OH271305   4.680   0.343  11.712  1.1332 -0.2927 -0.1416
16605TIP3    H171306   4.722   0.428  11.700  2.8192 -0.8885  1.1059
16605TIP3    H271307   4.699   0.320  11.803  0.8138 -2.0523 -0.4841
16606TIP3   OH271308   3.511   4.050  10.471  0.3625  0.9959  0.1788
16606TIP3    H171309   3.446   4.007  10.414 -2.9272  1.9795  2.8797
16606TIP3    H271310   3.503   4.143  10.450  0.9019  1.1337  0.5641
16607TIP3   OH271311   0.009   5.461  15.700 -0.9741  0.2746 -0.1115
16607TIP3    H171312  -0.013   5.447  15.608 -3.1594  0.7931  0.2799
16607TIP3    H271313  -0.047   5.399  15.747 -0.0889  0.2231  0.8999
16608TIP3   OH271314   3.310   5.902  16.442  0.0319 -0.5178  0.2482
16608TIP3    H171315   3.264   5.963  16.500 -0.4619 -0.1370 -0.5206
16608TIP3    H271316   3.258   5.901  16.362  0.2896 -1.6011  0.0685
16609TIP3   OH271317   3.279   1.055  15.765 -0.6388  0.8723  0.0763
16609TIP3    H171318   3.239   1.080  15.849 -1.1949 -0.0358  0.0971
16609TIP3    H271319   3.224   0.984  15.733  1.5115 -1.1151  0.5707
16610TIP3   OH271320   6.078   1.320  11.279  0.1272  0.4230 -0.4250
16610TIP3    H171321   6.033   1.289  11.357 -1.3000  1.3976 -0.8295
16610TIP3    H271322   6.036   1.273  11.207  1.1273 -0.1303 -0.6713
16611TIP3   OH271323   2.387   0.249   6.202 -0.5328  0.1376  0.4104
16611TIP3    H171324   2.430   0.286   6.124 -1.2064 -0.3868 -0.2204
16611TIP3    H271325   2.311   0.306   6.217  0.5299  1.2983  1.7580
16612TIP3   OH271326   2.011   6.619   3.914  0.7055 -0.4526  0.7249
16612TIP3    H171327   2.078   6.686   3.908 -1.3504  1.5841 -1.9877
16612TIP3    H271328   2.037   6.551   3.852  0.1472  0.5006 -0.5808
16613TIP3   OH271329   3.315   5.840  14.521  0.2311 -0.5291 -0.1139
16613TIP3    H171330   3.343   5.752  14.546 -1.5362 -1.4450 -1.1444
16613TIP3    H271331   3.307   5.887  14.603  0.0071 -1.7240  0.5737
16614TIP3   OH271332   5.787   5.957   1.354  0.1184  0.3418 -0.0704
16614TIP3    H171333   5.876   5.978   1.382 -0.2916  0.8024  0.9552
16614TIP3    H271334   5.738   6.037   1.370 -0.7155 -0.2659  0.4907
16615TIP3   OH271335   0.720   0.922   1.834 -0.0230  0.4645 -0.2461
16615TIP3    H171336   0.632   0.959   1.834 -0.1730  0.1578  1.1732
16615TIP3    H271337   0.763   0.961   1.910  0.8432  0.0916 -0.5272
16616TIP3   OH271338   1.510   0.998  15.218 -0.0792  0.4823 -0.1156
16616TIP3    H171339   1.534   0.953  15.299  1.2170  0.3290 -0.5671
16616TIP3    H271340   1.466   0.931  15.166  0.6577  0.0803 -0.2407
16617TIP3   OH271341   4.605   4.206   6.316 -0.4301 -0.0132  0.0256
16617TIP3    H171342   4.533   4.228   6.257  0.4283 -0.4671 -1.2360
16617TIP3    H271343   4.654   4.288   6.325 -0.7585  0.1455  0.4056
16618TIP3   OH271344   1.581   5.829   2.451 -0.0173 -0.2219  0.0943
16618TIP3    H171345   1.559   5.775   2.527 -1.2833 -0.7868 -0.6394
16618TIP3    H271346   1.601   5.766   2.382 -0.7658  0.2393 -0.5618
16619TIP3   OH271347   4.882   5.303   0.423  0.5343  0.2692 -0.4821
16619TIP3    H171348   4.972   5.327   0.401  1.0498 -2.2852 -1.5062
16619TIP3    H271349   4.868   5.340   0.510  2.8244  0.1660  0.0026
16620TIP3   OH271350   3.251   2.163  12.026 -0.4524 -0.3320 -0.2549
16620TIP3    H171351   3.244   2.253  11.995 -0.3516  0.9006  2.9055
16620TIP3    H271352   3.345   2.145  12.028 -0.3552  0.1938  0.7467
16621TIP3   OH271353   1.368   6.097  14.805 -0.0036 -0.0023 -0.3191
16621TIP3    H171354   1.445   6.046  14.832 -1.2645 -2.2676 -0.7617
16621TIP3    H271355   1.298   6.068  14.864 -0.7755  1.2654 -0.5835
16622TIP3   OH271356   2.949   1.906  14.638 -0.6111 -0.0084  0.7486
16622TIP3    H171357   2.858   1.876  14.643 -0.6000  0.0281  1.2774
16622TIP3    H271358   2.943   1.995  14.603 -0.6411 -0.6152 -0.8668
16623TIP3   OH271359   3.788   4.644  14.567  0.0081 -0.2322 -0.1091
16623TIP3    H171360   3.797   4.549  14.568 -1.8710 -0.5111 -1.9943
16623TIP3    H271361   3.871   4.675  14.530  0.4263 -1.1724 -0.0057
16624TIP3   OH271362   4.383   4.846  15.692  0.0644  0.3993  0.1199
16624TIP3    H171363   4.453   4.869  15.631  0.3333 -1.5160 -0.3585
16624TIP3    H271364   4.303   4.853  15.641  0.3495 -1.9813 -0.7991
16625TIP3   OH271365   1.613   4.029   0.935 -0.4416  0.1672  0.4636
16625TIP3    H171366   1.565   4.053   0.855  0.0575 -1.8600 -0.5004
16625TIP3    H271367   1.546   4.000   0.996 -0.6607 -0.4772 -0.0699
16626TIP3   OH271368   0.153   4.807   1.825  0.2799 -0.5700 -0.2517
16626TIP3    H171369   0.166   4.795   1.919  1.1893  1.5101 -0.0705
16626TIP3    H271370   0.231   4.853   1.795 -1.0449  0.9371 -1.5832
16627TIP3   OH271371   5.802   5.078   1.365 -0.0322 -0.8394  0.5866
16627TIP3    H171372   5.750   5.153   1.393  0.2928 -0.8562  1.2391
16627TIP3    H271373   5.876   5.074   1.426 -1.1604 -2.9723  1.9345
16628TIP3   OH271374   0.247   0.582  16.859  0.1447 -0.5610  0.3158
16628TIP3    H171375   0.310   0.621  16.799 -0.1018 -0.0166  0.4092
16628TIP3    H271376   0.246   0.489  16.835 -0.1865 -0.2975 -0.7477
16629TIP3   OH271377   1.648   4.769   5.250  0.4759 -0.3806  0.2717
16629TIP3    H171378   1.644   4.840   5.186  1.0868  0.7063  1.4027
16629TIP3    H271379   1.740   4.762   5.273  0.3090 -0.9756  0.7911
16630TIP3   OH271380   1.502   4.601   2.587  0.3301 -0.0101 -0.1825
16630TIP3    H171381   1.578   4.564   2.542  1.2487  1.9953 -0.3908
16630TIP3    H271382   1.502   4.558   2.673  0.7072 -1.2304 -0.7776
16631TIP3   OH271383   6.256   2.743  13.766  0.1348  0.4345  0.1235
16631TIP3    H171384   6.166   2.726  13.739  0.0493  1.4715 -0.2812
16631TIP3    H271385   6.249   2.793  13.847  0.3040  1.6014 -0.5571
16632TIP3   OH271386   1.489   3.990   3.267 -0.1191  0.5062  0.4896
16632TIP3    H171387   1.512   3.909   3.312  1.9535  0.6207 -0.2495
16632TIP3    H271388   1.395   3.983   3.251 -0.0794 -1.5053  0.8952
16633TIP3   OH271389   0.491   3.257   2.288  0.3151  0.6100 -0.1367
16633TIP3    H171390   0.468   3.283   2.199 -2.6928 -0.1731  0.2993
16633TIP3    H271391   0.513   3.164   2.282  0.8934  0.7479 -0.1740
16634TIP3   OH271392   2.314   0.430  16.859 -0.4673 -0.0936  0.4661
16634TIP3    H171393   2.408   0.408  16.858 -0.3388  0.0512  2.7932
16634TIP3    H271394   2.311   0.524  16.839 -0.0101  0.1126  1.3236
16635TIP3   OH271395   0.677   0.393  11.631  0.4704 -0.3364 -0.0009
16635TIP3    H171396   0.664   0.406  11.537  0.9478 -1.5731 -0.2641
16635TIP3    H271397   0.771   0.377  11.640  0.1470 -2.2578  0.3847
16636TIP3   OH271398   3.011   1.850  17.072 -0.8063  0.1317 -0.5281
16636TIP3    H171399   3.085   1.884  17.020 -0.7000  0.5787 -0.0936
16636TIP3    H271400   2.934   1.870  17.019 -0.6360 -0.1116 -0.8714
16637TIP3   OH271401   1.790   3.633  15.229  0.0857 -0.1784 -0.2631
16637TIP3    H171402   1.787   3.633  15.325  1.2942  1.8107 -0.1446
16637TIP3    H271403   1.864   3.576  15.207 -0.8850 -1.5288 -0.0941
16638TIP3   OH271404   5.414   0.003   4.222  0.1810  0.9030 -0.1065
16638TIP3    H171405   5.402   0.059   4.145  0.8646 -1.3095 -1.9323
16638TIP3    H271406   5.340  -0.059   4.218  1.0596 -0.1879  0.0891
16639TIP3   OH271407   2.850   3.010   1.868 -0.1552  0.4898 -0.0711
16639TIP3    H171408   2.767   2.960   1.868  0.0612 -0.0586  2.9147
16639TIP3    H271409   2.915   2.948   1.835 -0.3988 -0.2575  0.8084
16640TIP3   OH271410   5.032   1.020  13.620 -0.4304  0.1146  0.2929
16640TIP3    H171411   5.104   1.018  13.683 -0.7758 -0.0901  0.6884
16640TIP3    H271412   5.001   1.111  13.621 -0.3044  0.1571  0.2716
16641TIP3   OH271413   1.731   3.162  16.352  0.1530 -0.2808 -0.7608
16641TIP3    H171414   1.666   3.130  16.290 -0.4236  0.2786 -0.4629
16641TIP3    H271415   1.783   3.225  16.301 -0.7862  0.7331 -0.5126
16642TIP3   OH271416   6.040   5.848   2.849 -0.2829 -1.2044 -0.2219
16642TIP3    H171417   6.133   5.851   2.870 -0.7971  1.5578  2.3243
16642TIP3    H271418   5.998   5.817   2.929 -1.6849 -0.7212 -0.7297
16643TIP3   OH271419   6.395   2.203  11.018 -0.3302 -0.1901  0.1320
16643TIP3    H171420   6.448   2.178  10.943 -0.5962  1.6388 -0.7212
16643TIP3    H271421   6.395   2.299  11.016 -2.4305 -0.1323  0.9764
16644TIP3   OH271422   6.306   2.718   2.563 -0.0799 -0.1916 -0.6592
16644TIP3    H171423   6.332   2.726   2.655 -1.3128 -0.6926 -0.2381
16644TIP3    H271424   6.361   2.780   2.517 -0.5093  1.2235  0.6448
16645TIP3   OH271425   0.455   1.161   5.603 -0.0076  0.0993 -0.2502
16645TIP3    H171426   0.371   1.140   5.561  0.3399  0.2982 -1.0761
16645TIP3    H271427   0.491   1.077   5.629 -1.1892  0.1157  1.5921
16646TIP3   OH271428   3.861   0.920   5.885  0.1721  0.0053  0.1612
16646TIP3    H171429   3.929   0.985   5.872  2.6212 -2.4827 -0.5295
16646TIP3    H271430   3.868   0.862   5.808  0.3025 -2.8079  2.1339
16647TIP3   OH271431   4.711   0.462  16.908  0.0639 -0.6871  0.4642
16647TIP3    H171432   4.690   0.412  16.830 -1.9047 -0.4696  0.7747
16647TIP3    H271433   4.700   0.400  16.980 -1.2309 -0.1714  0.7569
16648TIP3   OH271434   4.865   1.946  12.248  0.0309 -0.0893 -0.2597
16648TIP3    H171435   4.938   1.929  12.307  0.1611  0.8175 -0.1370
16648TIP3    H271436   4.904   1.993  12.174 -0.4209  0.3933 -0.1965
16649TIP3   OH271437   6.622   5.471   1.122  0.5860 -0.3236  0.3128
16649TIP3    H171438   6.580   5.551   1.090  2.5121  0.0741 -1.4063
16649TIP3    H271439   6.602   5.405   1.055  0.7287 -0.7538  0.6864
16650TIP3   OH271440   5.103   4.802  13.402 -0.6260 -0.3133  0.0249
16650TIP3    H171441   5.143   4.842  13.480  0.7278 -0.5052 -0.5480
16650TIP3    H271442   5.124   4.863  13.331 -2.3774  0.1725 -0.1103
16651TIP3   OH271443   5.103   2.114   3.724  0.0527  0.4884  0.1744
16651TIP3    H171444   5.085   2.048   3.791  0.3114  0.0053 -0.2276
16651TIP3    H271445   5.162   2.071   3.663  0.9861  1.3955  0.4024
16652TIP3   OH271446   5.473   6.545   1.365 -0.5335 -0.4621 -0.7274
16652TIP3    H171447   5.558   6.522   1.325  0.2350  0.4218  0.3450
16652TIP3    H271448   5.464   6.639   1.350  1.2269  0.6435  3.5606
16653TIP3   OH271449   3.016   5.788   1.154 -0.2438 -0.5328  0.1735
16653TIP3    H171450   2.991   5.743   1.235  0.3699 -0.7934  0.2292
16653TIP3    H271451   3.091   5.842   1.179  1.0540 -1.9086 -0.5604
16654TIP3   OH271452   2.069   4.796   4.764  0.1305 -0.6263 -0.0272
16654TIP3    H171453   2.005   4.775   4.696  0.2580 -0.7360 -0.1155
16654TIP3    H271454   2.021   4.848   4.828 -0.1307 -0.9836  0.0711
16655TIP3   OH271455   2.832   6.477  13.262 -0.6818  0.1731 -0.3838
16655TIP3    H171456   2.849   6.523  13.344  1.0416 -1.0201 -0.0143
16655TIP3    H271457   2.911   6.491  13.209 -1.0698 -0.4760 -1.1613
16656TIP3   OH271458   0.938   4.779   1.964  0.4155 -0.1451 -0.2895
16656TIP3    H171459   1.031   4.759   1.975  0.0895 -0.8145  1.6864
16656TIP3    H271460   0.935   4.843   1.893  2.4546  0.4877  0.1319
16657TIP3   OH271461   3.054   5.811  14.774  0.4955 -0.2759 -0.5226
16657TIP3    H171462   3.003   5.731  14.763 -0.8237  0.7938 -2.8840
16657TIP3    H271463   3.143   5.780  14.792 -0.2225 -2.2294 -0.0915
16658TIP3   OH271464   5.996   0.969  17.050  0.4102  0.2510 -0.2255
16658TIP3    H171465   6.048   0.959  16.970  0.3742  2.0086 -0.5139
16658TIP3    H271466   5.933   0.897  17.047  2.4141 -1.6008 -0.1484
16659TIP3   OH271467   0.886   6.371  14.532  0.5682 -0.2921  0.2756
16659TIP3    H171468   0.821   6.324  14.584  1.0016 -1.3089 -0.0816
16659TIP3    H271469   0.845   6.379  14.445  1.2560 -1.7564 -0.2178
16660TIP3   OH271470   2.342   0.342   4.441 -0.1733  0.1255  0.2879
16660TIP3    H171471   2.434   0.370   4.447 -0.2518  0.3495  0.4569
16660TIP3    H271472   2.343   0.273   4.375 -0.0291  0.7672 -0.3984
16661TIP3   OH271473   2.923   1.143   1.235 -0.4594 -0.4946  0.3175
16661TIP3    H171474   3.016   1.121   1.240 -0.0721  0.5217 -1.4620
16661TIP3    H271475   2.898   1.119   1.146 -2.2166 -1.7967  1.1075
16662TIP3   OH271476   4.172   3.572  16.161 -0.1929 -0.3111  0.7284
16662TIP3    H171477   4.134   3.518  16.092 -1.6916  2.1049 -0.4859
16662TIP3    H271478   4.106   3.639  16.178  1.3777  0.9166  2.4198
16663TIP3   OH271479   3.152   3.179  11.790 -0.7361 -0.1735  0.2230
16663TIP3    H171480   3.232   3.126  11.782  0.1383  1.1313  0.0456
16663TIP3    H271481   3.108   3.145  11.868  0.2310 -0.5930  0.6012
16664TIP3   OH271482   6.556   6.747  14.530  0.2807  0.4397 -0.6161
16664TIP3    H171483   6.471   6.717  14.499  0.9166 -0.7893 -1.2352
16664TIP3    H271484   6.580   6.685  14.599  0.4003  1.1548 -0.0016
16665TIP3   OH271485   1.431   6.456  13.963 -0.3579  0.1524 -0.2420
16665TIP3    H171486   1.462   6.452  13.873  0.4056 -0.8381  0.0561
16665TIP3    H271487   1.498   6.412  14.014 -1.4944 -0.6374  0.6281
16666TIP3   OH271488   4.435   5.247   0.467 -0.8053  0.1816 -0.3557
16666TIP3    H171489   4.356   5.298   0.488 -1.4800 -1.1856  0.5235
16666TIP3    H271490   4.415   5.158   0.495  0.5232 -0.5052 -1.4632
16667TIP3   OH271491   0.559   5.343   3.137  0.1267  0.2306  0.0503
16667TIP3    H171492   0.529   5.265   3.091  1.2160 -0.2919  0.1940
16667TIP3    H271493   0.635   5.373   3.087 -1.1541  2.1114 -0.8962
16668TIP3   OH271494   0.389   1.247  14.477  0.1900 -0.1128 -0.2287
16668TIP3    H171495   0.436   1.200  14.409  1.6424  0.0264  0.6279
16668TIP3    H271496   0.368   1.332  14.437  1.0384 -0.0262 -0.5205
16669TIP3   OH271497   6.049   4.019  14.223 -0.2818  0.4116  0.0141
16669TIP3    H171498   6.106   4.011  14.299 -1.0677 -1.0454  0.4726
16669TIP3    H271499   6.013   3.932  14.210 -1.8432  1.1223 -0.7086
16670TIP3   OH271500   0.649   5.264   3.733  0.3376 -0.0727 -0.1538
16670TIP3    H171501   0.559   5.278   3.704  0.0512  0.4643  0.9467
16670TIP3    H271502   0.702   5.282   3.655 -0.4358  0.8023 -0.5059
16671TIP3   OH271503   3.180   2.908  12.920  0.2920  0.2701 -0.1294
16671TIP3    H171504   3.230   2.974  12.871  1.0007 -0.6093 -0.6333
16671TIP3    H271505   3.244   2.870  12.980 -0.3199  0.6061  0.7572
16672TIP3   OH271506   3.996   5.542   4.366  0.3672 -0.9931 -0.2292
16672TIP3    H171507   3.971   5.483   4.437  1.4749  1.6000  2.5164
16672TIP3    H271508   4.076   5.504   4.330 -0.8811 -3.0069 -1.0487
16673TIP3   OH271509   6.546   4.237  11.915  0.2733 -0.0494  0.3111
16673TIP3    H171510   6.479   4.182  11.875  0.1497 -1.1389  1.9098
16673TIP3    H271511   6.627   4.212  11.870  0.2871 -1.8838  1.2511
16674TIP3   OH271512   0.835   5.042  11.785 -0.0951  0.0017 -0.5742
16674TIP3    H171513   0.888   4.973  11.826 -1.5056  0.8756  3.1642
16674TIP3    H271514   0.747   5.006  11.781 -0.5918  1.0894  0.1921
16675TIP3   OH271515   5.079   0.158  14.469  0.3867  0.4372  0.3087
16675TIP3    H171516   5.029   0.200  14.400  0.8643  0.7062  0.1196
16675TIP3    H271517   5.030   0.175  14.549  1.3536  2.7364  0.4821
16676TIP3   OH271518   1.418   3.507   1.405 -0.0737 -0.0844 -0.6665
16676TIP3    H171519   1.481   3.436   1.394 -0.5167 -0.6866  0.4562
16676TIP3    H271520   1.422   3.556   1.323  0.2494 -1.4055 -1.4725
16677TIP3   OH271521   5.071   0.242   1.245 -0.1669 -0.1585 -0.0191
16677TIP3    H171522   5.094   0.305   1.177  0.2926 -1.5245 -1.1903
16677TIP3    H271523   5.100   0.282   1.327 -1.2536  1.7848 -0.5336
16678TIP3   OH271524   5.085   1.542   2.784  0.5214  0.4300  0.1242
16678TIP3    H171525   5.178   1.546   2.762  0.7445 -2.2694  0.2449
16678TIP3    H271526   5.075   1.458   2.830 -1.9855  0.6289  0.0610
16679TIP3   OH271527   5.746   2.171   1.643  0.0422 -0.0387 -0.3133
16679TIP3    H171528   5.688   2.182   1.718  0.5915  0.4769  0.0419
16679TIP3    H271529   5.792   2.255   1.635  1.9060 -0.9400  0.3957
16680TIP3   OH271530   0.698   6.045   5.508  0.3545  0.3361 -0.0388
16680TIP3    H171531   0.729   5.989   5.437 -1.0673  1.0922 -1.3004
16680TIP3    H271532   0.765   6.113   5.516 -0.6910  1.7607 -2.4956
16681TIP3   OH271533   2.897   5.249  16.321 -0.3562 -0.1745  0.3094
16681TIP3    H171534   2.982   5.269  16.360  0.1140 -0.6882 -0.4298
16681TIP3    H271535   2.854   5.194  16.386 -0.1255  0.0717  0.6790
16682TIP3   OH271536   6.577   4.397  11.076  0.4582  0.0235  0.0293
16682TIP3    H171537   6.507   4.354  11.026 -0.5990  0.0157  1.4265
16682TIP3    H271538   6.580   4.486  11.043  0.8621 -0.3900 -1.0965
16683TIP3   OH271539   0.142   4.119  13.658  0.2406  0.0085  0.1407
16683TIP3    H171540   0.157   4.208  13.691  2.8370 -0.3744  0.2062
16683TIP3    H271541   0.218   4.069  13.689 -0.8957 -2.1289 -0.3408
16684TIP3   OH271542   3.032   4.839  15.188  0.5585  0.1314 -0.0483
16684TIP3    H171543   2.946   4.878  15.169  0.8778  0.4760 -0.8099
16684TIP3    H271544   3.074   4.902  15.247  0.9622  0.8263 -1.0534
16685TIP3   OH271545   3.462   4.041   6.089  0.0681  0.4549  0.0578
16685TIP3    H171546   3.399   4.100   6.047  0.0376  1.1343  1.0146
16685TIP3    H271547   3.519   4.099   6.139  2.2165 -0.0275 -1.6781
16686TIP3   OH271548   3.872   0.625   1.243 -0.0322  0.6211  0.2973
16686TIP3    H171549   3.859   0.555   1.307  0.1452  0.1845 -0.1365
16686TIP3    H271550   3.955   0.665   1.268  1.2174 -1.0208 -0.9725
16687TIP3   OH271551   4.645   4.015   6.025 -0.2720 -0.1130  0.0827
16687TIP3    H171552   4.556   4.049   6.035  0.0515  0.6477  0.4112
16687TIP3    H271553   4.699   4.091   6.004  0.5420 -0.3194  1.3085
16688TIP3   OH271554   2.831   4.218  15.011 -0.1355  0.7064 -0.5896
16688TIP3    H171555   2.875   4.182  14.934  1.0101 -0.1381  0.4161
16688TIP3    H271556   2.840   4.313  15.002 -1.1733  0.6921 -2.1237
16689TIP3   OH271557   0.432   3.640  12.950 -0.3561 -0.6186  0.4469
16689TIP3    H171558   0.523   3.610  12.938 -0.1155  0.6786 -1.3981
16689TIP3    H271559   0.394   3.635  12.863 -0.6431  3.1373  0.1831
16690TIP3   OH271560   3.056   4.874   5.242 -0.0427 -0.3734 -0.0421
16690TIP3    H171561   3.126   4.865   5.306  1.3710 -0.4118 -1.5333
16690TIP3    H271562   3.028   4.784   5.223  1.1055 -0.5196 -1.1205
16691TIP3   OH271563   2.465   6.446   2.681  0.1030  0.2614 -0.0054
16691TIP3    H171564   2.456   6.484   2.769  0.4208 -0.0582  0.1677
16691TIP3    H271565   2.535   6.381   2.690 -0.0574  0.0269 -0.4309
16692TIP3   OH271566   4.593   5.468  16.441  0.1114 -0.2315  0.5907
16692TIP3    H171567   4.674   5.496  16.482 -0.1269  1.6816 -0.1155
16692TIP3    H271568   4.524   5.505  16.496 -0.2129  2.0735 -1.1708
16693TIP3   OH271569   0.612   5.231  11.486 -0.1347 -0.0010 -0.1413
16693TIP3    H171570   0.602   5.289  11.561 -1.6458 -0.7725  0.2813
16693TIP3    H271571   0.574   5.280  11.413  0.7163  0.4634 -0.2985
16694TIP3   OH271572   5.766   3.917   4.187 -0.3621 -0.2862  0.6542
16694TIP3    H171573   5.761   3.823   4.205  1.4173 -0.5333  0.0711
16694TIP3    H271574   5.703   3.956   4.247 -1.6221 -1.8981  0.4618
16695TIP3   OH271575   6.754   1.126  15.237 -0.3890 -0.0070 -0.0013
16695TIP3    H171576   6.830   1.171  15.201 -1.3140  1.4388 -0.2470
16695TIP3    H271577   6.690   1.124  15.165 -0.8758 -0.4841  0.4277
16696TIP3   OH271578   0.495   5.473  14.384  0.2513 -0.1027 -0.1087
16696TIP3    H171579   0.444   5.457  14.463  1.2193 -0.6233  0.4327
16696TIP3    H271580   0.512   5.567  14.385 -0.3835  0.0187 -0.1096
16697TIP3   OH271581   0.320   1.431   1.832  0.0160 -0.2689  0.3363
16697TIP3    H171582   0.378   1.502   1.803 -1.5238  1.4297  1.1623
16697TIP3    H271583   0.305   1.449   1.925 -1.6781 -0.7289  0.1842
16698TIP3   OH271584   1.642   0.389  15.020  0.0062 -0.3426 -0.6262
16698TIP3    H171585   1.606   0.478  15.014 -0.5385 -0.6351 -2.2267
16698TIP3    H271586   1.640   0.368  15.113 -1.7320  0.5598 -0.4284
16699TIP3   OH271587   5.255   0.382   5.070  0.1836 -0.1035  0.2979
16699TIP3    H171588   5.236   0.401   5.162  0.8364 -0.4526  0.5028
16699TIP3    H271589   5.288   0.465   5.035  1.4609 -0.3973  0.7817
16700TIP3   OH271590   1.847   3.840   0.356 -0.4580  0.5036  0.0840
16700TIP3    H171591   1.899   3.888   0.292  1.7244 -0.7918  0.8052
16700TIP3    H271592   1.900   3.842   0.436 -0.4268 -2.7100  0.2682
16701TIP3   OH271593   3.026   2.650   4.867 -0.0127  0.0583  0.3003
16701TIP3    H171594   2.977   2.605   4.937 -0.9459  1.7864  0.8330
16701TIP3    H271595   2.962   2.661   4.797  0.6232 -0.7176 -0.4111
16702TIP3   OH271596   1.713   4.019  15.872 -0.2807 -0.0164 -0.2076
16702TIP3    H171597   1.789   4.065  15.907 -0.1139  0.8264 -1.6245
16702TIP3    H271598   1.640   4.046  15.928  0.0631  0.9177 -0.2016
16703TIP3   OH271599   1.943   2.204   5.675 -0.4374 -0.2171  0.0686
16703TIP3    H171600   1.875   2.272   5.667 -0.2386 -0.2168 -2.3762
16703TIP3    H271601   1.986   2.223   5.758 -4.5708 -1.3566  2.7996
16704TIP3   OH271602   3.976   2.837  13.838 -0.5486  0.1196 -0.1540
16704TIP3    H171603   3.953   2.926  13.863  1.9243  0.8808 -0.3242
16704TIP3    H271604   4.020   2.846  13.753  0.4186 -1.1304  0.1705
16705TIP3   OH271605   4.148   3.912  14.879  0.4658 -0.0436 -0.1940
16705TIP3    H171606   4.087   3.849  14.839  0.6236 -0.2920 -0.0444
16705TIP3    H271607   4.129   3.995  14.835  0.4887 -0.2674 -0.6287
16706TIP3   OH271608   5.247   4.008   2.654  0.1434  0.1777  0.3639
16706TIP3    H171609   5.185   3.952   2.702  1.3258 -0.4263  1.2304
16706TIP3    H271610   5.213   4.009   2.565 -0.2606 -1.4401  0.4603
16707TIP3   OH271611   0.841   6.027  13.481 -0.3028  0.2346 -0.1467
16707TIP3    H171612   0.906   5.974  13.527  0.0732  0.7852 -0.0364
16707TIP3    H271613   0.891   6.099  13.444 -0.7626  0.3479 -0.5605
16708TIP3   OH271614   2.712   0.398   2.093  0.0917 -0.5967 -0.1335
16708TIP3    H171615   2.657   0.442   2.028  0.0170  0.1124  0.3957
16708TIP3    H271616   2.766   0.338   2.042  1.1567  1.0574 -1.0532
16709TIP3   OH271617   1.825   2.677   1.314  0.1967 -0.4106 -0.5655
16709TIP3    H171618   1.833   2.752   1.255  0.9426  0.7220  0.9310
16709TIP3    H271619   1.909   2.632   1.306  0.2677 -0.3023 -0.4328
16710TIP3   OH271620   3.863   4.640   3.956  0.0410  0.2674 -0.2184
16710TIP3    H171621   3.925   4.587   3.906  0.7814 -0.5535  1.4753
16710TIP3    H271622   3.797   4.666   3.892  2.3947  1.6951 -2.2797
16711TIP3   OH271623   6.097   3.792   5.485  0.6839 -0.4229 -0.4723
16711TIP3    H171624   6.014   3.829   5.453  0.6466  0.8425  0.9747
16711TIP3    H271625   6.128   3.855   5.550  0.4640 -3.0793  2.4433
16712TIP3   OH271626   3.932   1.227   2.969 -0.6076  0.6213  0.0357
16712TIP3    H171627   3.844   1.193   2.988 -0.6949 -0.6818 -2.3538
16712TIP3    H271628   3.985   1.149   2.953 -0.0085  1.4432 -2.3969
16713TIP3   OH271629   0.642   6.800  10.989  0.0570 -0.1491  0.1905
16713TIP3    H171630   0.633   6.895  10.998  0.2691  0.0766 -1.5127
16713TIP3    H271631   0.734   6.782  11.009 -0.2186 -0.1541  1.5145
16714TIP3   OH271632   0.237   4.846   3.903 -0.3528  0.2945  0.1171
16714TIP3    H171633   0.275   4.911   3.843 -0.4662 -0.5722 -0.9139
16714TIP3    H271634   0.311   4.813   3.953 -0.4518  2.0857  1.5480
16715TIP3   OH271635   2.132   3.224  16.231 -0.3011  0.2108 -0.1459
16715TIP3    H171636   2.150   3.307  16.186 -0.6934  0.2054 -0.3108
16715TIP3    H271637   2.093   3.250  16.315 -0.1695  0.1991 -0.0806
16716TIP3   OH271638   2.770   3.978  12.006  0.4485 -0.5163  0.9620
16716TIP3    H171639   2.748   3.942  12.092 -0.3000  1.9121  1.8904
16716TIP3    H271640   2.844   4.037  12.023  1.8649 -1.7557 -0.5392
16717TIP3   OH271641   2.484   1.751   0.390 -0.0184 -0.3021  0.0892
16717TIP3    H171642   2.536   1.790   0.461 -0.3528 -0.0519  0.2034
16717TIP3    H271643   2.546   1.697   0.342  0.0647 -1.0264  0.9828
16718TIP3   OH271644   6.126   0.858  16.818  0.2672  0.2894 -0.1486
16718TIP3    H171645   6.210   0.817  16.840 -0.8469 -1.1552  1.6119
16718TIP3    H271646   6.075   0.788  16.777 -0.2747  1.0274 -0.7687
16719TIP3   OH271647   0.153   6.350  15.290  0.2687 -0.4558  0.2359
16719TIP3    H171648   0.187   6.359  15.379  1.0527 -1.4845  0.0541
16719TIP3    H271649   0.169   6.259  15.267 -2.2823 -0.9202 -0.0228
16720TIP3   OH271650   4.381   6.701   2.210  0.1553  0.1464 -0.0733
16720TIP3    H171651   4.369   6.795   2.227  0.1198 -0.0558  1.0304
16720TIP3    H271652   4.360   6.658   2.293  0.4750 -0.8239 -0.4823
16721TIP3   OH271653   2.169   1.159  14.092  0.9368 -0.0100  0.7794
16721TIP3    H171654   2.148   1.088  14.031  1.0584  1.0566 -0.5368
16721TIP3    H271655   2.224   1.218  14.041 -0.0968  1.6097  1.4853
16722TIP3   OH271656   0.946   3.700   3.784 -0.0780 -0.2324 -0.6250
16722TIP3    H171657   0.914   3.617   3.750  1.1078 -0.3327 -1.5561
16722TIP3    H271658   0.876   3.763   3.765  0.0608 -0.5222 -2.2537
16723TIP3   OH271659   5.651   2.815  14.265 -0.1511 -0.5904 -0.1240
16723TIP3    H171660   5.687   2.830  14.177 -1.0865 -0.5653 -0.5144
16723TIP3    H271661   5.688   2.885  14.319  0.4424 -0.6139 -0.4881
16724TIP3   OH271662   3.678   3.757  17.119  0.0201 -0.0067 -0.4442
16724TIP3    H171663   3.755   3.715  17.159 -0.6197 -0.1264  0.7126
16724TIP3    H271664   3.642   3.689  17.062  0.7519  0.0460 -0.9926
16725TIP3   OH271665   0.499   5.927  14.495  0.6578  0.0194 -0.0188
16725TIP3    H171666   0.576   5.874  14.472  0.8184  0.0813  0.3643
16725TIP3    H271667   0.433   5.863  14.520  1.1919  0.0112  1.4875
16726TIP3   OH271668   1.768   2.464  16.878 -0.2402 -0.5046 -0.4439
16726TIP3    H171669   1.746   2.553  16.853 -0.8528 -0.5024  0.0857
16726TIP3    H271670   1.742   2.411  16.802 -1.9112 -0.4784  0.0762
16727TIP3   OH271671   3.583   3.925   2.103  0.5315 -0.5829 -0.4861
16727TIP3    H171672   3.516   3.877   2.150  1.7571 -2.9928 -1.0367
16727TIP3    H271673   3.608   3.997   2.162 -1.2036 -0.7297  0.4749
16728TIP3   OH271674   0.069   1.509   4.502 -0.8476  0.1467  0.3622
16728TIP3    H171675   0.115   1.583   4.462  0.1804 -1.1904 -1.0821
16728TIP3    H271676  -0.022   1.520   4.475 -0.8755  1.3530  0.9166
16729TIP3   OH271677   1.668   2.739  13.591 -0.1154 -0.0663  0.2267
16729TIP3    H171678   1.672   2.737  13.686  0.2011  0.8095  0.2391
16729TIP3    H271679   1.681   2.648  13.564  0.8874 -0.1636  0.9834
16730TIP3   OH271680   1.161   5.104   4.544  0.4787  0.2632  0.1859
16730TIP3    H171681   1.250   5.088   4.513  0.4872  1.0401 -0.2220
16730TIP3    H271682   1.145   5.196   4.522 -0.5517  0.0284 -0.0572
16731TIP3   OH271683   2.231   6.650  16.330  0.2795 -0.1007  0.7138
16731TIP3    H171684   2.248   6.568  16.375  0.4289 -1.0560 -1.0214
16731TIP3    H271685   2.247   6.632  16.238 -3.7897  0.6134 -0.3577
16732TIP3   OH271686   2.701   3.901   4.782 -0.0888 -0.2481 -0.0266
16732TIP3    H171687   2.672   3.831   4.840  0.2831  0.6664  1.3131
16732TIP3    H271688   2.680   3.982   4.829  3.5594  0.5172  0.5971
16733TIP3   OH271689   4.555   3.000   1.741 -0.1547  0.0446 -0.5431
16733TIP3    H171690   4.461   2.998   1.723 -0.2546  1.4410 -0.2634
16733TIP3    H271691   4.565   2.950   1.822 -0.6613 -0.0506 -0.5359
16734TIP3   OH271692   1.719   6.668  14.343  0.4060  0.2438 -0.3439
16734TIP3    H171693   1.773   6.671  14.421  0.0466 -0.0157 -0.0861
16734TIP3    H271694   1.781   6.681  14.271  1.0499 -1.5848 -0.1609
16735TIP3   OH271695   4.337   2.963  11.764  0.6654  0.0335 -0.3811
16735TIP3    H171696   4.425   2.931  11.747  0.1370 -1.4655 -0.4584
16735TIP3    H271697   4.327   3.039  11.706  2.0477  0.5399 -0.0061
16736TIP3   OH271698   3.783   4.144  16.781  0.0156 -0.3313  0.0985
16736TIP3    H171699   3.736   4.103  16.854  0.6820  1.6100  1.7010
16736TIP3    H271700   3.860   4.088  16.768  0.1269 -0.4596  1.2056
16737TIP3   OH271701   4.548   4.894   2.252 -0.1118 -0.1099  0.4926
16737TIP3    H171702   4.629   4.851   2.226  0.2469  0.5243  0.5452
16737TIP3    H271703   4.536   4.964   2.187  0.0353  0.5782  1.1900
16738TIP3   OH271704   1.503   1.278  16.869  0.3788 -0.3812 -0.1632
16738TIP3    H171705   1.497   1.311  16.958  1.8244 -0.3176 -0.0731
16738TIP3    H271706   1.514   1.183  16.879  1.6531 -0.2514 -0.2167
16739TIP3   OH271707   3.755   2.240   5.774  0.4742 -0.1606 -0.4295
16739TIP3    H171708   3.808   2.258   5.697  2.0340  0.6538  0.7718
16739TIP3    H271709   3.746   2.325   5.817 -1.4583 -0.3698 -0.3493
16740TIP3   OH271710   3.612   2.125   4.612  0.0033 -0.6077 -0.2028
16740TIP3    H171711   3.668   2.127   4.534 -0.4254  1.0263 -0.5072
16740TIP3    H271712   3.541   2.066   4.590 -0.4890  0.3661 -1.3580
16741TIP3   OH271713   1.837   4.174  11.481 -0.8280 -0.4132  0.5834
16741TIP3    H171714   1.921   4.201  11.446 -0.6002 -1.6320  0.1655
16741TIP3    H271715   1.819   4.237  11.551 -0.6561  1.2439 -0.7949
16742TIP3   OH271716   1.799   3.962  13.526 -0.2257  0.5501 -0.1240
16742TIP3    H171717   1.817   3.869  13.541 -0.8472  0.2252 -1.2810
16742TIP3    H271718   1.881   4.006  13.546  0.2896 -0.3279 -0.2626
16743TIP3   OH271719   6.283   1.647  15.106  0.0594  0.0672 -0.2583
16743TIP3    H171720   6.378   1.653  15.112  0.0671  0.0700 -0.3842
16743TIP3    H271721   6.267   1.575  15.045 -0.0214 -0.2747  0.1653
16744TIP3   OH271722   5.966   5.047   2.314  0.0357  0.3473 -0.0592
16744TIP3    H171723   6.015   5.004   2.245  1.0100  1.3519 -0.0185
16744TIP3    H271724   5.962   5.139   2.288  1.2309  0.9413  1.6173
16745TIP3   OH271725   1.912   5.096   1.833 -0.1475  0.1426  0.1585
16745TIP3    H171726   1.917   5.032   1.904 -2.2516  0.0423  0.2871
16745TIP3    H271727   1.965   5.169   1.863  0.6188 -0.7010  0.9322
16746TIP3   OH271728   6.268   0.498   1.990  0.6172  0.8765  0.4560
16746TIP3    H171729   6.193   0.443   2.012  1.2719 -0.0900  0.3379
16746TIP3    H271730   6.340   0.464   2.044  1.6766 -0.0717 -1.4587
16747TIP3   OH271731   2.134   6.293   5.545  0.5941  0.0163  0.2318
16747TIP3    H171732   2.186   6.356   5.495  0.8269 -0.5438 -0.2505
16747TIP3    H271733   2.044   6.325   5.539  0.5514 -0.2857 -0.9499
16748TIP3   OH271734   0.110   4.215  13.386 -0.0658 -0.1575  0.2446
16748TIP3    H171735   0.175   4.185  13.322 -0.8370  0.5527 -0.9022
16748TIP3    H271736   0.145   4.186  13.470  0.9294 -1.2026 -0.4927
16749TIP3   OH271737   3.273   3.669  12.756 -0.3181  0.1647  0.2097
16749TIP3    H171738   3.229   3.750  12.779 -0.0241  0.6737 -0.9477
16749TIP3    H271739   3.293   3.627  12.840 -2.8829 -0.0541  0.7929
16750TIP3   OH271740   2.155   4.133   0.580  0.6866 -0.2507 -0.7372
16750TIP3    H171741   2.211   4.188   0.635  1.4112 -0.4038 -1.3120
16750TIP3    H271742   2.171   4.164   0.491 -1.4224  0.8622 -0.8099
16751TIP3   OH271743   2.471   5.233   0.935 -0.3115  0.7809  0.3484
16751TIP3    H171744   2.503   5.283   1.010  0.5868 -0.3615  0.7634
16751TIP3    H271745   2.488   5.288   0.859 -1.2682  1.9766  0.9761
16752TIP3   OH271746   1.698   0.140  10.646 -0.3099  0.1219  0.1513
16752TIP3    H171747   1.753   0.063  10.636  0.2777  0.4406  0.8104
16752TIP3    H271748   1.698   0.157  10.740 -1.2627  0.3330  0.1207
16753TIP3   OH271749   5.882   2.262  17.194  0.4861 -0.2162  0.0665
16753TIP3    H171750   5.835   2.319  17.133  0.5244  0.5701  0.7653
16753TIP3    H271751   5.820   2.246  17.265  1.5699  1.6564  1.5031
16754TIP3   OH271752   6.347   2.872   4.272 -0.0768 -0.0070  0.1542
16754TIP3    H171753   6.325   2.856   4.364 -2.0348 -0.7569 -0.4033
16754TIP3    H271754   6.302   2.953   4.249  0.6211  0.3223 -0.0998
16755TIP3   OH271755   5.030   3.501   4.359  0.5640 -0.2131 -0.2915
16755TIP3    H171756   4.962   3.526   4.421  0.7899 -0.3517  0.0152
16755TIP3    H271757   5.003   3.541   4.276  1.9246  2.8218  0.5787
16756TIP3   OH271758   0.580   2.832   5.677 -0.2949  0.0083  0.3049
16756TIP3    H171759   0.662   2.832   5.628  0.2818 -1.3027  1.2080
16756TIP3    H271760   0.606   2.858   5.766 -1.0938  0.9526  0.2809
16757TIP3   OH271761   5.177   0.781  13.842 -0.5320  0.4823  0.0873
16757TIP3    H171762   5.233   0.851  13.809  0.0301  0.6059  1.2651
16757TIP3    H271763   5.164   0.802  13.934 -1.0918 -0.4902  0.2468
16758TIP3   OH271764   4.464   4.222  14.250  0.2974 -0.1115 -0.5207
16758TIP3    H171765   4.441   4.167  14.325  0.1751  0.7311  0.0721
16758TIP3    H271766   4.555   4.199  14.231  0.3511 -0.2904 -0.0739
16759TIP3   OH271767   3.147   5.041   0.478 -0.3018 -0.9525 -0.1936
16759TIP3    H171768   3.115   4.951   0.486 -2.4287 -0.2739 -0.3494
16759TIP3    H271769   3.159   5.054   0.384  0.0548 -1.0778 -0.1672
16760TIP3   OH271770   2.130   6.186   4.949  0.1921 -0.1568  0.2085
16760TIP3    H171771   2.099   6.234   5.025 -1.1862 -0.0927 -0.3566
16760TIP3    H271772   2.156   6.255   4.887  0.9210 -0.2007  0.4617
16761TIP3   OH271773   0.702   6.646  14.413  0.4148  0.8195 -0.2312
16761TIP3    H171774   0.609   6.670  14.412 -0.1240 -0.8162  1.9169
16761TIP3    H271775   0.707   6.567  14.359  0.4848  0.7026 -0.0542
16762TIP3   OH271776   4.712   2.149  13.449  0.1602 -0.1480 -0.2175
16762TIP3    H171777   4.796   2.150  13.404  0.2662  1.3407 -0.0462
16762TIP3    H271778   4.726   2.202  13.528 -0.4596 -1.3651  0.7503
16763TIP3   OH271779   6.100   1.134  15.470 -0.3174  0.3665 -0.1707
16763TIP3    H171780   6.008   1.144  15.448 -0.8053 -0.6357  1.3005
16763TIP3    H271781   6.117   1.040  15.464  0.4119  0.4535  0.2895
16764TIP3   OH271782   1.370   0.545   2.022  0.2567  0.0098 -0.1567
16764TIP3    H171783   1.321   0.489   2.082 -1.9277  1.8416 -0.1472
16764TIP3    H271784   1.399   0.485   1.952 -1.0883 -1.3206  0.3853
16765TIP3   OH271785   6.363   5.896  16.765  0.0745 -0.3436 -0.0526
16765TIP3    H171786   6.361   5.859  16.676 -0.2233 -0.7481  0.1221
16765TIP3    H271787   6.286   5.951  16.770 -0.0160 -0.4763  0.0219
16766TIP3   OH271788   4.184   4.091  15.205 -0.2174  0.4350  0.1578
16766TIP3    H171789   4.165   4.008  15.161 -1.7165  0.1389  1.2934
16766TIP3    H271790   4.259   4.071  15.262 -0.1180  0.0675 -0.0967
16767TIP3   OH271791   1.059   5.440  12.654  0.5514  0.4432 -0.1749
16767TIP3    H171792   1.081   5.485  12.736 -0.5785  2.3412 -0.8541
16767TIP3    H271793   1.106   5.489  12.587 -1.9034  1.6819 -1.1054
16768TIP3   OH271794   6.370   2.847   1.780  0.0119 -0.1330  0.3388
16768TIP3    H171795   6.345   2.862   1.689 -0.9351 -1.1484  0.4160
16768TIP3    H271796   6.457   2.807   1.775 -0.1362 -0.4063 -0.1368
16769TIP3   OH271797   0.587   3.749  12.669 -0.3292  0.1607  0.7488
16769TIP3    H171798   0.533   3.670  12.676  0.2396 -0.6006 -2.0778
16769TIP3    H271799   0.675   3.720  12.696 -0.5752  0.4628  1.9149
16770TIP3   OH271800   1.853   5.331   4.183 -0.3169 -0.1695  0.1370
16770TIP3    H171801   1.776   5.274   4.186  0.6790 -1.9312 -2.7767
16770TIP3    H271802   1.927   5.271   4.192  0.7659  1.2787  1.3127
16771TIP3   OH271803   2.954   6.575  10.806  0.2972  0.4354 -0.4971
16771TIP3    H171804   3.039   6.592  10.765  0.1339  1.2617 -0.5003
16771TIP3    H271805   2.950   6.636  10.879  0.4591 -0.8202  0.6122
16772TIP3   OH271806   6.367   0.658   3.440  0.5146 -0.1411 -0.6387
16772TIP3    H171807   6.299   0.595   3.466 -1.2348  2.1059  0.5765
16772TIP3    H271808   6.368   0.722   3.511  0.9126  2.1813 -2.6337
16773TIP3   OH271809   4.353   3.024   0.523 -0.0588  0.5668  0.0213
16773TIP3    H171810   4.358   2.933   0.553 -0.6605  1.0170  1.5680
16773TIP3    H271811   4.436   3.063   0.549 -0.0619  0.6334 -0.0663
16774TIP3   OH271812   3.157   2.553   2.623 -0.5258 -0.1968  0.0784
16774TIP3    H171813   3.086   2.562   2.686 -0.9441  1.2321 -0.5499
16774TIP3    H271814   3.235   2.581   2.670 -0.6656 -0.1042  0.2549
16775TIP3   OH271815   6.578   0.096   1.001 -0.5650  0.4416  0.0938
16775TIP3    H171816   6.507   0.131   1.055  0.6293  1.0457  1.3752
16775TIP3    H271817   6.632   0.173   0.981 -0.2287 -0.0111 -0.7644
16776TIP3   OH271818   2.235   2.027   0.667  0.1549  0.0761 -0.3089
16776TIP3    H171819   2.305   1.982   0.714 -0.5250 -0.9938 -0.2846
16776TIP3    H271820   2.212   1.967   0.596 -0.6009  0.5023 -0.4351
16777TIP3   OH271821   2.118   1.005  13.364 -0.6370 -0.5444  0.2461
16777TIP3    H171822   2.206   0.988  13.330 -0.6126 -0.6197  0.3430
16777TIP3    H271823   2.126   1.089  13.409 -0.8192 -0.1480 -0.4499
16778TIP3   OH271824   5.241   6.798   6.719  0.1960  0.1507  0.5735
16778TIP3    H171825   5.212   6.753   6.639  2.4852 -0.0140 -0.2455
16778TIP3    H271826   5.211   6.888   6.709  1.1911  0.3487 -0.9312
16779TIP3   OH271827   0.310   2.157   0.057 -0.4282  0.3460  0.7511
16779TIP3    H171828   0.335   2.202  -0.023 -1.6891  0.8547  0.6186
16779TIP3    H271829   0.245   2.214   0.098  1.6015  1.0789  3.1871
16780TIP3   OH271830   2.258   4.701  14.754  0.4336  0.2734  0.0495
16780TIP3    H171831   2.257   4.650  14.674 -0.0780 -0.4133  0.4827
16780TIP3    H271832   2.325   4.768  14.739 -1.5406  1.9488 -2.0416
16781TIP3   OH271833   2.284   4.978  16.490 -0.1121  0.0629  0.8090
16781TIP3    H171834   2.362   4.996  16.437  0.5966  0.5682  1.9832
16781TIP3    H271835   2.219   4.947  16.427  1.0794 -0.5101 -0.1786
16782TIP3   OH271836   3.879   6.344   4.347 -0.3821  0.0083  0.0370
16782TIP3    H171837   3.952   6.334   4.408 -2.7748 -0.9896  2.9786
16782TIP3    H271838   3.912   6.403   4.279  2.8460  0.2764  1.6655
16783TIP3   OH271839   6.059   5.493  13.387 -0.4392  0.5622  0.4326
16783TIP3    H171840   6.053   5.423  13.453 -2.5338 -1.2438 -1.5141
16783TIP3    H271841   6.007   5.564  13.423  0.1162  0.4238  1.5865
16784TIP3   OH271842   2.444   2.414  17.172 -0.0802 -0.3846 -0.1111
16784TIP3    H171843   2.459   2.404  17.078 -0.7894 -1.0995 -0.1618
16784TIP3    H271844   2.417   2.327  17.201  1.2913 -0.4818  0.9910
16785TIP3   OH271845   4.839   3.774  11.318 -0.1485 -0.5392 -0.0299
16785TIP3    H171846   4.820   3.682  11.341 -1.4504  0.1100  1.7541
16785TIP3    H271847   4.757   3.820  11.336  1.0101  1.2650  0.9186
16786TIP3   OH271848   1.480   5.417  12.888 -0.0950 -0.1857 -0.1390
16786TIP3    H171849   1.520   5.330  12.886  2.3505  0.8534  0.4024
16786TIP3    H271850   1.456   5.430  12.980 -0.5223 -0.3049 -0.2319
16787TIP3   OH271851   3.696   6.681   3.467 -0.2732  0.2297 -0.1702
16787TIP3    H171852   3.604   6.675   3.443 -0.1213 -2.1583 -0.3139
16787TIP3    H271853   3.744   6.670   3.385  0.1852  1.0922 -0.0417
16788TIP3   OH271854   3.242   6.169   5.022 -0.2536 -0.5918 -0.0043
16788TIP3    H171855   3.253   6.082   4.982  1.3810 -0.9779  1.1833
16788TIP3    H271856   3.323   6.216   5.000 -0.9288  0.4980 -0.2558
16789TIP3   OH271857   0.784   4.676  17.078 -0.1646  0.4929  0.7841
16789TIP3    H171858   0.765   4.741  17.010 -2.6274 -1.2926 -0.4222
16789TIP3    H271859   0.711   4.683  17.139 -0.0635 -0.5826  1.0572
16790TIP3   OH271860   3.236   1.779  15.705 -0.1035 -0.2816 -0.7993
16790TIP3    H171861   3.205   1.700  15.750  0.7868 -0.8045 -1.0580
16790TIP3    H271862   3.158   1.832  15.692 -0.6284 -0.8594 -0.0926
16791TIP3   OH271863   0.567   5.353   5.191 -0.8467  0.2095 -0.6409
16791TIP3    H171864   0.573   5.445   5.168 -0.6013  0.4297  0.2699
16791TIP3    H271865   0.539   5.353   5.283 -2.1338 -0.6325 -1.0039
16792TIP3   OH271866   5.699   0.540  12.008  0.0676 -0.0407 -0.2956
16792TIP3    H171867   5.739   0.580  11.930  0.4032  1.7506  0.7260
16792TIP3    H271868   5.768   0.486  12.046  0.4333  0.3646 -0.3744
16793TIP3   OH271869   1.855   0.027  17.201 -0.4123 -0.1549 -0.4083
16793TIP3    H171870   1.804   0.065  17.273 -2.5384 -0.4301 -1.6772
16793TIP3    H271871   1.853   0.094  17.133  0.9485 -0.1886 -0.5013
16794TIP3   OH271872   1.549   1.504   5.307 -0.7708 -0.0133  0.2008
16794TIP3    H171873   1.617   1.515   5.373  0.2938  2.9842 -1.1954
16794TIP3    H271874   1.584   1.436   5.249  0.4903  0.5837  0.2106
16795TIP3   OH271875   0.989   4.584   1.675  0.1178  0.0088 -0.2381
16795TIP3    H171876   0.968   4.511   1.732  1.3050  1.0285  1.6368
16795TIP3    H271877   0.905   4.626   1.657 -0.3056 -0.4288  0.6519
16796TIP3   OH271878   1.392   0.906  14.779 -0.0517 -0.2993  0.2964
16796TIP3    H171879   1.316   0.958  14.753 -0.3465 -1.1119 -0.5012
16796TIP3    H271880   1.355   0.832  14.827  0.2846 -0.3404  0.4938
16797TIP3   OH271881   2.880   6.093  16.047  0.4895 -0.0820  0.2545
16797TIP3    H171882   2.972   6.101  16.073  0.4376 -3.0785  1.8252
16797TIP3    H271883   2.832   6.144  16.112  0.9334  0.4682  0.1622
16798TIP3   OH271884   2.600   6.380   1.201  0.4827  0.2186 -0.4537
16798TIP3    H171885   2.634   6.421   1.280  3.2325 -0.7517 -1.0135
16798TIP3    H271886   2.620   6.442   1.131  0.0367  0.1315 -0.6629
16799TIP3   OH271887   2.534   4.465   0.659 -0.4737  0.5099  0.0692
16799TIP3    H171888   2.582   4.418   0.591 -2.0914  0.6714 -1.2620
16799TIP3    H271889   2.582   4.547   0.670  1.0252 -0.4205  0.7170
16800TIP3   OH271890   1.495   0.462   3.229  0.0217 -0.6543  0.4512
16800TIP3    H171891   1.518   0.495   3.142 -2.1029  0.0459  0.0889
16800TIP3    H271892   1.510   0.537   3.287  2.5069 -1.4486  0.9378
16801TIP3   OH271893   3.572   2.198   1.596 -0.4121  0.6687  0.1795
16801TIP3    H171894   3.617   2.114   1.599 -2.2838 -0.4887 -1.6241
16801TIP3    H271895   3.531   2.207   1.682 -1.1942 -0.8920 -0.0047
16802TIP3   OH271896   4.977   4.129   3.578  0.4655 -0.2927  0.0151
16802TIP3    H171897   4.926   4.067   3.526 -0.0635  1.0299 -1.1082
16802TIP3    H271898   5.055   4.147   3.524  0.7090 -0.1276  0.4171
16803TIP3   OH271899   0.656   1.991  15.555 -0.4553  0.1610  0.0284
16803TIP3    H171900   0.649   1.933  15.631 -1.8340 -0.5376 -0.5921
16803TIP3    H271901   0.567   1.999  15.522  0.0024  1.0505 -1.0893
16804TIP3   OH271902   0.734   0.089  11.456 -0.6025 -0.0337 -0.0109
16804TIP3    H171903   0.779   0.035  11.392  0.9293  1.1859 -0.0260
16804TIP3    H271904   0.684   0.152  11.404 -1.0631 -0.3901  0.0002
16805TIP3   OH271905   6.190   1.686  14.324  0.2146 -0.0538  0.0989
16805TIP3    H171906   6.202   1.689  14.419 -0.8650  0.3853  0.2368
16805TIP3    H271907   6.143   1.766  14.303  2.7993  1.2223 -1.2067
16806TIP3   OH271908   0.499   1.992   6.534 -0.4936  0.6753  0.5213
16806TIP3    H171909   0.514   1.898   6.548 -0.0145  0.6038 -0.3932
16806TIP3    H271910   0.409   1.998   6.504 -0.2047  0.3794 -0.4501
16807TIP3   OH271911   4.430   4.842   4.875  0.3514  0.2545 -0.3003
16807TIP3    H171912   4.388   4.926   4.857 -1.3435 -0.5750 -0.3528
16807TIP3    H271913   4.468   4.852   4.962  1.8682  1.6843 -1.0485
16808TIP3   OH271914   4.621   3.773  15.900 -0.4907 -0.2366 -0.3550
16808TIP3    H171915   4.612   3.865  15.925  1.7213 -0.0975  0.1345
16808TIP3    H271916   4.558   3.726  15.955 -0.9717  0.8771  0.0697
16809TIP3   OH271917   4.379   0.420  12.986  0.6276  0.1159 -0.3201
16809TIP3    H171918   4.377   0.324  12.988 -0.9151  0.1054 -0.9814
16809TIP3    H271919   4.432   0.440  12.909 -0.0548 -0.2397 -0.8990
16810TIP3   OH271920   5.608   0.030  15.010  0.4371  0.0714 -0.0232
16810TIP3    H171921   5.641   0.025  15.099  0.3116 -0.1563  0.0120
16810TIP3    H271922   5.521  -0.011  15.014  0.3142  0.3086 -0.1923
16811TIP3   OH271923   4.089   5.105   3.652  0.3114 -0.1169 -0.2294
16811TIP3    H171924   4.116   5.176   3.593 -0.3059  1.0781  0.8905
16811TIP3    H271925   4.148   5.033   3.630  1.0540  0.7834 -1.3077
16812TIP3   OH271926   5.407   0.244  11.041  0.2197  0.5575 -0.0043
16812TIP3    H171927   5.396   0.200  10.956 -1.1444  1.0062 -0.0912
16812TIP3    H271928   5.406   0.337  11.019  2.0925  0.6742  0.2884
16813TIP3   OH271929   2.697   2.744  13.009  0.0115  0.0016  0.2889
16813TIP3    H171930   2.790   2.764  13.009  0.0889 -0.3566  0.5091
16813TIP3    H271931   2.679   2.709  12.922  0.0939  0.0059  0.2709
16814TIP3   OH271932   1.015   3.114  15.308  0.5677 -0.1105  0.1126
16814TIP3    H171933   1.089   3.092  15.252  1.1895  0.5008  0.6877
16814TIP3    H271934   1.003   3.037  15.364  0.8349 -0.1598  0.0992
16815TIP3   OH271935   6.741   2.380  15.683  0.1968  0.5871 -0.2730
16815TIP3    H171936   6.738   2.286  15.700  1.0408  0.2201 -1.9264
16815TIP3    H271937   6.787   2.417  15.757 -0.2529 -0.2774  0.4560
16816TIP3   OH271938   4.680   4.542   0.308 -0.6681  0.5093  0.3984
16816TIP3    H171939   4.692   4.532   0.402 -0.6670  1.2232  0.4724
16816TIP3    H271940   4.621   4.616   0.297  2.6002  3.3031 -0.2228
16817TIP3   OH271941   1.836   1.727  16.701  0.0664  0.7226 -0.0515
16817TIP3    H171942   1.918   1.768  16.730  0.5714  0.2876 -0.8140
16817TIP3    H271943   1.796   1.694  16.781 -0.6150  3.1177  0.6463
16818TIP3   OH271944   4.405   5.980   1.041  0.4523  0.9831 -0.2572
16818TIP3    H171945   4.453   6.052   1.081 -2.3323  2.6745  0.3506
16818TIP3    H271946   4.362   6.019   0.965 -1.9799  0.3672  0.6860
16819TIP3   OH271947   2.831   2.645   2.471  0.5584 -0.6387 -0.4266
16819TIP3    H171948   2.903   2.702   2.498  0.1263 -0.6362  0.7685
16819TIP3    H271949   2.756   2.676   2.520  0.1754 -1.8472 -0.2153
16820TIP3   OH271950   0.953   6.182  15.079  0.2674 -0.1113 -0.0323
16820TIP3    H171951   0.897   6.109  15.103  1.6604 -1.8439 -1.7221
16820TIP3    H271952   0.917   6.214  14.996  0.3916  0.3196  0.0763
16821TIP3   OH271953   4.117   0.836  15.909  0.3491  0.0384 -0.2527
16821TIP3    H171954   4.094   0.756  15.956  0.6110  0.5259  0.7154
16821TIP3    H271955   4.205   0.821  15.877 -0.3692 -0.8935 -1.9323
16822TIP3   OH271956   3.829   3.653  13.841  0.0189 -0.0894 -0.4489
16822TIP3    H171957   3.894   3.709  13.882 -1.3341 -0.2156  2.0191
16822TIP3    H271958   3.845   3.566  13.878  0.1283 -0.7272 -1.9007
16823TIP3   OH271959   0.606   5.116   5.682 -0.4216  0.0290 -0.0233
16823TIP3    H171960   0.521   5.157   5.700  0.3903  2.2600 -0.8571
16823TIP3    H271961   0.642   5.168   5.610  1.6787 -0.8025  0.3676
16824TIP3   OH271962   1.878   6.794  13.845 -0.5579 -0.3860 -0.4481
16824TIP3    H171963   1.800   6.809  13.791  0.5442 -1.0603 -2.3347
16824TIP3    H271964   1.843   6.770  13.931 -2.4721 -1.5794 -1.4629
16825TIP3   OH271965   5.320   3.094   2.527 -0.1364 -0.2394  0.0196
16825TIP3    H171966   5.287   3.158   2.464 -0.4109  0.3234  0.7261
16825TIP3    H271967   5.247   3.034   2.541 -0.5075  0.3625  0.7394
16826TIP3   OH271968   4.932   2.191  12.073  0.1090  0.0686 -0.9362
16826TIP3    H171969   5.003   2.230  12.125  1.1195 -0.3397 -1.9668
16826TIP3    H271970   4.946   2.224  11.984 -1.8427  1.0926 -0.9190
16827TIP3   OH271971   4.016   0.122  14.294 -0.0718  0.3053  0.2204
16827TIP3    H171972   4.048   0.051  14.239 -2.8067 -0.1625 -0.9589
16827TIP3    H271973   4.078   0.127  14.367  1.2541 -1.9883 -0.6644
16828TIP3   OH271974   4.664   2.166  11.864  0.2097  0.1239  0.2177
16828TIP3    H171975   4.719   2.094  11.897 -3.8189 -2.6614  1.7046
16828TIP3    H271976   4.667   2.231  11.935  0.9765 -0.2951  0.5959
16829TIP3   OH271977   1.767   6.339  15.290 -0.4592  0.5109  0.3006
16829TIP3    H171978   1.737   6.260  15.245  0.6344  0.1833  0.1395
16829TIP3    H271979   1.718   6.410  15.247 -0.8102  0.0175 -0.1316
16830TIP3   OH271980   4.452   3.729   2.327  0.0014  0.1004 -0.5641
16830TIP3    H171981   4.543   3.758   2.331 -0.0756  0.6408 -2.2485
16830TIP3    H271982   4.416   3.752   2.413  0.2482  4.0375 -1.3428
16831TIP3   OH271983   0.184   5.070   0.189 -0.4399  0.4214 -0.0402
16831TIP3    H171984   0.097   5.036   0.211 -0.6987  2.0552  1.8054
16831TIP3    H271985   0.244   5.020   0.243 -0.3537  0.0464 -0.4819
16832TIP3   OH271986   2.841   6.587  16.892 -0.4860  0.1436 -0.5110
16832TIP3    H171987   2.762   6.536  16.876  0.2380 -0.6772 -1.6253
16832TIP3    H271988   2.860   6.574  16.984 -0.5033 -1.3618 -0.6978
16833TIP3   OH271989   5.511   1.717  13.136  0.7564  0.1476  0.1162
16833TIP3    H171990   5.512   1.625  13.161 -0.2106 -0.3535 -1.5295
16833TIP3    H271991   5.555   1.762  13.208 -0.9463 -1.2918  2.1980
16834TIP3   OH271992   2.588   6.280   6.626 -0.1901  0.1984 -0.0011
16834TIP3    H171993   2.591   6.309   6.535 -0.5020  0.0720 -0.0524
16834TIP3    H271994   2.653   6.334   6.670 -0.0776  0.2982 -0.2885
16835TIP3   OH271995   4.869   2.885  16.697 -0.7568  0.6318 -0.5171
16835TIP3    H171996   4.960   2.853  16.696 -0.5557  1.1873 -0.4891
16835TIP3    H271997   4.855   2.914  16.787 -1.3798 -0.5745 -0.1913
16836TIP3   OH271998   5.195   2.127  13.464 -0.0083  0.0904 -0.8871
16836TIP3    H171999   5.254   2.075  13.410 -0.0636 -0.0622 -0.8023
16836TIP3    H272000   5.244   2.141  13.546 -0.1555 -0.1797 -0.7520
16837TIP3   OH272001   4.478   0.159   6.379 -0.0662  0.2634 -0.2993
16837TIP3    H172002   4.452   0.245   6.347  0.7025  0.0999 -1.4226
16837TIP3    H272003   4.437   0.097   6.318  0.9729 -0.0792 -0.6752
16838TIP3   OH272004   3.161   3.945   0.480  0.5010  0.8076 -0.3945
16838TIP3    H172005   3.156   4.031   0.520  1.1344 -0.3634  2.4182
16838TIP3    H272006   3.076   3.905   0.498 -0.2496  1.1669 -2.7305
16839TIP3   OH272007   6.642   6.788  15.364 -0.7754 -0.1803 -0.1290
16839TIP3    H172008   6.640   6.697  15.334  0.1125 -0.3993  0.4442
16839TIP3    H272009   6.591   6.787  15.445 -0.6234 -0.2022 -0.0335
16840TIP3   OH272010   3.654   3.850  13.738  0.2100  0.1143  1.0133
16840TIP3    H172011   3.600   3.829  13.662  0.2463 -0.9558  1.2684
16840TIP3    H272012   3.718   3.778  13.744 -0.3500 -0.3096  2.5540
16841TIP3   OH272013   0.077   2.767  17.228  0.4078 -0.2214  0.1052
16841TIP3    H172014   0.079   2.685  17.179  0.8488 -0.3440  0.3218
16841TIP3    H272015   0.149   2.818  17.191  0.0570  0.1187 -0.1136
16842TIP3   OH272016   2.634   0.820  15.878  0.5736  0.7051  0.1006
16842TIP3    H172017   2.694   0.851  15.810 -1.2048 -0.8756 -2.3508
16842TIP3    H272018   2.558   0.786  15.830 -1.3573  0.6235  2.9561
16843TIP3   OH272019   1.855   6.376  16.700 -0.0211 -0.6408 -0.3106
16843TIP3    H172020   1.808   6.373  16.616  0.7419  1.8538 -0.9114
16843TIP3    H272021   1.948   6.382  16.675  0.1468  1.4880  0.5900
16844TIP3   OH272022   1.679   0.342  13.799 -0.4131  0.4716  0.4755
16844TIP3    H172023   1.667   0.249  13.778 -2.6004  0.9235 -0.5587
16844TIP3    H272024   1.761   0.366  13.756 -0.2733 -0.7880  0.0052
16845TIP3   OH272025   4.691   3.326  14.492 -0.0394  0.0105  0.3398
16845TIP3    H172026   4.686   3.286  14.579 -0.8161  0.7771  0.6573
16845TIP3    H272027   4.601   3.351  14.472 -0.0639 -1.1069 -1.1522
16846TIP3   OH272028   4.280   6.002  11.410  0.3198  0.0607  0.1488
16846TIP3    H172029   4.294   6.097  11.406 -1.6352  0.3622 -2.3487
16846TIP3    H272030   4.185   5.992  11.419  0.5458 -1.6904  1.0600
16847TIP3   OH272031   0.271   6.068  12.939 -0.0368  0.2153 -0.2336
16847TIP3    H172032   0.237   6.002  12.999  1.2098 -0.4027 -0.1770
16847TIP3    H272033   0.282   6.022  12.856  2.3568 -0.1494  0.2096
16848TIP3   OH272034   0.287   3.859   1.247  0.1081  0.2667 -0.4227
16848TIP3    H172035   0.325   3.854   1.335  0.5806  1.2972 -0.5462
16848TIP3    H272036   0.208   3.912   1.258 -0.3439 -0.3956 -0.4633
16849TIP3   OH272037   5.785   1.500   3.487 -0.3777 -0.2410 -0.2557
16849TIP3    H172038   5.706   1.455   3.519  0.0872 -0.6741  0.2956
16849TIP3    H272039   5.842   1.506   3.563  0.8896 -1.5807 -1.0540
16850TIP3   OH272040   2.083   3.415   1.769 -0.0441 -0.0309  0.2354
16850TIP3    H172041   2.017   3.483   1.774  0.9838  1.1236 -1.0154
16850TIP3    H272042   2.154   3.445   1.826  0.2012 -0.2796  0.0678
16851TIP3   OH272043   0.166   2.569  11.016  0.6007 -1.0344  0.2333
16851TIP3    H172044   0.231   2.535  11.077  1.3899 -0.7586 -0.4399
16851TIP3    H272045   0.192   2.660  11.000 -1.1672 -0.2358  1.5754
16852TIP3   OH272046   6.246   2.704   0.150 -0.2575 -0.7318 -0.0979
16852TIP3    H172047   6.276   2.730   0.063 -1.0417 -0.6271 -0.3475
16852TIP3    H272048   6.227   2.610   0.142  1.3010 -1.1182  0.4400
16853TIP3   OH272049   1.092   0.987  15.470 -0.4071 -0.6169  0.0197
16853TIP3    H172050   1.102   0.969  15.564  0.0988 -1.7941 -0.2370
16853TIP3    H272051   1.002   0.964  15.450  0.3146 -3.4957 -0.3729
16854TIP3   OH272052   3.575   0.779  15.344  0.3555 -0.4778 -0.1799
16854TIP3    H172053   3.572   0.858  15.399  1.4965  0.2839 -1.1589
16854TIP3    H272054   3.510   0.795  15.276 -1.0232 -1.4014  0.8548
16855TIP3   OH272055   0.851   3.623  12.804  0.2203 -0.0514  0.3211
16855TIP3    H172056   0.924   3.563  12.792 -0.3701 -0.8652  0.7378
16855TIP3    H272057   0.891   3.704  12.837  0.8730 -0.6632  1.0511
16856TIP3   OH272058   0.540   2.246  13.833 -0.0120  0.4680 -0.1436
16856TIP3    H172059   0.572   2.178  13.893  0.2379  0.0940 -0.6947
16856TIP3    H272060   0.445   2.244  13.843 -0.1267 -0.9496 -1.1834
16857TIP3   OH272061   0.953   1.618   2.722  1.1167 -0.5613  0.6067
16857TIP3    H172062   0.877   1.614   2.780  1.7703  1.4334  1.6766
16857TIP3    H272063   1.017   1.560   2.763  1.0572 -0.2925  1.0841
16858TIP3   OH272064   4.863   6.711   1.766 -0.0199 -0.2232 -0.0693
16858TIP3    H172065   4.946   6.710   1.717  0.4978 -1.1414  0.7864
16858TIP3    H272066   4.873   6.784   1.827  0.4463 -0.7372  0.4831
16859TIP3   OH272067   1.890   1.398  10.852 -0.3483 -0.6521 -0.5579
16859TIP3    H172068   1.974   1.437  10.878 -0.8445 -1.0954  1.9642
16859TIP3    H272069   1.872   1.333  10.919 -2.4578 -0.9652 -1.3529
16860TIP3   OH272070   0.277   3.819   3.178  0.2540 -0.1642  0.1876
16860TIP3    H172071   0.224   3.744   3.152  1.3473 -0.6336 -0.8032
16860TIP3    H272072   0.354   3.780   3.221  0.0961  0.4733  1.0828
16861TIP3   OH272073   2.183   5.010  14.557 -0.0266  0.0039  0.2033
16861TIP3    H172074   2.100   5.041  14.594  0.1067  0.1156  0.4131
16861TIP3    H272075   2.234   4.983  14.633 -0.0760 -0.5725  0.0330
16862TIP3   OH272076   4.404   3.888  13.753  0.4694 -0.0782 -0.5329
16862TIP3    H172077   4.476   3.943  13.723 -0.1981  1.2182  0.1682
16862TIP3    H272078   4.421   3.802  13.714  2.2304  0.2731 -0.5928
16863TIP3   OH272079   0.973   5.210  12.521 -0.2540  0.0084 -0.6456
16863TIP3    H172080   0.935   5.229  12.607  1.4420 -3.6362  1.1620
16863TIP3    H272081   1.062   5.245  12.526 -0.9384  2.1187 -2.0592
16864TIP3   OH272082   6.312   5.026   2.304 -0.0278  0.0999  0.6093
16864TIP3    H172083   6.324   5.121   2.304  0.9361  0.0138  1.7951
16864TIP3    H272084   6.327   5.000   2.213 -0.2437  1.0796  0.2838
16865TIP3   OH272085   0.779   4.079   1.824  0.5219  0.4560  0.7119
16865TIP3    H172086   0.768   4.162   1.779 -0.2179 -0.1998 -0.3794
16865TIP3    H272087   0.844   4.032   1.771 -1.8847 -1.1599 -1.0306
16866TIP3   OH272088   4.606   2.348   4.401 -0.1561 -0.2203  0.0779
16866TIP3    H172089   4.684   2.313   4.443 -0.0276  1.9144  1.8257
16866TIP3    H272090   4.590   2.290   4.328  2.9198 -0.8957 -0.2058
16867TIP3   OH272091   1.360   0.077  14.926  0.6565 -0.0225  0.5468
16867TIP3    H172092   1.375   0.038  14.840  0.3554  0.1788  0.3999
16867TIP3    H272093   1.376   0.006  14.988 -2.9171 -1.3745  0.1945
16868TIP3   OH272094   0.010   6.520   4.326  0.2770 -0.1684  0.4299
16868TIP3    H172095   0.038   6.486   4.241 -1.0406 -2.7713  0.9271
16868TIP3    H272096  -0.084   6.504   4.329  0.0155  1.3008  1.7977
16869TIP3   OH272097   4.507   4.311  16.426 -0.4766  0.0309  0.0716
16869TIP3    H172098   4.418   4.285  16.404 -0.3087  0.0866 -0.6899
16869TIP3    H272099   4.541   4.350  16.346  0.7926 -1.4841 -0.1716
16870TIP3   OH272100   6.135   5.770  13.203 -0.1881  0.2567 -0.2809
16870TIP3    H172101   6.207   5.729  13.251  1.4148  0.3840 -2.4277
16870TIP3    H272102   6.169   5.782  13.114 -2.8566  0.3812 -1.3791
16871TIP3   OH272103   3.655   1.309   0.906  0.4785 -0.1382 -0.6797
16871TIP3    H172104   3.576   1.362   0.915  0.0234 -0.6267 -1.6095
16871TIP3    H272105   3.726   1.373   0.906  0.3408  0.1552  2.6006
16872TIP3   OH272106   0.921   4.862  13.459  0.2903 -0.1454 -0.1117
16872TIP3    H172107   0.944   4.931  13.521 -0.3996 -0.9337  1.0736
16872TIP3    H272108   0.972   4.786  13.487 -1.7933 -1.2128  1.0664
16873TIP3   OH272109   6.315   1.091   3.247 -0.0220  0.6395  0.1033
16873TIP3    H172110   6.368   1.018   3.279 -0.1977  0.6935  0.5275
16873TIP3    H272111   6.349   1.167   3.294 -1.4761  0.4475  1.5698
16874TIP3   OH272112   2.871   2.082   0.868  0.3277 -0.4539 -0.0554
16874TIP3    H172113   2.813   2.136   0.921  1.4165  0.1044  0.6021
16874TIP3    H272114   2.894   2.008   0.924  0.9427 -0.2144  0.0186
16875TIP3   OH272115   1.048   3.376  11.727  0.1482 -0.7049  0.0875
16875TIP3    H172116   1.035   3.464  11.760  0.0622 -0.6111 -0.1961
16875TIP3    H272117   1.093   3.388  11.643  0.1064 -0.9289  0.0323
16876TIP3   OH272118   6.192   1.503   0.924 -0.1146  0.1952 -0.4635
16876TIP3    H172119   6.174   1.546   0.841 -1.5354  0.5729  0.0170
16876TIP3    H272120   6.233   1.571   0.978 -2.9822  1.2671  0.5329
16877TIP3   OH272121   3.796   6.664   4.633  0.2947  0.2081  0.0203
16877TIP3    H172122   3.884   6.699   4.644  0.2996  0.4753 -0.7613
16877TIP3    H272123   3.792   6.637   4.541  0.1088 -1.3460  0.4531
16878TIP3   OH272124   0.986   2.404  10.501  0.4741  0.2828 -0.2095
16878TIP3    H172125   1.072   2.443  10.517  0.9135 -0.2230 -1.2495
16878TIP3    H272126   0.983   2.391  10.406 -0.2916 -0.7590 -0.0568
16879TIP3   OH272127   0.815   6.469   2.855 -0.1187  0.5969  0.5342
16879TIP3    H172128   0.786   6.529   2.924 -0.2540  0.9880  0.1450
16879TIP3    H272129   0.802   6.519   2.774  2.8749  1.3490  0.3937
16880TIP3   OH272130   5.592   5.963   5.184 -0.4067 -0.0633  0.2828
16880TIP3    H172131   5.636   5.879   5.198 -0.3601  0.1715  1.6190
16880TIP3    H272132   5.603   5.980   5.090  0.6195 -0.9683  0.2232
16881TIP3   OH272133   6.127   3.187  13.460  0.2287  0.3200  0.6790
16881TIP3    H172134   6.113   3.273  13.420 -2.2435 -0.4930 -0.3947
16881TIP3    H272135   6.078   3.190  13.542  1.9981  0.6309  1.7758
16882TIP3   OH272136   4.208   2.992  16.107  0.4303  0.0812  0.1893
16882TIP3    H172137   4.202   2.967  16.199  0.5903  0.6624  0.3653
16882TIP3    H272138   4.174   2.917  16.059  1.2679 -0.6210  0.6675
16883TIP3   OH272139   1.393   4.746  14.792  0.1302  0.0130  0.3507
16883TIP3    H172140   1.410   4.657  14.823 -1.5757 -0.1666  0.8534
16883TIP3    H272141   1.302   4.763  14.816 -0.1897  1.1634 -1.5149
16884TIP3   OH272142   2.144   5.558  11.449  0.5275  0.0428  0.5457
16884TIP3    H172143   2.156   5.612  11.527 -0.4624 -0.3672  1.0039
16884TIP3    H272144   2.052   5.532  11.452  0.4914 -0.0437 -0.7232
16885TIP3   OH272145   2.810   3.242   3.022 -0.7035 -0.1100  0.2033
16885TIP3    H172146   2.720   3.215   3.036 -0.6943  1.0004  3.2726
16885TIP3    H272147   2.858   3.208   3.098  1.0481  0.9417 -0.3592
16886TIP3   OH272148   6.315   0.386   1.762 -0.2549 -0.5389 -0.1778
16886TIP3    H172149   6.361   0.448   1.705 -0.6999 -0.4283 -0.4155
16886TIP3    H272150   6.291   0.438   1.839  1.0473 -0.8731  0.4909
16887TIP3   OH272151   3.278   4.598   3.467 -0.1242 -0.4105 -0.1416
16887TIP3    H172152   3.340   4.531   3.497  1.1007  0.8883  0.3143
16887TIP3    H272153   3.268   4.657   3.542 -0.7032  0.2759 -0.7466
16888TIP3   OH272154   3.841   3.625   0.953 -0.1033 -0.5280 -0.4862
16888TIP3    H172155   3.747   3.614   0.966 -0.3200  0.8213 -0.7260
16888TIP3    H272156   3.848   3.666   0.867  0.6508  0.0523 -0.1601
16889TIP3   OH272157   6.373   2.552  12.202  0.0432 -0.2789 -0.2143
16889TIP3    H172158   6.447   2.588  12.154 -0.5458 -1.1166 -1.8274
16889TIP3    H272159   6.379   2.592  12.289  0.9269  1.5813 -1.0781
16890TIP3   OH272160   0.259   4.720  14.174 -0.4242 -0.1316  0.0186
16890TIP3    H172161   0.323   4.786  14.199 -1.0056  0.2425  0.5423
16890TIP3    H272162   0.214   4.758  14.098 -0.0636 -0.3761 -0.3229
16891TIP3   OH272163   3.021   5.207  13.948 -0.3760  0.0759 -0.0615
16891TIP3    H172164   3.082   5.163  13.889  0.4879  0.3752  0.5823
16891TIP3    H272165   3.009   5.294  13.910  1.0329  0.6548  0.7409
16892TIP3   OH272166   1.379   0.921   1.360 -0.3399 -0.3434 -0.0561
16892TIP3    H172167   1.470   0.924   1.331 -0.3929 -0.0443 -0.1949
16892TIP3    H272168   1.378   0.974   1.440 -1.0014  2.3939 -1.7505
16893TIP3   OH272169   1.031   4.221  10.797 -0.4185 -0.5718 -0.4750
16893TIP3    H172170   0.940   4.221  10.825 -0.7379 -3.8608 -1.1367
16893TIP3    H272171   1.027   4.226  10.702 -0.0869 -2.4202 -0.6313
16894TIP3   OH272172   6.368   6.320  16.618  0.1470  0.8168 -0.2197
16894TIP3    H172173   6.342   6.243  16.668 -1.4125  1.3025 -0.2255
16894TIP3    H272174   6.389   6.286  16.531  0.4822  0.2737  0.0695
16895TIP3   OH272175   6.220   6.504  13.777 -0.0725 -0.6521  0.2599
16895TIP3    H172176   6.244   6.414  13.756  4.4116 -0.0575  1.6019
16895TIP3    H272177   6.248   6.555  13.701  0.5916 -0.1153  0.8483
16896TIP3   OH272178   6.573   6.796   3.941  0.5782  0.6052 -0.2311
16896TIP3    H172179   6.588   6.860   3.871 -3.0204 -1.4561 -3.2397
16896TIP3    H272180   6.528   6.846   4.009 -0.5617  1.7252 -1.7235
16897TIP3   OH272181   3.494   5.824  12.842  0.1987  0.2917  0.8664
16897TIP3    H172182   3.517   5.917  12.844 -1.5380  0.7804  0.0093
16897TIP3    H272183   3.514   5.792  12.930 -0.7183  1.8768  1.6772
16898TIP3   OH272184   4.955   3.721   4.252 -0.0254 -0.1376 -0.2642
16898TIP3    H172185   5.047   3.739   4.267 -0.1066  0.1320 -0.0889
16898TIP3    H272186   4.913   3.807   4.253 -0.3130 -0.2771 -0.0965
16899TIP3   OH272187   3.525   0.196   1.056 -0.2124 -0.9131  0.1852
16899TIP3    H172188   3.453   0.161   1.004 -0.2522 -0.3384 -0.1543
16899TIP3    H272189   3.592   0.220   0.992 -0.2996 -0.1167  0.3811
16900TIP3   OH272190   5.606   0.262  11.239 -0.0495 -0.0570  0.6069
16900TIP3    H172191   5.688   0.280  11.192 -0.6274  1.7447  0.2032
16900TIP3    H272192   5.541   0.249  11.169 -0.4544  0.2608  0.9241
16901TIP3   OH272193   6.461   0.173  14.356 -0.4290 -0.7483  0.0430
16901TIP3    H172194   6.493   0.111  14.422 -1.3097 -1.8996 -0.5864
16901TIP3    H272195   6.528   0.174  14.289 -0.5597 -1.2719 -0.0976
16902TIP3   OH272196   5.037   6.136   3.811 -0.1366  0.0092  0.5841
16902TIP3    H172197   5.078   6.220   3.790 -1.2682  0.4249 -0.0787
16902TIP3    H272198   5.099   6.071   3.777  1.0409  0.5324  1.6458
16903TIP3   OH272199   6.459   2.431   0.651  0.4792  0.5415 -0.5786
16903TIP3    H172200   6.389   2.431   0.717 -0.7749  0.2268 -1.8633
16903TIP3    H272201   6.514   2.506   0.674  0.5447 -0.0172  1.2755
16904TIP3   OH272202   6.040   3.319   3.641 -0.4529  0.7307 -0.2461
16904TIP3    H172203   6.008   3.334   3.552  0.7682  1.1194 -0.6479
16904TIP3    H272204   6.135   3.329   3.634  0.0127 -2.3647  0.4731
16905TIP3   OH272205   2.440   0.509  12.440 -0.1551 -0.2174 -0.3852
16905TIP3    H172206   2.484   0.496  12.356  0.6352 -0.1810  0.0189
16905TIP3    H272207   2.510   0.505  12.505 -0.7646 -0.2840  0.2792
16906TIP3   OH272208   4.129   4.125  14.509 -0.2148  0.5810 -0.0500
16906TIP3    H172209   4.060   4.186  14.485  0.6880  1.6402 -0.0292
16906TIP3    H272210   4.108   4.099  14.599 -1.3800 -0.2752 -0.5362
16907TIP3   OH272211   1.511   4.898   0.454 -0.4893 -0.8608 -0.2655
16907TIP3    H172212   1.448   4.838   0.494  1.4619 -2.0994  1.1284
16907TIP3    H272213   1.585   4.899   0.515  0.9224  0.4139 -1.8986
16908TIP3   OH272214   5.078   3.857  13.825 -0.3010 -0.1617  0.0526
16908TIP3    H172215   5.082   3.838  13.731 -0.7641 -1.0264  0.2019
16908TIP3    H272216   5.032   3.783  13.863 -1.3132  0.8035  0.7941
16909TIP3   OH272217   3.823   1.271  11.834 -0.2408 -0.0870  0.0955
16909TIP3    H172218   3.777   1.348  11.800 -0.7040 -0.9337 -1.2843
16909TIP3    H272219   3.767   1.239  11.905 -0.4370  0.4244  0.1731
16910TIP3   OH272220   4.465   2.547  14.395 -0.5765 -0.0226 -0.4204
16910TIP3    H172221   4.437   2.614  14.458 -1.1619  0.4465 -1.1595
16910TIP3    H272222   4.426   2.466  14.427  0.5989 -0.1438  0.8012
16911TIP3   OH272223   1.961   5.172   3.767 -0.1767 -0.0787  0.1902
16911TIP3    H172224   1.912   5.255   3.766 -0.5016 -0.2228  1.9904
16911TIP3    H272225   2.052   5.199   3.780  0.1617  0.1293 -2.1917
16912TIP3   OH272226   5.734   6.219  14.093 -0.1177  0.1523  0.2320
16912TIP3    H172227   5.741   6.221  13.998  0.8461  0.4421  0.3051
16912TIP3    H272228   5.792   6.288  14.123 -1.3264  0.8794  0.9965
16913TIP3   OH272229   0.911   4.876   5.347  0.2560  0.4903 -0.3939
16913TIP3    H172230   0.921   4.831   5.430 -0.4066  0.4631 -0.3209
16913TIP3    H272231   0.975   4.835   5.288 -0.8869 -1.1152 -0.5659
16914TIP3   OH272232   5.958   4.354  10.873  0.6029 -0.2274 -0.0171
16914TIP3    H172233   5.983   4.437  10.914 -0.1558  0.0849 -0.1731
16914TIP3    H272234   6.032   4.333  10.816  0.8377  0.3017  0.0833
16915TIP3   OH272235   4.609   5.513  15.301 -0.3057 -0.5420  0.2189
16915TIP3    H172236   4.696   5.542  15.328  0.4622 -2.0109 -0.5771
16915TIP3    H272237   4.615   5.418  15.299 -1.9528 -0.6782  0.1647
16916TIP3   OH272238   4.825   2.666  11.289 -1.1480  0.1998  0.0962
16916TIP3    H172239   4.839   2.572  11.303 -0.1703  0.3130 -0.0482
16916TIP3    H272240   4.739   2.671  11.247 -2.0561 -0.4703  1.7929
16917TIP3   OH272241   6.761   1.897  14.507 -0.2622  0.2074 -0.6316
16917TIP3    H172242   6.801   1.964  14.562  1.6378 -0.5104 -1.0873
16917TIP3    H272243   6.705   1.848  14.567 -0.0641  0.9005  0.1414
16918TIP3   OH272244   3.037   0.526   3.504 -0.3270  0.3946  0.2546
16918TIP3    H172245   2.964   0.492   3.453 -0.7855  1.6780  0.0205
16918TIP3    H272246   3.070   0.600   3.454 -0.4237  1.3378  1.5271
16919TIP3   OH272247   1.262   1.441  16.964 -0.5360 -0.5707 -0.2520
16919TIP3    H172248   1.321   1.439  17.040 -3.2580 -0.2684  2.0139
16919TIP3    H272249   1.305   1.385  16.899  1.8570 -0.9593  1.5256
16920TIP3   OH272250   3.354   4.444  11.825  0.5017  0.6740  0.2845
16920TIP3    H172251   3.328   4.354  11.846 -0.8987  0.9835 -0.0227
16920TIP3    H272252   3.449   4.444  11.836  0.4786 -0.7118  0.7747
16921TIP3   OH272253   3.072   4.122  14.582 -0.0280 -0.0355  0.7066
16921TIP3    H172254   3.054   4.139  14.675 -0.4418  0.4849  0.5349
16921TIP3    H272255   3.147   4.063  14.583  1.4224  1.7156  1.3492
16922TIP3   OH272256   4.682   5.764  11.606 -0.6605  0.4628  0.4623
16922TIP3    H172257   4.708   5.774  11.698  2.1704  0.0491 -0.1752
16922TIP3    H272258   4.593   5.798  11.602 -0.6221  1.1457  3.2103
16923TIP3   OH272259   5.180   4.345  13.545 -0.3116 -0.1426 -0.6228
16923TIP3    H172260   5.147   4.356  13.634 -0.5384  0.2555 -0.7528
16923TIP3    H272261   5.122   4.399  13.491 -0.5262 -0.8161 -1.0896
16924TIP3   OH272262   0.122   1.483  15.325  0.5330 -0.2968 -0.2607
16924TIP3    H172263   0.107   1.433  15.245  0.4759  0.7109 -0.8999
16924TIP3    H272264   0.209   1.520  15.314  0.1187  0.6875 -0.3257
16925TIP3   OH272265   1.010   2.128   3.181  0.1430 -0.4856  0.0779
16925TIP3    H172266   1.038   2.062   3.118 -0.4480  0.0472 -0.7710
16925TIP3    H272267   0.984   2.078   3.258  0.5265 -1.1776 -0.2356
16926TIP3   OH272268   2.106   6.384  11.500  0.1337  0.3320 -0.0597
16926TIP3    H172269   2.103   6.289  11.497  1.7378  0.2564 -0.1306
16926TIP3    H272270   2.068   6.406  11.585 -1.4433 -0.2670 -0.5711
16927TIP3   OH272271   2.837   1.271   5.884  0.2298 -0.6298  0.1503
16927TIP3    H172272   2.918   1.262   5.935 -0.5927 -1.3374  1.3637
16927TIP3    H272273   2.866   1.262   5.793  1.5907 -0.3221  0.5227
16928TIP3   OH272274   5.744   3.723  12.134  0.1972 -0.2663  1.1410
16928TIP3    H172275   5.708   3.656  12.075 -1.1728 -0.4590  2.1512
16928TIP3    H272276   5.760   3.677  12.216 -0.4528  0.5624  1.7501
16929TIP3   OH272277   3.659   2.334   2.359  0.0378 -0.2240  0.1256
16929TIP3    H172278   3.622   2.421   2.342  1.1572  0.7081  2.0413
16929TIP3    H272279   3.595   2.292   2.417  0.3435  0.0603  0.6801
16930TIP3   OH272280   3.738   3.531  12.300  0.4279  0.0087  0.0635
16930TIP3    H172281   3.677   3.600  12.325 -0.5067 -1.2324  1.4141
16930TIP3    H272282   3.736   3.530  12.204  0.5798  1.9195  0.0097
16931TIP3   OH272283   6.655   6.514   4.099 -0.4066 -0.3944  0.0984
16931TIP3    H172284   6.723   6.569   4.060 -0.6545  0.7731  1.2297
16931TIP3    H272285   6.590   6.501   4.030  0.0905 -0.0080 -0.4408
16932TIP3   OH272286   2.690   3.069  16.944 -0.1911  0.2673 -0.5133
16932TIP3    H172287   2.652   2.992  16.902  0.3431 -1.1504  1.4597
16932TIP3    H272288   2.618   3.107  16.995 -0.4508  1.1006 -1.4737
16933TIP3   OH272289   4.002   1.112   0.699 -0.2132  0.7907  0.7025
16933TIP3    H172290   4.062   1.038   0.704 -2.4334 -1.2682 -1.0605
16933TIP3    H272291   3.928   1.087   0.754  0.2448  3.0957  2.5146
16934TIP3   OH272292   1.676   1.785   2.411  0.2452 -0.5034 -0.4775
16934TIP3    H172293   1.704   1.854   2.472 -2.4859 -0.3617  0.7535
16934TIP3    H272294   1.685   1.704   2.462  0.4648 -0.6935 -0.8181
16935TIP3   OH272295   1.059   1.066   0.968 -0.1245 -0.6107 -0.5049
16935TIP3    H172296   1.076   1.152   0.931 -2.5004  0.7851  1.3456
16935TIP3    H272297   0.976   1.038   0.929  0.0679 -1.5784 -0.2664
16936TIP3   OH272298   4.900   3.141   0.687  0.5943  0.0980  0.0354
16936TIP3    H172299   4.834   3.109   0.749 -0.9146  1.5057 -0.7668
16936TIP3    H272300   4.890   3.085   0.610  0.9628 -0.2366  0.2219
16937TIP3   OH272301   4.864   6.384   3.145 -0.2969  0.1323 -0.5132
16937TIP3    H172302   4.813   6.445   3.091 -2.3967 -0.7822  0.3542
16937TIP3    H272303   4.905   6.440   3.211 -2.3127  0.6815  0.3664
16938TIP3   OH272304   6.286   1.229   0.919 -0.0668 -0.3061  0.6442
16938TIP3    H172305   6.213   1.169   0.932  1.1918 -2.1454 -0.2833
16938TIP3    H272306   6.245   1.315   0.909 -1.8764 -0.7646  3.0797
16939TIP3   OH272307   2.734   4.676   0.548  0.0629 -0.0005  0.8015
16939TIP3    H172308   2.691   4.732   0.484  0.7342  0.2408  0.5564
16939TIP3    H272309   2.776   4.736   0.609  0.5621 -0.2233  0.6880
16940TIP3   OH272310   4.492   1.540   2.029  0.1059 -0.0985 -0.4458
16940TIP3    H172311   4.544   1.532   2.109  0.8536  1.1086 -0.7855
16940TIP3    H272312   4.411   1.583   2.058 -0.3848 -1.2454 -0.0568
16941TIP3   OH272313   3.724   6.114  17.011  0.1485  0.0309 -0.0542
16941TIP3    H172314   3.708   6.034  16.961 -2.0060  0.8537 -0.7810
16941TIP3    H272315   3.682   6.183  16.960  1.0479  1.4850  1.0901
16942TIP3   OH272316   0.804   3.859   0.167 -0.1894 -0.0766  0.1403
16942TIP3    H172317   0.739   3.864   0.237 -1.2685  0.4710 -0.8503
16942TIP3    H272318   0.775   3.787   0.112 -0.4540  0.6953 -0.7621
16943TIP3   OH272319   0.263   1.070  15.952  1.0179 -0.2605  0.0657
16943TIP3    H172320   0.243   1.011  15.880 -0.9322  2.1219 -1.5165
16943TIP3    H272321   0.274   1.013  16.028 -0.6325 -2.6537 -1.3617
16944TIP3   OH272322   1.725   4.548  12.146 -0.0946  0.7442 -0.2574
16944TIP3    H172323   1.725   4.640  12.120 -3.1656  0.4058 -2.0372
16944TIP3    H272324   1.642   4.536  12.193 -0.7538 -1.4566 -1.8067
16945TIP3   OH272325   3.105   2.369  11.313 -0.3213 -0.1776 -0.4170
16945TIP3    H172326   3.049   2.424  11.259 -1.3136 -0.4621  0.2979
16945TIP3    H272327   3.099   2.282  11.273 -1.8353 -0.6095  0.6827
16946TIP3   OH272328   0.284   4.847  16.752  0.3524  0.7823 -0.0391
16946TIP3    H172329   0.258   4.894  16.673 -0.1946  2.0025  0.8279
16946TIP3    H272330   0.257   4.905  16.824 -0.9618 -1.1557  1.1099
16947TIP3   OH272331   5.755   6.098  14.907  0.3380 -0.2430  0.2319
16947TIP3    H172332   5.721   6.160  14.843 -1.5771  0.0789  1.5076
16947TIP3    H272333   5.837   6.137  14.937 -0.5332  1.4025  0.5748
16948TIP3   OH272334   5.104   5.195   4.123 -0.7643 -0.5113 -0.1414
16948TIP3    H172335   5.197   5.180   4.106 -0.3277 -0.6454  2.0527
16948TIP3    H272336   5.102   5.261   4.192 -2.3469  0.2775 -0.8870
16949TIP3   OH272337   5.515   2.147  15.089  0.6712  0.4959  0.5821
16949TIP3    H172338   5.485   2.122  15.177  0.2392  1.3533  0.6906
16949TIP3    H272339   5.437   2.139  15.034  1.2423 -1.3336 -0.0254
16950TIP3   OH272340   0.753   1.818   5.041 -0.1011 -0.3374 -0.1045
16950TIP3    H172341   0.698   1.881   5.087  0.6821 -0.2663  0.7595
16950TIP3    H272342   0.692   1.759   4.998 -0.8463  0.7210 -0.5272
16951TIP3   OH272343   2.451   4.768  13.133 -0.0405  0.2126 -0.0037
16951TIP3    H172344   2.368   4.782  13.087  1.3001  1.6109 -2.1460
16951TIP3    H272345   2.466   4.673  13.126 -1.4470 -0.0823  0.4970
16952TIP3   OH272346   6.606   1.359   1.643  0.6330  0.1897  0.1486
16952TIP3    H172347   6.699   1.372   1.624  0.9967 -0.6117  1.2927
16952TIP3    H272348   6.564   1.440   1.613  1.6813  0.5476 -0.4172
16953TIP3   OH272349   2.614   6.081  12.626 -0.0201 -0.6871  0.0657
16953TIP3    H172350   2.567   6.040  12.699  0.7372 -0.9932  0.3910
16953TIP3    H272351   2.590   6.029  12.549 -0.7475 -0.4208  0.0973
16954TIP3   OH272352   3.513   2.435  16.141 -0.2292  0.5101 -0.0563
16954TIP3    H172353   3.560   2.352  16.147 -1.8821 -0.3922  1.2563
16954TIP3    H272354   3.447   2.431  16.211 -0.8828  2.5932 -0.4619
16955TIP3   OH272355   2.028   1.132   4.673  0.2052 -0.2693  0.1152
16955TIP3    H172356   2.010   1.055   4.727  1.7827 -0.1528  0.8787
16955TIP3    H272357   2.080   1.190   4.731 -0.7665  1.2762 -0.5028
16956TIP3   OH272358   0.406   5.910  12.093  0.5648  0.1956  0.7557
16956TIP3    H172359   0.342   5.884  12.159 -0.6671 -1.5389 -1.0116
16956TIP3    H272360   0.477   5.846  12.103  1.0323  0.7804  1.2723
16957TIP3   OH272361   2.412   6.234   4.489 -0.0054 -0.1925  0.4878
16957TIP3    H172362   2.492   6.224   4.542  0.4418 -1.3554 -0.3431
16957TIP3    H272363   2.431   6.184   4.409 -1.4208 -0.1496  0.1038
16958TIP3   OH272364   4.679   3.586   0.870  1.1724 -0.6202  0.4735
16958TIP3    H172365   4.623   3.579   0.793  2.4165 -1.6462 -0.3696
16958TIP3    H272366   4.752   3.641   0.842  2.0302 -1.6319  0.6565
16959TIP3   OH272367   2.006   2.329  13.740 -0.1624 -0.0080 -0.0903
16959TIP3    H172368   2.051   2.329  13.655  0.0414 -0.2608  0.0185
16959TIP3    H272369   2.076   2.334  13.805 -0.3874  3.2695  0.0583
16960TIP3   OH272370   2.722   5.515   0.010  0.4052  0.2127  0.0495
16960TIP3    H172371   2.686   5.574  -0.056  0.7142 -0.2907 -0.5746
16960TIP3    H272372   2.810   5.549   0.028  0.2512  0.4629  0.3593
16961TIP3   OH272373   6.037   6.468   1.390  0.6178 -0.3486 -0.6203
16961TIP3    H172374   6.129   6.457   1.412 -0.0245  0.8837  3.7977
16961TIP3    H272375   6.026   6.563   1.379 -0.5187 -0.0549  2.2088
16962TIP3   OH272376   2.000   3.898   4.850 -0.0984 -0.3358  0.1526
16962TIP3    H172377   1.974   3.810   4.879 -0.8732  0.4714  2.0779
16962TIP3    H272378   2.086   3.912   4.891  0.7649 -0.7493 -1.4278
16963TIP3   OH272379   2.907   0.770  13.706  0.1240 -0.3586 -0.0788
16963TIP3    H172380   2.832   0.762  13.765 -0.0161 -1.3749 -0.3793
16963TIP3    H272381   2.969   0.825  13.754 -0.6111  0.1019  0.3707
16964TIP3   OH272382   3.785   0.521  11.803 -0.0596  0.1982 -0.5795
16964TIP3    H172383   3.802   0.586  11.736  1.9019  0.0312 -0.3136
16964TIP3    H272384   3.702   0.548  11.842 -0.8479  0.7314 -2.5172
16965TIP3   OH272385   1.188   6.410   0.638 -0.3751 -0.3066  0.4123
16965TIP3    H172386   1.195   6.425   0.732  0.3265  0.6225  0.2251
16965TIP3    H272387   1.122   6.340   0.629 -1.6146  0.6736  1.4987
16966TIP3   OH272388   6.270   6.634  13.505 -0.2969 -0.1156 -0.1634
16966TIP3    H172389   6.339   6.700  13.514  0.1459 -0.5960  0.0207
16966TIP3    H272390   6.317   6.551  13.494 -0.8120 -0.2001 -2.2731
16967TIP3   OH272391   1.710   5.581   3.446 -0.4628  0.9446  0.3807
16967TIP3    H172392   1.746   5.493   3.435 -1.3386  0.3026  2.2181
16967TIP3    H272393   1.620   5.566   3.477 -0.6330  2.4817  0.7073
16968TIP3   OH272394   3.521   3.502   0.896 -0.3565 -0.4064 -0.5610
16968TIP3    H172395   3.522   3.436   0.827  0.1012  0.0829 -1.0224
16968TIP3    H272396   3.464   3.571   0.863  1.0645  0.5324 -1.1224
16969TIP3   OH272397   4.574   6.097   1.246  0.4066 -0.8228  0.0254
16969TIP3    H172398   4.634   6.057   1.310 -0.0436  0.8593  1.5935
16969TIP3    H272399   4.587   6.191   1.257 -0.8570 -0.4661 -1.2723
16970TIP3   OH272400   3.117   1.087   1.978  0.7768 -0.1530  0.1955
16970TIP3    H172401   3.036   1.136   1.988  0.9493  0.7086 -2.1867
16970TIP3    H272402   3.102   1.030   1.903  1.8362 -1.1889  0.7343
16971TIP3   OH272403   2.601   5.178  14.884  0.5605 -0.0635 -0.4058
16971TIP3    H172404   2.629   5.257  14.837 -0.3383  1.1476  0.9983
16971TIP3    H272405   2.682   5.136  14.911  1.0634  0.1065 -1.5951
16972TIP3   OH272406   3.845   3.637  11.655 -0.9189  0.0414 -0.8190
16972TIP3    H172407   3.915   3.613  11.594 -0.0661 -1.4972  0.6598
16972TIP3    H272408   3.877   3.716  11.698  0.4438 -1.1869  0.5417
16973TIP3   OH272409   2.562   3.040   0.024 -0.7071 -0.5237  0.6914
16973TIP3    H172410   2.514   2.973  -0.025 -2.2547  0.4550  0.8145
16973TIP3    H272411   2.643   2.996   0.050 -1.3036 -2.0917  0.0759
16974TIP3   OH272412   4.163   3.938  17.080  0.2483  0.7234 -0.2848
16974TIP3    H172413   4.177   3.965  17.171  0.5935  0.3318 -0.2156
16974TIP3    H272414   4.227   3.868  17.066  1.7974  2.2990 -1.5477
16975TIP3   OH272415   3.106   4.549   6.271  0.2507 -0.2535 -0.0626
16975TIP3    H172416   3.075   4.634   6.240 -1.1056 -1.0905 -1.1354
16975TIP3    H272417   3.199   4.549   6.250  0.2288  0.8939 -0.2318
16976TIP3   OH272418   5.671   0.324  15.026 -0.0521  0.4726  0.0558
16976TIP3    H172419   5.618   0.249  15.054 -0.5842  0.1692 -1.6217
16976TIP3    H272420   5.761   0.293  15.028 -0.2103  0.0060  0.0391
16977TIP3   OH272421   1.174   4.738   3.429 -0.2128  0.0485  0.0123
16977TIP3    H172422   1.089   4.717   3.467 -0.2660  1.0693  0.5020
16977TIP3    H272423   1.155   4.770   3.341 -0.5166  1.7882  0.6689
16978TIP3   OH272424   5.967   4.832  16.640  0.2796  0.0477  0.3525
16978TIP3    H172425   6.044   4.787  16.607 -0.4810  0.1951 -1.7417
16978TIP3    H272426   5.976   4.827  16.735  2.3801 -0.7309  0.1637
16979TIP3   OH272427   0.136   3.806   0.301  0.2387  0.1249 -0.0663
16979TIP3    H172428   0.223   3.779   0.273 -0.6126 -1.3662 -1.3851
16979TIP3    H272429   0.085   3.725   0.304 -0.9266  0.8537  1.4520
16980TIP3   OH272430   1.384   5.981  15.810  0.5367  0.3890 -0.6646
16980TIP3    H172431   1.330   6.058  15.793  1.3556  1.5810  1.6320
16980TIP3    H272432   1.329   5.925  15.864 -0.1094 -0.7744 -2.4528
16981TIP3   OH272433   6.187   6.244  14.900 -0.7882  0.3430  0.0479
16981TIP3    H172434   6.160   6.219  14.989  0.4220  1.3320  0.7141
16981TIP3    H272435   6.172   6.164  14.848  0.1891 -0.8417  1.5044
16982TIP3   OH272436   5.553   5.923   2.112 -0.1354 -0.3065  0.4875
16982TIP3    H172437   5.547   6.017   2.092  1.7165 -0.3791 -0.6060
16982TIP3    H272438   5.636   5.896   2.074 -0.2390 -2.2327  1.5317
16983TIP3   OH272439   4.363   4.189   0.456 -0.1488  0.2619  0.5246
16983TIP3    H172440   4.436   4.200   0.517 -0.7737  3.2564  0.8798
16983TIP3    H272441   4.404   4.156   0.376  1.8824  2.8244  0.3718
16984TIP3   OH272442   1.981   2.564  16.557 -0.0205  0.0053  0.1158
16984TIP3    H172443   1.887   2.555  16.538 -0.0297 -1.2359  0.6710
16984TIP3    H272444   2.009   2.637  16.501 -1.0705 -0.3387 -0.9072
16985TIP3   OH272445   2.567   6.056   4.057  0.5879  0.7901  0.8224
16985TIP3    H172446   2.641   6.004   4.025  0.9504  1.6727  0.1978
16985TIP3    H272447   2.589   6.146   4.032 -1.7512  0.8385 -1.4762
16986TIP3   OH272448   3.529   4.029   1.280 -0.2237  0.3652 -0.2183
16986TIP3    H172449   3.612   4.000   1.318 -0.6063  0.9988  1.1359
16986TIP3    H272450   3.554   4.092   1.213  0.4389 -0.4581 -0.7674
16987TIP3   OH272451   2.606   6.633  12.949  0.0801  0.3479 -0.1144
16987TIP3    H172452   2.619   6.700  13.016 -0.0250 -0.0116  0.2608
16987TIP3    H272453   2.676   6.650  12.886  1.1798 -0.3194  0.8948
16988TIP3   OH272454   3.211   2.973  14.656 -0.0176  0.0554  0.2864
16988TIP3    H172455   3.303   2.988  14.637 -0.1131  1.6292  0.8802
16988TIP3    H272456   3.209   2.945  14.748 -0.3189  3.6544  1.5157
16989TIP3   OH272457   6.635   2.944  15.046  0.0616 -0.8739  0.6093
16989TIP3    H172458   6.605   2.904  15.128 -1.1600  1.5467  1.4383
16989TIP3    H272459   6.561   2.933  14.986  0.6342 -1.8884  0.0547
16990TIP3   OH272460   0.260   1.239   2.191 -0.0098  0.0856 -0.2070
16990TIP3    H172461   0.339   1.205   2.233 -1.6863 -0.7565  2.4802
16990TIP3    H272462   0.284   1.327   2.163  2.1695 -0.5203 -0.4307
16991TIP3   OH272463   0.966   4.814   0.244  0.1494 -0.1975  0.2620
16991TIP3    H172464   1.006   4.798   0.158 -0.1795 -0.6453  0.1864
16991TIP3    H272465   1.038   4.804   0.306  0.4410  0.3765  0.0191
16992TIP3   OH272466   1.110   4.298  11.296  0.2391  0.0349  0.0490
16992TIP3    H172467   1.205   4.311  11.296  0.0571  1.4625  0.7010
16992TIP3    H272468   1.081   4.333  11.211  0.2059  0.3318  0.1821
16993TIP3   OH272469   0.890   1.722   3.633  0.0354 -0.0077  0.2178
16993TIP3    H172470   0.972   1.768   3.616 -0.7595  1.7039  0.7784
16993TIP3    H272471   0.854   1.764   3.711 -1.7394 -0.2056 -0.4411
16994TIP3   OH272472   4.432   2.029   5.009 -0.5705 -0.2253 -0.3081
16994TIP3    H172473   4.403   1.964   4.945 -0.8725 -0.5374  0.1370
16994TIP3    H272474   4.466   2.101   4.956 -4.0348  1.1146 -0.9962
16995TIP3   OH272475   6.036   0.085   4.224 -0.1594  0.1040  0.2786
16995TIP3    H172476   6.122   0.062   4.260 -0.8563  0.3610  2.2336
16995TIP3    H272477   6.053   0.158   4.165  1.4141 -2.0712 -2.1611
16996TIP3   OH272478   2.315   0.135   1.815 -0.4107  0.4608 -0.0225
16996TIP3    H172479   2.367   0.087   1.750  0.5939  0.7211  0.5687
16996TIP3    H272480   2.319   0.226   1.785 -0.8602  0.4246 -0.1922
16997TIP3   OH272481   5.551   0.537   4.469 -0.4776  0.1155 -0.2928
16997TIP3    H172482   5.558   0.480   4.545 -1.1131 -0.8273 -0.9272
16997TIP3    H272483   5.639   0.537   4.430 -0.7384 -1.3776 -0.9431
16998TIP3   OH272484   2.243   3.795   5.317  0.1801 -0.6653 -0.5645
16998TIP3    H172485   2.300   3.862   5.279  1.1566 -1.2888 -0.2505
16998TIP3    H272486   2.166   3.794   5.260  0.7854 -0.2687 -1.4176
16999TIP3   OH272487   4.406   3.408  10.848  0.1210 -0.0711 -1.1971
16999TIP3    H172488   4.353   3.440  10.775 -0.1754 -1.2616 -1.5219
16999TIP3    H272489   4.380   3.463  10.922 -1.4300 -0.4891 -1.3952
17000TIP3   OH272490   4.476   2.721  13.579 -0.0406  0.0789  0.5925
17000TIP3    H172491   4.430   2.680  13.652 -1.1380  2.3299  1.2618
17000TIP3    H272492   4.559   2.751  13.616 -0.6057  1.2389  0.9944
17001TIP3   OH272493   0.788   5.423   0.381 -0.2069 -0.3200  0.2514
17001TIP3    H172494   0.808   5.407   0.473  1.0481 -0.5295 -0.0508
17001TIP3    H272495   0.830   5.352   0.333  2.0232  1.5453 -0.7560
17002TIP3   OH272496   4.671   3.435   5.230 -0.3843  0.0304 -0.0326
17002TIP3    H172497   4.730   3.453   5.156  0.4282 -2.4539 -0.0925
17002TIP3    H272498   4.729   3.405   5.300 -1.4598 -2.3379 -0.0407
17003TIP3   OH272499   6.246   2.816   3.986  0.2518 -0.4038 -0.3206
17003TIP3    H172500   6.317   2.822   4.050  1.1945  1.3518 -1.4480
17003TIP3    H272501   6.252   2.898   3.937 -1.2403 -1.1561 -1.8326
17004TIP3   OH272502   4.998   2.558  16.803  0.8546 -0.3447 -0.2151
17004TIP3    H172503   4.904   2.543  16.792  0.9729 -0.7310 -0.7560
17004TIP3    H272504   5.025   2.495  16.869  0.1868  1.8163  2.2652
17005TIP3   OH272505   1.063   5.145  16.936 -0.2875  0.2808 -0.3884
17005TIP3    H172506   1.063   5.237  16.907  2.5866 -0.0938 -1.9763
17005TIP3    H272507   1.025   5.097  16.862 -0.2983  0.0335 -0.2232
17006TIP3   OH272508   4.729   4.791  13.970  0.0868 -0.0666  0.2572
17006TIP3    H172509   4.738   4.876  14.013 -0.6397 -0.0616  0.4094
17006TIP3    H272510   4.700   4.732  14.039 -1.4137  0.0124 -0.2551
17007TIP3   OH272511   2.144   1.735  11.606 -0.2791 -0.0965 -0.4786
17007TIP3    H172512   2.149   1.659  11.663  0.4776 -0.6455 -1.2583
17007TIP3    H272513   2.193   1.710  11.527 -0.1611  1.1259 -0.8173
17008TIP3   OH272514   5.671   2.123  13.245  0.1129 -0.2774  0.0222
17008TIP3    H172515   5.735   2.194  13.237  0.4777 -0.5035  0.8924
17008TIP3    H272516   5.696   2.061  13.177  0.6607 -0.2416  0.1902
17009TIP3   OH272517   6.059   4.559  11.033  0.1120 -0.3513  0.0650
17009TIP3    H172518   6.084   4.505  11.108  0.0889  1.1093  1.1503
17009TIP3    H272519   6.127   4.625  11.026  0.1637 -0.5076 -1.2797
17010TIP3   OH272520   0.595   3.695  14.651 -0.3253 -0.3887 -0.0441
17010TIP3    H172521   0.574   3.651  14.733 -1.0972  1.3709  0.7546
17010TIP3    H272522   0.616   3.624  14.590  0.2788 -1.7440  1.6528
17011TIP3   OH272523   6.036   0.231   0.280  0.7388 -0.6426  0.0145
17011TIP3    H172524   6.117   0.247   0.327  0.1106 -0.5758  1.1023
17011TIP3    H272525   6.007   0.318   0.252  0.8431 -0.6262 -0.0432
17012TIP3   OH272526   2.404   1.950  10.785  0.3109  0.0817  0.1494
17012TIP3    H172527   2.476   1.887  10.793  0.0147 -0.2377  0.3374
17012TIP3    H272528   2.447   2.031  10.757  0.6472 -0.3028 -0.4867
17013TIP3   OH272529   5.412   2.029  14.293 -0.6590 -0.1705  0.2060
17013TIP3    H172530   5.386   1.943  14.326 -0.6200 -0.2434  0.0485
17013TIP3    H272531   5.507   2.022  14.279 -0.6597 -0.1102  0.1706
17014TIP3   OH272532   6.459   4.401   2.204 -0.0633  0.2800 -0.7849
17014TIP3    H172533   6.437   4.393   2.297  1.0280  1.2285 -0.4273
17014TIP3    H272534   6.403   4.471   2.172  0.1931  0.5549 -0.6302
17015TIP3   OH272535   5.514   3.943   4.832  0.0403  0.3382 -0.0275
17015TIP3    H172536   5.596   3.930   4.785  0.3600  0.6289  0.4360
17015TIP3    H272537   5.448   3.901   4.778  0.5068  0.0423 -0.3733
17016TIP3   OH272538   0.952   6.204  10.621  0.1311  0.2213  0.4595
17016TIP3    H172539   1.040   6.174  10.645  0.2985  0.8983  0.7232
17016TIP3    H272540   0.924   6.258  10.695  0.3671  1.7589 -0.5221
17017TIP3   OH272541   5.035   1.449   5.053  0.4891 -0.2116  0.0354
17017TIP3    H172542   5.049   1.536   5.090 -2.0890  0.7545 -1.0151
17017TIP3    H272543   4.979   1.405   5.118  2.9754 -1.7498  1.2985
17018TIP3   OH272544   2.305   4.401   4.661  0.4562 -0.2901  0.0898
17018TIP3    H172545   2.298   4.453   4.741 -0.9305  0.0050 -0.1982
17018TIP3    H272546   2.256   4.452   4.596  0.7736 -0.9869 -0.7106
17019TIP3   OH272547   0.794   6.124   6.223 -0.1108 -0.0453 -0.4456
17019TIP3    H172548   0.754   6.195   6.173 -1.8639 -0.4613  0.2762
17019TIP3    H272549   0.729   6.053   6.221  0.0268 -0.3148  1.8198
17020TIP3   OH272550   1.787   5.908   4.705  0.3268 -0.1658  0.0721
17020TIP3    H172551   1.775   5.820   4.668 -1.3415 -0.0374  0.2275
17020TIP3    H272552   1.877   5.931   4.683  0.7091 -1.8041 -0.2095
17021TIP3   OH272553   0.251   4.033   4.999 -0.3664 -0.0185  0.0524
17021TIP3    H172554   0.287   4.097   4.938 -2.8094  1.7744  0.3191
17021TIP3    H272555   0.290   4.056   5.083 -0.8323  0.8155  0.0508
17022TIP3   OH272556   3.457   4.946  15.489  0.5856  0.2945 -0.0138
17022TIP3    H172557   3.547   4.916  15.495  0.8291  1.1398  0.7848
17022TIP3    H272558   3.430   4.924  15.400  1.9500  1.0503 -0.6411
17023TIP3   OH272559   6.075   1.118   0.682 -0.3321 -0.4432 -0.0630
17023TIP3    H172560   6.084   1.052   0.612  4.5993 -1.2826  1.0037
17023TIP3    H272561   6.094   1.070   0.762 -1.2353  1.4715  1.3626
17024TIP3   OH272562   1.516   1.577   3.907 -0.5000  0.5327  0.2484
17024TIP3    H172563   1.574   1.568   3.982  1.3425  0.2638 -1.1250
17024TIP3    H272564   1.550   1.652   3.859 -0.9979  0.0762 -0.8566
17025TIP3   OH272565   0.736   0.859  14.222  0.1727 -0.2356 -0.5463
17025TIP3    H172566   0.706   0.815  14.302 -2.7957 -0.7745 -1.8274
17025TIP3    H272567   0.824   0.825  14.208  0.6734 -0.3502  2.2843
17026TIP3   OH272568   6.766   1.246  14.342 -0.8585 -0.3312  0.1600
17026TIP3    H172569   6.809   1.274  14.261 -2.6487  0.0883 -0.7104
17026TIP3    H272570   6.806   1.161  14.362 -0.1034 -0.2615 -0.9512
17027TIP3   OH272571   4.039   4.164  13.086  0.3506  0.2916 -0.2366
17027TIP3    H172572   3.998   4.250  13.080  0.3028  0.2622 -0.3324
17027TIP3    H272573   4.119   4.172  13.033 -0.2370 -0.0648 -1.2118
17028TIP3   OH272574   2.009   0.119   0.421  0.5335  0.1439  0.3967
17028TIP3    H172575   1.915   0.132   0.431 -0.0324 -1.8775 -1.6240
17028TIP3    H272576   2.028   0.145   0.331  1.4685 -1.5380  0.0675
17029TIP3   OH272577   5.336   0.748   6.039  0.5734 -0.0414  0.4906
17029TIP3    H172578   5.380   0.730   6.122  1.8236  0.3214 -0.0664
17029TIP3    H272579   5.404   0.787   5.984  0.1774 -1.5418 -1.1776
17030TIP3   OH272580   3.384   3.757   2.196  0.2030  0.7729 -0.3787
17030TIP3    H172581   3.324   3.813   2.246 -1.7075 -0.2824 -1.3551
17030TIP3    H272582   3.356   3.668   2.218  1.5041  0.2377 -0.8216
17031TIP3   OH272583   4.243   1.793  10.655 -0.2448 -0.0331  0.3656
17031TIP3    H172584   4.224   1.713  10.703 -1.5795 -0.4557 -0.8111
17031TIP3    H272585   4.324   1.826  10.694 -0.3881 -1.2405  1.7426
17032TIP3   OH272586   3.191   2.858  11.753 -0.2667  0.4119 -0.1288
17032TIP3    H172587   3.203   2.772  11.713  2.7891  0.8321 -0.3965
17032TIP3    H272588   3.190   2.919  11.679 -0.7249  0.7225  0.1323
17033TIP3   OH272589   0.546   5.372  14.663 -0.5200 -0.0984  0.0224
17033TIP3    H172590   0.542   5.287  14.706 -0.4959 -0.2673 -0.3078
17033TIP3    H272591   0.617   5.363  14.599 -1.3491 -0.2272 -0.8864
17034TIP3   OH272592   2.022   3.975   4.446  0.1199  0.1945 -0.6763
17034TIP3    H172593   2.037   4.069   4.436 -0.3555  0.4137  0.4962
17034TIP3    H272594   2.107   3.939   4.471  0.0685  0.4891 -0.0592
17035TIP3   OH272595   1.163   2.611  13.131  0.5569  0.1880  0.0462
17035TIP3    H172596   1.121   2.696  13.137 -0.1285 -0.0764 -0.9106
17035TIP3    H272597   1.114   2.555  13.192  0.9434  0.4304  0.5953
17036TIP3   OH272598   6.459   6.347   5.948 -0.3839 -0.5028  0.2270
17036TIP3    H172599   6.366   6.342   5.929 -0.5714  0.8480  0.6763
17036TIP3    H272600   6.481   6.261   5.982 -0.8425 -1.7728 -2.4019
17037TIP3   OH272601   4.393   1.506   1.608 -0.8028 -0.1170 -0.0041
17037TIP3    H172602   4.353   1.530   1.692 -0.0744  0.6955  0.1309
17037TIP3    H272603   4.471   1.456   1.633 -1.3517 -1.0944 -0.2404
17038TIP3   OH272604   5.425   5.938   6.739  0.1013  0.0436  0.0660
17038TIP3    H172605   5.420   6.025   6.699 -0.8488  0.2025  0.5013
17038TIP3    H272606   5.336   5.903   6.730  0.5180 -0.9600 -0.2699
17039TIP3   OH272607   1.883   5.649   5.567 -0.0778 -0.2726  0.5336
17039TIP3    H172608   1.820   5.684   5.630  0.2231 -1.3992  1.4971
17039TIP3    H272609   1.948   5.719   5.557 -0.5314  0.2048  0.8975
17040TIP3   OH272610   6.016   0.330   6.100  0.4997  0.5155  0.7152
17040TIP3    H172611   5.963   0.410   6.105  1.7067  1.3023  1.9661
17040TIP3    H272612   5.976   0.270   6.163  0.3365  0.6195  0.7103
17041TIP3   OH272613   1.631   2.468  13.274  0.1052 -0.3040  0.1513
17041TIP3    H172614   1.708   2.502  13.319 -0.5207  2.1822 -0.4968
17041TIP3    H272615   1.581   2.422  13.341  1.1857 -0.2638  1.0018
17042TIP3   OH272616   5.579   4.673   2.715  0.4901 -0.2663 -0.5232
17042TIP3    H172617   5.584   4.626   2.632 -2.6217 -0.8425 -0.4862
17042TIP3    H272618   5.521   4.621   2.770  2.5158  0.0515  2.1392
17043TIP3   OH272619   1.898   1.101   0.816 -0.3062 -0.5710  0.6690
17043TIP3    H172620   1.980   1.096   0.866  0.0229 -1.3343  0.0734
17043TIP3    H272621   1.833   1.132   0.880 -0.0728 -2.2663  1.7989
17044TIP3   OH272622   6.548   5.330   4.790 -0.0430  0.0207  0.4558
17044TIP3    H172623   6.555   5.263   4.722  1.1049  0.2608  0.3249
17044TIP3    H272624   6.619   5.309   4.851  2.5732  3.0035 -1.2847
17045TIP3   OH272625   3.324   4.041  12.214  0.5399 -0.4854 -0.0545
17045TIP3    H172626   3.239   4.023  12.174 -0.7048 -0.9857  2.5955
17045TIP3    H272627   3.385   4.044  12.140 -1.5198 -1.5417 -1.9240
17046TIP3   OH272628   0.649   0.853  13.672 -0.0133 -0.3157 -0.1364
17046TIP3    H172629   0.726   0.908  13.659  0.1463 -0.4705  0.1349
17046TIP3    H272630   0.648   0.836  13.766  0.0653 -0.9556 -0.2472
17047TIP3   OH272631   4.383   3.967  15.319 -0.4554 -0.2981 -0.1577
17047TIP3    H172632   4.465   3.994  15.362 -1.0885  0.0042  0.9104
17047TIP3    H272633   4.386   3.872  15.319 -0.4815 -0.3101  0.6766
17048TIP3   OH272634   6.422   4.519   3.222 -0.5501  0.0237 -0.2288
17048TIP3    H172635   6.489   4.515   3.154 -0.4998 -1.5038 -0.1351
17048TIP3    H272636   6.341   4.493   3.177 -0.7644  0.2825  0.0042
17049TIP3   OH272637   6.379   1.581   2.800 -0.3901  0.3516 -0.0963
17049TIP3    H172638   6.394   1.543   2.714  0.1877 -0.0036  0.1525
17049TIP3    H272639   6.301   1.636   2.789 -0.5578 -0.0022 -0.7401
17050TIP3   OH272640   0.025   0.276   3.374 -0.1855 -0.1503 -0.1141
17050TIP3    H172641   0.062   0.205   3.321 -0.9281 -0.6679  0.0354
17050TIP3    H272642  -0.003   0.342   3.311 -1.7566 -1.0911 -0.4588
17051TIP3   OH272643   5.726   1.918   1.499  0.1057 -0.0627 -0.2571
17051TIP3    H172644   5.749   1.938   1.408  1.4895 -0.5176 -0.0263
17051TIP3    H272645   5.749   1.998   1.548 -0.2294  0.0222 -0.2328
17052TIP3   OH272646   6.170   1.004  16.012  0.2142 -0.3443 -0.0215
17052TIP3    H172647   6.154   1.054  16.092 -2.6141 -1.4588  0.2484
17052TIP3    H272648   6.128   1.056  15.943  2.6609  0.6309 -0.8878
17053TIP3   OH272649   1.088   0.945   2.575 -0.9366 -0.3678  0.3740
17053TIP3    H172650   1.180   0.969   2.584 -1.0225 -0.2229  0.8923
17053TIP3    H272651   1.082   0.857   2.612 -0.6942 -1.0700 -1.1817
17054TIP3   OH272652   0.100   1.913   1.414 -0.7995 -0.6006 -0.0338
17054TIP3    H172653   0.158   1.844   1.381  1.6503  1.3152 -0.0608
17054TIP3    H272654   0.069   1.879   1.498  1.9696 -1.0196  0.9355
17055TIP3   OH272655   4.324   4.810   1.437 -0.0501  0.4127 -0.2741
17055TIP3    H172656   4.334   4.887   1.381  0.4034  0.7339  0.2385
17055TIP3    H272657   4.406   4.804   1.486 -0.8817  0.8755  1.2715
17056TIP3   OH272658   0.528   6.795   2.530 -0.2013 -1.3173 -0.2941
17056TIP3    H172659   0.557   6.845   2.454  2.3424 -0.4014  1.1538
17056TIP3    H272660   0.488   6.716   2.493 -0.6194 -0.1356 -2.5561
17057TIP3   OH272661   0.204   6.321   1.022  0.0604  0.5008 -0.3014
17057TIP3    H172662   0.145   6.326   1.097  1.1211  1.8200  0.4898
17057TIP3    H272663   0.196   6.406   0.980  0.8232  0.4219 -0.6179
17058TIP3   OH272664   3.941   2.112   5.222  0.0917  0.2032 -0.2195
17058TIP3    H172665   4.012   2.059   5.186  2.3373  1.8950  1.4585
17058TIP3    H272666   3.899   2.055   5.287 -0.2147 -0.8297 -1.2742
17059TIP3   OH272667   0.846   1.014   0.806  0.9933  0.1634 -0.0924
17059TIP3    H172668   0.818   0.925   0.787 -1.1317  1.3993 -3.8501
17059TIP3    H272669   0.779   1.049   0.864 -0.8128  0.5587 -2.2842
17060TIP3   OH272670   4.291   4.552  15.731 -0.4638  0.2011 -0.2066
17060TIP3    H172671   4.323   4.475  15.778  0.4774 -0.1438 -1.3749
17060TIP3    H272672   4.369   4.592  15.693 -0.8534  2.0552  0.7828
17061TIP3   OH272673   2.435   1.690  14.820 -0.3445 -0.1897 -1.2240
17061TIP3    H172674   2.347   1.661  14.843 -0.1028 -1.2481 -1.6098
17061TIP3    H272675   2.432   1.785  14.832 -0.5378 -0.4821  2.1313
17062TIP3   OH272676   0.024   5.115   4.673  0.2232 -0.0022  0.5853
17062TIP3    H172677  -0.046   5.092   4.734 -1.3806  1.1488 -0.7359
17062TIP3    H272678   0.086   5.164   4.726 -1.3486  1.3681  1.2498
17063TIP3   OH272679   0.567   1.297   1.015  0.0379 -0.1269  0.1109
17063TIP3    H172680   0.620   1.221   1.037  1.5446  1.1570  1.1545
17063TIP3    H272681   0.627   1.354   0.966 -0.7052  0.8908  0.3557
17064TIP3   OH272682   3.720   2.303  12.475 -0.5374 -0.0246  0.3468
17064TIP3    H172683   3.762   2.381  12.512 -1.0900 -1.0796  3.5054
17064TIP3    H272684   3.660   2.338  12.409  0.9152  1.9816 -0.0200
17065TIP3   OH272685   6.025   4.323   3.596 -0.5012  0.0236 -0.5666
17065TIP3    H172686   6.053   4.334   3.687  2.9670  0.3936 -1.5412
17065TIP3    H272687   6.068   4.243   3.567 -0.0953  0.8215 -2.3270
17066TIP3   OH272688   3.688   5.889  16.858 -0.0722  0.6421  0.3760
17066TIP3    H172689   3.617   5.832  16.887 -1.9611  1.8956 -1.4872
17066TIP3    H272690   3.697   5.871  16.765 -0.4694  3.0030 -0.1953
17067TIP3   OH272691   2.830   4.346   2.721  0.0307 -0.2537 -0.6176
17067TIP3    H172692   2.765   4.376   2.784 -1.6117 -0.4201 -2.1369
17067TIP3    H272693   2.834   4.251   2.733  1.7560 -0.0361  1.0131
17068TIP3   OH272694   1.015   5.683   3.844 -0.2050 -0.1269 -0.4228
17068TIP3    H172695   0.960   5.728   3.780 -1.4258 -0.1480  0.5577
17068TIP3    H272696   1.060   5.753   3.891 -0.9818  0.0240  0.1252
17069TIP3   OH272697   4.068   5.670  14.866  0.1221 -0.1334  0.0384
17069TIP3    H172698   4.040   5.583  14.895  0.9037 -0.5630 -0.4493
17069TIP3    H272699   4.099   5.713  14.945  2.5960 -1.4252 -0.1266
17070TIP3   OH272700   2.058   0.796  16.794  0.0662  0.3955 -0.7109
17070TIP3    H172701   2.025   0.833  16.712 -0.2125 -1.0263 -1.2828
17070TIP3    H272702   2.019   0.849  16.863 -0.2497  1.1863 -1.4810
17071TIP3   OH272703   6.013   0.848   5.850 -0.7428  0.6215  1.0920
17071TIP3    H172704   6.047   0.774   5.900 -1.3598  0.0968  0.7524
17071TIP3    H272705   6.083   0.912   5.851 -0.9825  0.9443  3.2814
17072TIP3   OH272706   4.612   0.511   1.664  0.4858  0.4105 -0.2279
17072TIP3    H172707   4.577   0.473   1.744  1.9503  0.5336  0.5140
17072TIP3    H272708   4.702   0.479   1.660  0.9545  1.7369 -0.9365
17073TIP3   OH272709   5.481   3.655  12.595 -0.3912 -0.1337  0.1926
17073TIP3    H172710   5.510   3.630  12.683 -1.3472 -1.0708  0.2571
17073TIP3    H272711   5.386   3.647  12.597 -0.4396 -0.0368 -0.8894
17074TIP3   OH272712   3.962   1.847  15.026  0.1084 -0.3457 -0.6237
17074TIP3    H172713   3.943   1.926  14.975  0.3076 -0.0878 -0.3016
17074TIP3    H272714   3.906   1.855  15.104  0.1754 -0.4904 -0.5611
17075TIP3   OH272715   6.049   5.712   3.095 -0.0172  0.9821 -0.6774
17075TIP3    H172716   6.137   5.685   3.121 -0.0757  1.3644 -0.0510
17075TIP3    H272717   5.991   5.644   3.130 -0.0489  1.2303 -0.2306
17076TIP3   OH272718   0.856   5.453   3.835 -0.2628 -0.0518 -0.2401
17076TIP3    H172719   0.919   5.525   3.828 -0.1641 -0.2106 -1.0965
17076TIP3    H272720   0.891   5.385   3.778 -2.2443  0.6257 -2.4333
17077TIP3   OH272721   0.910   4.416   5.441  0.3539  0.2790 -0.0655
17077TIP3    H172722   0.962   4.444   5.517  0.9480 -0.1243 -0.3240
17077TIP3    H272723   0.933   4.478   5.372  0.3431  0.2167 -0.1249
17078TIP3   OH272724   4.103   5.999  16.919  0.2802  0.0952  0.3256
17078TIP3    H172725   4.193   5.981  16.892  0.3020 -1.8361  1.5501
17078TIP3    H272726   4.108   6.017  17.013 -0.3786  2.2239  0.0290
17079TIP3   OH272727   0.547   0.856  11.639 -0.3954  0.3634 -0.1662
17079TIP3    H172728   0.539   0.863  11.544  0.5580 -2.5648 -0.5834
17079TIP3    H272729   0.462   0.824  11.668 -1.0258  2.2519  0.1476
17080TIP3   OH272730   4.674   6.093   5.038 -0.3506  0.9836 -0.2261
17080TIP3    H172731   4.606   6.032   5.009  0.7855  0.4015 -1.8211
17080TIP3    H272732   4.638   6.180   5.022 -0.9554  0.6863 -0.4778
17081TIP3   OH272733   1.525   2.100   5.746 -0.0328  0.6568  0.3480
17081TIP3    H172734   1.596   2.157   5.779 -1.8415  2.6120  1.1500
17081TIP3    H272735   1.546   2.013   5.780  1.4893  1.3747  1.3553
17082TIP3   OH272736   6.308   0.926   4.785  0.2032 -0.4515 -0.0959
17082TIP3    H172737   6.388   0.872   4.785  0.1512 -0.6832 -2.8353
17082TIP3    H272738   6.240   0.866   4.754 -0.4951  0.3914 -0.2036
17083TIP3   OH272739   3.574   3.134  11.701 -0.1959 -0.2045  0.6687
17083TIP3    H172740   3.667   3.124  11.682 -0.3820  0.7155 -0.9459
17083TIP3    H272741   3.572   3.171  11.790  0.9894  0.0794  0.6001
17084TIP3   OH272742   5.496   3.392   5.919  0.1615  0.8782 -0.4867
17084TIP3    H172743   5.534   3.475   5.891 -1.1864  2.2294  1.3531
17084TIP3    H272744   5.402   3.410   5.924 -0.0476 -0.3994  1.0251
17085TIP3   OH272745   5.629   3.973  12.143 -0.1435  0.5192  0.1107
17085TIP3    H172746   5.678   4.031  12.201  1.4990  0.6173 -1.2976
17085TIP3    H272747   5.668   3.887  12.156 -0.9926  0.1716  0.4569
17086TIP3   OH272748   4.684   3.311   6.273  0.0651  0.2691 -0.6048
17086TIP3    H172749   4.618   3.376   6.249  0.6780  1.1147 -0.0543
17086TIP3    H272750   4.678   3.304   6.368  1.2826  0.9415 -0.4594
17087TIP3   OH272751   6.632   5.834  12.921 -0.2069 -0.5838 -0.1742
17087TIP3    H172752   6.698   5.897  12.893 -0.4412  0.2214  1.0345
17087TIP3    H272753   6.563   5.841  12.855 -0.0536  0.1421 -0.2601
17088TIP3   OH272754   5.808   0.828  14.514 -0.4381  0.0401  0.1632
17088TIP3    H172755   5.846   0.878  14.587 -0.6643  0.8087 -0.2357
17088TIP3    H272756   5.737   0.778  14.554  1.2669 -1.7983  1.0164
17089TIP3   OH272757   2.022   0.513  16.850  0.0918 -0.5208 -0.0718
17089TIP3    H172758   2.021   0.607  16.836 -0.1464 -0.7433 -1.7416
17089TIP3    H272759   2.106   0.496  16.893 -0.0517  0.4840  0.6421
17090TIP3   OH272760   2.333   6.734  17.081 -0.5222 -0.0042  0.5775
17090TIP3    H172761   2.314   6.817  17.124 -0.7984 -0.4707  1.3868
17090TIP3    H272762   2.272   6.731  17.008 -1.0786  0.1504  1.0228
17091TIP3   OH272763   3.784   2.787   1.356  0.1458 -0.2678 -0.1135
17091TIP3    H172764   3.854   2.796   1.421 -0.8718 -2.8116  1.5091
17091TIP3    H272765   3.829   2.770   1.274  1.4918  3.4329 -0.2881
17092TIP3   OH272766   1.829   1.808  10.361  0.0306  0.5474 -0.6170
17092TIP3    H172767   1.855   1.725  10.319 -1.4182  0.6307 -1.7858
17092TIP3    H272768   1.740   1.822  10.330  0.8370  3.4573 -1.9191
17093TIP3   OH272769   6.602   4.921   1.621  0.3297  0.1803  0.1073
17093TIP3    H172770   6.685   4.896   1.580 -0.1700 -0.9813 -0.2310
17093TIP3    H272771   6.543   4.937   1.547 -0.7637 -2.5442  0.2716
17094TIP3   OH272772   5.591   3.430  14.347 -0.1106  0.1397 -0.0976
17094TIP3    H172773   5.620   3.495  14.410  0.3421 -0.6847  0.5743
17094TIP3    H272774   5.672   3.387  14.319 -0.4707 -0.6625  0.0679
17095TIP3   OH272775   6.484   0.969  14.848 -0.3116 -0.1101  0.5169
17095TIP3    H172776   6.524   0.954  14.763 -1.1678 -0.7323  0.2153
17095TIP3    H272777   6.403   1.016  14.828 -0.5875 -0.3867  0.9821
17096TIP3   OH272778   4.501   6.350   0.434 -0.1945 -0.2605  0.1541
17096TIP3    H172779   4.413   6.322   0.408 -0.9229 -2.2622  3.9797
17096TIP3    H272780   4.558   6.279   0.406 -0.5903 -1.1895  1.5746
17097TIP3   OH272781   4.767   1.595   1.466  0.2763 -0.7955 -0.4394
17097TIP3    H172782   4.701   1.560   1.406 -0.7546 -0.5367  0.5061
17097TIP3    H272783   4.836   1.628   1.409 -1.6142  1.3983 -1.6485
17098TIP3   OH272784   0.520   6.796  14.701  0.2831 -0.3148 -0.1553
17098TIP3    H172785   0.565   6.781  14.784 -1.0552  0.2118  0.6849
17098TIP3    H272786   0.564   6.872  14.663  0.9695 -0.6253 -0.0002
17099TIP3   OH272787   3.936   5.744  14.646 -0.2723  0.7532  0.2403
17099TIP3    H172788   3.932   5.671  14.584 -0.2790  2.0294 -1.3259
17099TIP3    H272789   3.973   5.705  14.726 -0.9000 -1.0946 -0.3096
17100TIP3   OH272790   2.125   5.445  13.996 -0.2395 -0.3871  0.7431
17100TIP3    H172791   2.219   5.461  13.995 -0.1967 -0.6569  0.2111
17100TIP3    H272792   2.095   5.481  14.079 -0.1575  2.4416 -0.3551
17101TIP3   OH272793   3.984   6.458   0.334 -0.3008  0.7109 -0.2118
17101TIP3    H172794   4.000   6.547   0.368 -1.9359  0.1859  2.1686
17101TIP3    H272795   3.909   6.468   0.276 -0.7218  0.8228  0.3502
17102TIP3   OH272796   3.481   4.571  13.602  0.2823 -0.3072  0.5929
17102TIP3    H172797   3.508   4.630  13.532  0.2778  0.1618  0.9862
17102TIP3    H272798   3.530   4.491  13.586  0.3420 -0.1753  0.0994
17103TIP3   OH272799   0.560   3.389   3.229  0.0005 -0.3196  0.8783
17103TIP3    H172800   0.636   3.374   3.285  0.0014  1.5656  1.4640
17103TIP3    H272801   0.596   3.387   3.140  0.7028  0.2152  1.1315
17104TIP3   OH272802   5.271   1.149   1.885 -0.7356 -0.0148  0.3555
17104TIP3    H172803   5.272   1.058   1.855 -1.5006  0.2520 -0.5653
17104TIP3    H272804   5.188   1.183   1.852 -0.5089  0.9843  0.7959
17105TIP3   OH272805   5.180   0.763  17.066 -0.6677  0.2495 -0.9904
17105TIP3    H172806   5.113   0.799  17.123 -0.5194 -1.3308  0.2593
17105TIP3    H272807   5.134   0.695  17.016 -0.1598 -0.4193 -0.5700
17106TIP3   OH272808   0.321   5.226   5.573  0.2396  0.0980 -0.3614
17106TIP3    H172809   0.351   5.141   5.542  1.3244  0.0839  0.6497
17106TIP3    H272810   0.313   5.279   5.494  1.4257 -0.3777 -0.8307
17107TIP3   OH272811   1.126   3.106   3.016  0.0328  0.1069 -0.8562
17107TIP3    H172812   1.041   3.140   3.044 -0.6876 -1.5837 -0.8668
17107TIP3    H272813   1.189   3.148   3.074 -0.9152  0.6271 -0.1831
17108TIP3   OH272814   4.889   4.012  16.882 -0.7642 -1.0152 -0.0458
17108TIP3    H172815   4.848   3.942  16.831 -0.6996 -1.1489  0.0829
17108TIP3    H272816   4.972   4.028  16.838  0.1622 -2.4408  1.0883
17109TIP3   OH272817   6.308   1.698   6.013  0.1303 -0.4874 -0.3731
17109TIP3    H172818   6.370   1.676   6.083 -1.1813 -0.8173  0.7368
17109TIP3    H272819   6.273   1.614   5.985 -1.3219 -0.2036  0.4777
17110TIP3   OH272820   3.165   5.664  13.913  0.0804  0.0032 -0.2001
17110TIP3    H172821   3.251   5.700  13.936 -0.3674  1.1042 -0.1664
17110TIP3    H272822   3.109   5.690  13.986 -0.4062 -0.2123 -0.4990
17111TIP3   OH272823   2.373   1.199   2.539  1.0094 -0.4304  0.0596
17111TIP3    H172824   2.432   1.151   2.598 -0.2917 -1.2842  0.7181
17111TIP3    H272825   2.288   1.155   2.549  0.0029  1.3682 -0.0986
17112TIP3   OH272826   0.899   1.906  12.358  0.4922 -0.6726  0.1569
17112TIP3    H172827   0.948   1.914  12.275  1.5164 -0.5654  0.7554
17112TIP3    H272828   0.929   1.980  12.410 -0.3367 -0.6001  0.5377
17113TIP3   OH272829   4.577   3.993   2.729 -0.0524  0.6870  0.3306
17113TIP3    H172830   4.499   3.976   2.675  0.0069 -0.6068  0.6070
17113TIP3    H272831   4.553   3.961   2.816  0.8425  0.1071  0.3732
17114TIP3   OH272832   1.038   0.881  15.737 -0.5230  0.5211  0.6127
17114TIP3    H172833   1.021   0.927  15.819 -0.6147  1.4024  0.1167
17114TIP3    H272834   0.968   0.816  15.732 -1.0836  1.1016  0.7753
17115TIP3   OH272835   5.814   1.014   1.378  0.2010  0.0112 -0.0948
17115TIP3    H172836   5.835   0.921   1.375 -0.4616 -0.2008  0.9776
17115TIP3    H272837   5.887   1.057   1.334 -0.1685 -1.0956 -1.8827
17116TIP3   OH272838   4.703   2.862  12.388  0.0232 -0.0053 -0.3800
17116TIP3    H172839   4.664   2.802  12.324 -1.2291  1.3811 -0.9847
17116TIP3    H272840   4.628   2.911  12.422  0.8891  0.4467  0.9195
17117TIP3   OH272841   4.455   1.614  16.418 -0.3830 -0.1049  0.4638
17117TIP3    H172842   4.486   1.525  16.402  0.6872 -0.1873  2.7145
17117TIP3    H272843   4.470   1.660  16.335  1.2590 -1.4184 -0.0092
17118TIP3   OH272844   4.649   2.068  16.922 -0.8339 -0.2248 -0.0951
17118TIP3    H172845   4.644   2.033  16.832 -1.3193 -2.4455  0.7191
17118TIP3    H272846   4.657   1.990  16.977  2.9169  1.1690  1.6547
17119TIP3   OH272847   2.493   3.088   5.240 -0.0122  0.0332  0.7252
17119TIP3    H172848   2.574   3.045   5.214  0.7608  3.2361 -3.0674
17119TIP3    H272849   2.424   3.030   5.208  0.8193 -0.9829  0.7096
17120TIP3   OH272850   5.584   2.570   1.652 -0.1563 -0.4536 -0.2130
17120TIP3    H172851   5.659   2.598   1.600  0.3345 -1.1449  0.1012
17120TIP3    H272852   5.618   2.564   1.741 -1.5872  3.0889  0.7003
17121TIP3   OH272853   6.278   3.027   2.588  0.1647  0.1709 -0.2495
17121TIP3    H172854   6.362   2.998   2.553  0.5149  0.3634  0.4067
17121TIP3    H272855   6.215   3.007   2.519  0.6066 -0.8264 -0.3884
17122TIP3   OH272856   2.023   4.682  15.234  0.4029 -0.7145 -0.6586
17122TIP3    H172857   2.089   4.716  15.175  0.1348  0.6125 -0.2199
17122TIP3    H272858   2.044   4.589  15.243  1.0356 -0.7243 -2.0331
17123TIP3   OH272859   5.172   2.922   4.104  0.1177 -0.3586 -0.0986
17123TIP3    H172860   5.199   2.854   4.166  2.0119  1.3266  1.0597
17123TIP3    H272861   5.184   2.883   4.018  0.1803 -1.8123  0.5484
17124TIP3   OH272862   1.123   3.414   0.430  0.1091  0.5406  0.0493
17124TIP3    H172863   1.030   3.399   0.413  0.4123  1.2260 -2.7617
17124TIP3    H272864   1.127   3.501   0.469 -0.4030  0.6184 -0.0699
17125TIP3   OH272865   1.557   2.499   0.175 -0.3007  0.0760  0.4470
17125TIP3    H172866   1.628   2.460   0.226 -1.7126 -1.6100  1.1917
17125TIP3    H272867   1.585   2.489   0.084  0.7758  0.1824  0.7473
17126TIP3   OH272868   4.207   1.573  10.788 -0.1829  0.5883 -0.5092
17126TIP3    H172869   4.173   1.488  10.762  1.5099  0.0726 -1.1823
17126TIP3    H272870   4.152   1.600  10.861  1.2449 -2.5828  1.9480
17127TIP3   OH272871   6.102   4.676  15.713  0.4966  0.4659  0.0361
17127TIP3    H172872   6.081   4.769  15.709 -0.1396  0.2914 -0.7850
17127TIP3    H272873   6.031   4.633  15.665 -0.2341 -0.6156  1.9880
17128TIP3   OH272874   5.418   1.108   5.287  0.1516 -0.7154 -0.0523
17128TIP3    H172875   5.330   1.080   5.260  0.0260  0.2404 -0.6868
17128TIP3    H272876   5.407   1.200   5.309  1.2132 -0.2998 -1.1778
17129TIP3   OH272877   4.365   3.459  14.640  0.4207 -0.0354 -0.3687
17129TIP3    H172878   4.412   3.468  14.557 -0.2289  0.0858 -0.7303
17129TIP3    H272879   4.316   3.541  14.649 -1.5777 -1.0862 -1.1687
17130TIP3   OH272880   6.312   6.235  15.450 -0.3089 -0.1245  0.3424
17130TIP3    H172881   6.331   6.142  15.443 -0.1773 -0.1919  1.3785
17130TIP3    H272882   6.259   6.242  15.530 -1.5299  0.5157 -0.4917
17131TIP3   OH272883   2.357   3.010   0.677 -0.5717 -0.0574  0.7046
17131TIP3    H172884   2.384   3.079   0.617  0.8545  0.2808  1.6825
17131TIP3    H272885   2.422   2.941   0.666 -0.6004 -0.2134  1.4668
17132TIP3   OH272886   0.664   5.435  12.084  0.0768  0.0109  0.3692
17132TIP3    H172887   0.579   5.392  12.076  0.2869 -0.2093 -0.9571
17132TIP3    H272888   0.725   5.374  12.043  0.5076  1.1720 -0.7922
17133TIP3   OH272889   2.225   0.530  14.832 -0.0458  0.1446  0.2099
17133TIP3    H172890   2.176   0.558  14.755  2.8983  0.3665 -1.7615
17133TIP3    H272891   2.246   0.438  14.815  0.6172  0.1794  0.7790
17134TIP3   OH272892   2.218   3.626   3.562 -0.6149  0.0789 -0.4858
17134TIP3    H172893   2.128   3.650   3.583 -0.7250  0.8016 -1.6765
17134TIP3    H272894   2.218   3.530   3.568 -1.1130  0.1394  0.7759
17135TIP3   OH272895   3.029   4.509  13.227  0.6500 -0.6250  0.0699
17135TIP3    H172896   2.993   4.528  13.313 -0.3772 -0.4289 -0.3869
17135TIP3    H272897   2.973   4.440  13.191  2.2952 -2.2022  0.3508
17136TIP3   OH272898   2.273   0.363   2.030 -0.4364  0.5716  0.1150
17136TIP3    H172899   2.262   0.270   2.010  0.1408  0.8010 -1.4027
17136TIP3    H272900   2.184   0.399   2.029 -0.7639 -0.0876  1.5945
17137TIP3   OH272901   1.519   4.749  13.331  0.1584  0.6753 -0.4632
17137TIP3    H172902   1.446   4.790  13.377 -0.1521  1.0586 -1.2667
17137TIP3    H272903   1.587   4.817  13.327  1.2059 -0.1780  1.6628
17138TIP3   OH272904   1.834   3.909   4.635 -0.1204 -0.3956  0.6255
17138TIP3    H172905   1.887   3.933   4.559 -1.8863  0.0803 -0.5160
17138TIP3    H272906   1.894   3.917   4.710  0.7922  2.6002 -0.2868
17139TIP3   OH272907   2.503   2.808  15.757  0.6810 -0.3858 -0.3744
17139TIP3    H172908   2.532   2.740  15.817  0.8310  0.6893  0.8294
17139TIP3    H272909   2.448   2.763  15.693 -0.2467 -1.4457  1.1082
17140TIP3   OH272910   5.845   6.647   3.248  0.2452 -0.4597 -0.3485
17140TIP3    H172911   5.874   6.570   3.199  1.9599  0.1469 -0.3617
17140TIP3    H272912   5.755   6.661   3.220  0.6688 -1.0586 -2.1354
17141TIP3   OH272913   3.804   4.731   5.305  0.4384  0.2406  0.4941
17141TIP3    H172914   3.795   4.821   5.275 -0.9300  0.4294  1.3940
17141TIP3    H272915   3.819   4.681   5.225  2.4939  1.3838  0.1060
17142TIP3   OH272916   3.960   6.621   4.966 -0.1975 -0.0263  0.1663
17142TIP3    H172917   3.943   6.543   4.913  1.2906 -0.6303  0.4915
17142TIP3    H272918   3.877   6.667   4.970 -1.3848 -2.1031  0.7596
17143TIP3   OH272919   3.169   1.038   1.321 -0.0060  0.4151  0.3900
17143TIP3    H172920   3.233   1.009   1.256 -1.7003 -3.3768  0.1407
17143TIP3    H272921   3.195   0.993   1.402 -1.2991  0.1936  0.7099
17144TIP3   OH272922   1.523   0.341  15.327  0.2471  0.4834  0.5753
17144TIP3    H172923   1.540   0.251  15.353  1.4992  1.0590  1.8317
17144TIP3    H272924   1.435   0.359  15.361  0.2546 -0.0434  0.8868
17145TIP3   OH272925   1.258   2.316   1.725  0.1726 -0.0746 -0.0852
17145TIP3    H172926   1.239   2.407   1.702  0.9637  0.2181  0.4069
17145TIP3    H272927   1.291   2.277   1.643  0.2953  0.2066 -0.1696
17146TIP3   OH272928   3.571   6.709  13.492 -0.0098 -0.0958  0.7953
17146TIP3    H172929   3.519   6.634  13.521 -0.5474 -0.6929 -1.5446
17146TIP3    H272930   3.652   6.671  13.457 -0.8980  0.1720 -1.7868
17147TIP3   OH272931   0.676   2.078   5.360 -1.0856  0.0366 -0.5306
17147TIP3    H172932   0.636   2.157   5.397 -0.8660 -0.7031  1.4494
17147TIP3    H272933   0.626   2.006   5.399  1.9091 -0.9313  1.9708
17148TIP3   OH272934   4.035   6.792  17.081 -0.2106 -0.0913  0.6644
17148TIP3    H172935   4.075   6.753  17.003 -2.2152  0.3280 -0.6444
17148TIP3    H272936   3.987   6.720  17.122 -0.4423  0.0420  0.6288
17149TIP3   OH272937   3.588   4.178  13.190  0.1151  0.1357 -0.5216
17149TIP3    H172938   3.631   4.127  13.121 -2.0778 -1.0206 -1.1142
17149TIP3    H272939   3.497   4.186  13.161 -0.6316  0.5068  1.7325
17150TIP3   OH272940   0.227   3.360   3.767 -1.1088  0.1245  0.3980
17150TIP3    H172941   0.140   3.327   3.787 -1.4320  0.2338 -0.7231
17150TIP3    H272942   0.231   3.358   3.671  0.3808 -0.5272  0.4563
17151TIP3   OH272943   1.895   0.544   2.736 -0.3764  0.4235  0.6309
17151TIP3    H172944   1.932   0.460   2.763 -1.2790  0.4601  2.0568
17151TIP3    H272945   1.807   0.545   2.773 -1.8886  0.3629 -2.5812
17152TIP3   OH272946   0.524   4.518   4.567  0.8287 -0.0490 -0.0788
17152TIP3    H172947   0.584   4.463   4.517  1.7004  2.3184 -1.8595
17152TIP3    H272948   0.578   4.555   4.637  0.8389  0.2022 -0.2164
17153TIP3   OH272949   2.813   1.843   5.963  0.5312  0.6958 -0.1169
17153TIP3    H172950   2.792   1.753   5.988 -0.0125  1.3382  1.9410
17153TIP3    H272951   2.740   1.895   5.996  0.3180  1.8113 -2.1999
17154TIP3   OH272952   4.703   3.047   5.511 -0.3923  0.9201 -0.2650
17154TIP3    H172953   4.779   2.992   5.493  0.0323  1.0754  0.9681
17154TIP3    H272954   4.630   2.985   5.520 -0.0005  0.5899  0.6920
17155TIP3   OH272955   4.425   4.450   4.604  0.0845  0.3906  0.1419
17155TIP3    H172956   4.421   4.545   4.618 -0.0687  0.2552  1.1310
17155TIP3    H272957   4.407   4.438   4.511  0.6550  1.3694 -0.1049
17156TIP3   OH272958   6.730   1.951   4.137  0.2317 -1.1958 -0.1871
17156TIP3    H172959   6.743   2.040   4.171 -1.0188 -1.6174  1.5806
17156TIP3    H272960   6.817   1.921   4.113  0.7866  0.2206 -0.0345
17157TIP3   OH272961   4.974   0.517  15.135  0.2439 -0.0223  0.1160
17157TIP3    H172962   4.931   0.438  15.102 -0.6464  0.9134 -1.0510
17157TIP3    H272963   5.063   0.512  15.101  0.3320 -0.7457  0.4412
17158TIP3   OH272964   3.617   3.094   2.901 -0.4603  0.1789 -0.2869
17158TIP3    H172965   3.592   3.179   2.865 -0.5240 -0.3696 -1.5917
17158TIP3    H272966   3.550   3.076   2.967 -1.4478  0.3922 -1.1927
17159TIP3   OH272967   3.273   1.668  13.825  0.0878 -0.5058  0.2918
17159TIP3    H172968   3.212   1.706  13.762 -1.1829 -1.0131  1.1469
17159TIP3    H272969   3.328   1.741  13.853 -1.5592  0.5248  1.0681
17160TIP3   OH272970   1.217   2.633   1.054 -0.0417 -0.1127 -0.2405
17160TIP3    H172971   1.236   2.694   1.125 -0.1187 -1.5147  1.0303
17160TIP3    H272972   1.291   2.574   1.052 -0.5168 -0.7116 -0.6517
17161TIP3   OH272973   1.175   5.772   4.560  0.2577 -0.1368  0.4724
17161TIP3    H172974   1.215   5.689   4.533 -0.5188 -0.8755  1.4866
17161TIP3    H272975   1.082   5.761   4.540  0.1855  0.5771  0.4144
17162TIP3   OH272976   2.551   0.509   3.559 -0.0869 -0.5338 -0.2781
17162TIP3    H172977   2.612   0.566   3.607 -0.1020 -0.7496 -0.0026
17162TIP3    H272978   2.580   0.420   3.579 -2.0634 -0.7409  1.9749
17163TIP3   OH272979   2.356   5.372   5.630  0.2110 -0.3270  0.1864
17163TIP3    H172980   2.340   5.315   5.554  3.2010 -1.0015 -0.0474
17163TIP3    H272981   2.386   5.454   5.593 -1.3060  0.4547  0.6143
17164TIP3   OH272982   2.403   1.516  15.316 -0.5279  0.7369  0.5869
17164TIP3    H172983   2.348   1.470  15.380 -1.2933  0.1668 -0.4547
17164TIP3    H272984   2.458   1.447  15.279 -0.1893  1.0407  0.5242
17165TIP3   OH272985   3.934   2.320  15.945 -0.3081  0.3080  0.2264
17165TIP3    H172986   4.024   2.340  15.918  0.4520 -1.7690  0.9900
17165TIP3    H272987   3.918   2.232  15.910 -1.6204  0.1638  1.1143
17166TIP3   OH272988   5.479   5.006   3.725 -0.1073  0.5217  0.4905
17166TIP3    H172989   5.540   5.051   3.784 -0.6571 -0.4981  1.8689
17166TIP3    H272990   5.393   5.035   3.754 -0.3947 -0.1541  0.3132
17167TIP3   OH272991   6.238   2.961  12.017  0.2858 -0.0010  0.2159
17167TIP3    H172992   6.218   3.049  12.050 -0.5463 -0.5378  1.2190
17167TIP3    H272993   6.175   2.948  11.946 -0.5305 -0.2980  0.9773
17168TIP3   OH272994   2.493   6.180  15.067 -0.1609 -0.2771  0.1141
17168TIP3    H172995   2.467   6.252  15.010 -0.6726 -0.9301 -0.5011
17168TIP3    H272996   2.433   6.184  15.141  1.0994  1.1485  1.1132
17169TIP3   OH272997   3.695   1.891  17.024 -0.0627  0.2687  0.2562
17169TIP3    H172998   3.638   1.964  17.000  0.4479  0.6457  0.1846
17169TIP3    H272999   3.729   1.914  17.110  0.3689  0.2897  0.0865
17170TIP3   OH273000   3.960   5.173   5.431 -0.5061  0.0575  0.6606
17170TIP3    H173001   3.938   5.156   5.523 -0.8932 -2.6421  0.1705
17170TIP3    H273002   3.896   5.239   5.403 -1.1264  0.0806  2.0414
17171TIP3   OH273003   5.160   5.334  14.779  0.7104 -0.0733  0.0977
17171TIP3    H173004   5.231   5.392  14.748 -1.6339  1.8188 -2.2090
17171TIP3    H273005   5.195   5.246  14.769  2.7409  0.7872 -0.9684
17172TIP3   OH273006   4.698   3.465  13.497  0.5454  0.9468 -0.2581
17172TIP3    H173007   4.618   3.417  13.517  0.4578 -0.8913 -4.1952
17172TIP3    H273008   4.675   3.557  13.508 -1.0872  0.3718  1.6709
17173TIP3   OH273009   6.161   5.810   5.879  0.1159 -0.0275  0.3964
17173TIP3    H173010   6.203   5.767   5.805  2.2010  1.7021  0.4815
17173TIP3    H273011   6.107   5.878   5.839 -1.0237 -0.9068  0.3866
17174TIP3   OH273012   4.802   0.109   3.539 -0.0607 -0.1649 -0.4039
17174TIP3    H173013   4.848   0.150   3.466 -1.0810 -0.8903 -1.4994
17174TIP3    H273014   4.866   0.108   3.611  0.5817  1.6296 -0.9005
17175TIP3   OH273015   0.913   0.714   4.602  0.3463 -0.1466  0.4297
17175TIP3    H173016   0.957   0.646   4.550  1.3676  1.7281 -1.2782
17175TIP3    H273017   0.820   0.701   4.585  0.5985 -0.3919 -0.8461
17176TIP3   OH273018   3.329   2.041   4.612 -0.3169 -0.2669  0.3833
17176TIP3    H173019   3.365   2.081   4.691  0.5821 -2.5824  1.2259
17176TIP3    H273020   3.262   1.982   4.644  1.4738 -2.8270 -0.2898
17177TIP3   OH273021   4.447   1.402  14.019  0.0591 -0.4264 -0.3633
17177TIP3    H173022   4.405   1.452  13.949 -1.1934  0.0121  0.6420
17177TIP3    H273023   4.414   1.313  14.008 -0.5893 -0.2370 -0.0107
17178TIP3   OH273024   1.512   6.111  10.310  0.1203  0.5473 -0.0662
17178TIP3    H173025   1.452   6.056  10.260  0.3514  1.1154 -0.9918
17178TIP3    H273026   1.556   6.050  10.370  0.4339 -0.3102 -1.1226
17179TIP3   OH273027   3.140   2.321   6.223 -0.2101 -0.4499  0.1586
17179TIP3    H173028   3.172   2.350   6.308 -1.2254  0.9704  0.0932
17179TIP3    H273029   3.217   2.286   6.179  0.4895 -0.4522  1.3455
17180TIP3   OH273030   2.968   2.398   0.297 -0.2483 -0.2764 -0.0012
17180TIP3    H173031   2.941   2.479   0.340 -1.2356 -0.1169 -0.8577
17180TIP3    H273032   2.890   2.342   0.302  0.3355 -1.0732  0.3379
17181TIP3   OH273033   4.893   5.516  13.467  0.2619  0.1857  0.1075
17181TIP3    H173034   4.955   5.510  13.541 -1.9436 -1.1236  1.9850
17181TIP3    H273035   4.949   5.514  13.389  2.7404  2.0192  1.6805
17182TIP3   OH273036   1.678   6.676  15.469  0.4845  0.2211  0.1673
17182TIP3    H173037   1.657   6.602  15.526  0.7035  0.4980  0.6140
17182TIP3    H273038   1.656   6.645  15.381 -0.1574 -0.1018  0.4313
17183TIP3   OH273039   1.844   1.033  13.252 -0.4300 -0.3259 -0.8165
17183TIP3    H173040   1.869   1.109  13.200 -1.5574 -0.3340 -1.3988
17183TIP3    H273041   1.921   1.014  13.305  0.7166 -0.2230 -2.3745
17184TIP3   OH273042   6.805   3.696   5.659 -0.1950 -0.2792 -0.6887
17184TIP3    H173043   6.764   3.655   5.735  1.9444 -1.2496  0.0357
17184TIP3    H273044   6.780   3.640   5.586  0.5228 -1.3846 -0.1225
17185TIP3   OH273045   6.048   4.557   7.016  0.2930 -0.1954  0.5152
17185TIP3    H173046   6.056   4.638   6.966 -0.2336 -0.4169  0.0631
17185TIP3    H273047   5.953   4.547   7.030  0.4062 -0.3009  1.2858
17186TIP3   OH273048   2.245   5.565  16.568 -0.5759 -0.2688 -0.1008
17186TIP3    H173049   2.300   5.520  16.632  0.2059 -1.2357 -1.4003
17186TIP3    H273050   2.201   5.495  16.520 -2.0896  0.4612  0.1502
17187TIP3   OH273051   1.574   0.475   4.048  0.5182 -0.2189 -0.4665
17187TIP3    H173052   1.612   0.555   4.086 -2.1100 -0.6736  3.8080
17187TIP3    H273053   1.485   0.501   4.024  0.6220 -1.1839 -1.9733
17188TIP3   OH273054   6.687   6.250   1.891  0.5050 -0.3592  0.1297
17188TIP3    H173055   6.593   6.251   1.873  0.6127 -0.2528 -0.4593
17188TIP3    H273056   6.705   6.337   1.926  0.7019  0.3130 -1.5467
17189TIP3   OH273057   6.275   5.574   2.783 -0.0914 -0.0326  0.3660
17189TIP3    H173058   6.201   5.534   2.829 -0.7671  0.1764 -0.5242
17189TIP3    H273059   6.235   5.638   2.724  0.9047  1.2991  1.0741
17190TIP3   OH273060   2.838   6.656  13.488 -0.2652  0.8010 -0.1748
17190TIP3    H173061   2.807   6.745  13.480  0.4975  1.1474  0.5229
17190TIP3    H273062   2.896   6.657  13.565  1.4912  0.2211 -1.4101
17191TIP3   OH273063   6.173   3.451  13.365  0.5763  0.2330  0.1111
17191TIP3    H173064   6.201   3.533  13.324  0.1491 -0.4873 -1.7023
17191TIP3    H273065   6.240   3.433  13.431  1.6892  1.0866 -0.7499
17192TIP3   OH273066   4.526   3.508  16.317 -0.4361 -0.7877  0.0006
17192TIP3    H173067   4.584   3.476  16.248 -1.2418 -1.0719 -0.5730
17192TIP3    H273068   4.447   3.454  16.308 -2.3554  1.9967 -1.7752
17193TIP3   OH273069   1.178   2.515  11.037  0.1849  0.1566  0.0671
17193TIP3    H173070   1.264   2.527  11.079  0.2464  0.8341 -0.2438
17193TIP3    H273071   1.116   2.552  11.099 -0.0040 -1.1918  0.7344
17194TIP3   OH273072   4.633   5.195  15.598 -0.7054 -0.0347 -0.5448
17194TIP3    H173073   4.694   5.170  15.667  0.7780 -0.0127 -1.7874
17194TIP3    H273074   4.551   5.215  15.643 -0.0283 -0.8285  1.1011
17195TIP3   OH273075   0.595   5.714  12.050  0.1606  0.2033  0.2840
17195TIP3    H173076   0.530   5.644  12.055 -0.2041  0.5904  1.1943
17195TIP3    H273077   0.667   5.684  12.105  0.6657 -0.1153 -0.5289
17196TIP3   OH273078   6.485   0.076   2.108 -0.5542  0.2104 -0.5532
17196TIP3    H173079   6.479   0.010   2.177  0.0637  0.7450  0.0267
17196TIP3    H273080   6.571   0.116   2.120 -0.7985  0.9262 -1.0745
17197TIP3   OH273081   0.048   2.387   6.096  0.1115 -0.2168 -0.7496
17197TIP3    H173082   0.073   2.307   6.143  0.0793  0.6872  0.8722
17197TIP3    H273083  -0.008   2.434   6.157  0.2274  1.1150 -1.6286
17198TIP3   OH273084   6.757   1.075   3.748 -0.5434  0.4656 -0.1221
17198TIP3    H173085   6.769   0.987   3.786  1.1660  0.8638  0.3533
17198TIP3    H273086   6.663   1.089   3.750 -1.1589 -2.3877 -2.5869
17199TIP3   OH273087   6.722   2.054  16.998 -0.2128  0.2296 -0.0042
17199TIP3    H173088   6.628   2.039  17.003 -0.5215  1.5071 -1.4178
17199TIP3    H273089   6.740   2.116  17.068 -0.7518  1.3421 -0.8229
17200TIP3   OH273090   3.488   0.242  15.214  0.5615 -0.0856  0.4641
17200TIP3    H173091   3.470   0.336  15.220 -3.3900 -0.7031  1.0869
17200TIP3    H273092   3.432   0.211  15.143  1.3399 -2.0661  0.6423
17201TIP3   OH273093   2.829   5.631   2.147 -0.5150 -0.1153 -0.3195
17201TIP3    H173094   2.798   5.722   2.144 -0.8019 -0.2253 -0.9385
17201TIP3    H273095   2.785   5.594   2.223  0.7413  0.6569  0.8254
17202TIP3   OH273096   2.432   4.335   1.558 -0.3457 -0.5447 -0.0130
17202TIP3    H173097   2.371   4.366   1.490 -1.0554 -2.8978 -0.5500
17202TIP3    H273098   2.518   4.359   1.525 -0.7528 -0.5551 -1.1618
17203TIP3   OH273099   3.575   2.149   5.222  0.1991  0.1708 -0.0344
17203TIP3    H173100   3.635   2.120   5.291 -0.4774 -0.7644  0.1837
17203TIP3    H273101   3.534   2.069   5.190 -1.7248  0.8390  0.5598
17204TIP3   OH273102   1.693   5.361  15.115 -0.1367  0.4599 -0.0404
17204TIP3    H173103   1.740   5.393  15.038  0.5887 -0.9413 -0.2053
17204TIP3    H273104   1.761   5.324  15.171 -0.9991 -1.8598 -0.4087
17205TIP3   OH273105   6.506   6.815   5.542  0.0207 -0.0430  0.2555
17205TIP3    H173106   6.439   6.876   5.572 -0.9268 -0.8704 -0.1136
17205TIP3    H273107   6.499   6.817   5.447  0.1794 -0.5092  0.2320
17206TIP3   OH273108   4.393   2.189   1.221 -0.7218 -0.1733  0.0407
17206TIP3    H173109   4.329   2.256   1.247 -2.0897 -1.6970  0.7592
17206TIP3    H273110   4.345   2.131   1.163  0.3450 -0.7284 -0.3167
17207TIP3   OH273111   6.667   3.328  12.914 -0.4934  0.2755  0.4631
17207TIP3    H173112   6.714   3.404  12.949  0.2658 -0.5691  1.3173
17207TIP3    H273113   6.639   3.355  12.826  2.2975  0.5378 -0.4281
17208TIP3   OH273114   4.095   5.720   5.231 -0.6856  0.6297  0.2208
17208TIP3    H173115   4.149   5.657   5.277 -0.7370 -0.0136 -0.5812
17208TIP3    H273116   4.037   5.756   5.298 -0.5361 -0.0437  0.7177
17209TIP3   OH273117   1.709   2.755  17.205  0.1740  0.2420  0.4271
17209TIP3    H173118   1.691   2.705  17.124  0.1537 -2.6412  2.0659
17209TIP3    H273119   1.622   2.780  17.237  0.1377  0.7039 -0.0150
17210TIP3   OH273120   4.345   5.445  11.625 -0.2484  0.3816  0.2692
17210TIP3    H173121   4.307   5.532  11.612 -1.0834  0.0199  0.1961
17210TIP3    H273122   4.269   5.387  11.629  0.3216 -0.4613 -0.5997
17211TIP3   OH273123   5.486   3.313   4.666 -0.2542  0.4654  0.0475
17211TIP3    H173124   5.400   3.352   4.681  0.0887  2.0647 -1.7640
17211TIP3    H273125   5.544   3.387   4.650  1.0110 -0.6530 -0.8284
17212TIP3   OH273126   2.698   5.531   2.362 -0.4849 -0.4746 -0.4743
17212TIP3    H173127   2.612   5.563   2.393 -0.3638 -0.4359 -0.1708
17212TIP3    H273128   2.691   5.436   2.366  0.4873 -0.5321  2.4858
17213TIP3   OH273129   1.715   3.494   6.112  0.0461 -0.2673 -0.1080
17213TIP3    H173130   1.736   3.561   6.047 -0.9103 -0.4459 -0.6149
17213TIP3    H273131   1.787   3.499   6.175  0.0145  1.2208 -0.1490
17214TIP3   OH273132   4.964   5.715  15.692  0.0304 -0.2201  0.0497
17214TIP3    H173133   5.031   5.653  15.663  0.5779  0.7312 -0.7505
17214TIP3    H273134   4.989   5.737  15.781  0.3179 -0.4762  0.0331
17215TIP3   OH273135   0.629   5.708  14.322  0.3150 -0.7720  0.2123
17215TIP3    H173136   0.722   5.695  14.339  0.2925 -2.0952 -0.5843
17215TIP3    H273137   0.623   5.717  14.226 -0.3580 -0.5650  0.2688
17216TIP3   OH273138   0.532   4.723  14.995 -0.1445  0.0686 -0.6189
17216TIP3    H173139   0.602   4.668  15.030  0.4311  0.6208 -0.8912
17216TIP3    H273140   0.575   4.806  14.972 -0.8414  0.3395 -0.9853
17217TIP3   OH273141   2.678   3.585  10.667  0.6778  0.1408 -0.6447
17217TIP3    H173142   2.628   3.662  10.695  0.7114  0.4065 -1.3174
17217TIP3    H273143   2.743   3.619  10.606 -0.2267 -0.6103 -2.0663
17218TIP3   OH273144   6.600   5.019   6.318  0.0483  0.0204  0.3309
17218TIP3    H173145   6.546   4.997   6.242  2.1904  0.3761 -1.4181
17218TIP3    H273146   6.546   5.077   6.371 -1.0289  0.9296 -1.6690
17219TIP3   OH273147   4.925   0.193   0.182 -0.0104  0.4786  0.6736
17219TIP3    H173148   4.906   0.123   0.245 -0.0533 -1.7866 -1.6823
17219TIP3    H273149   4.961   0.264   0.235 -1.0444 -0.8571  3.3515
17220TIP3   OH273150   6.510   5.052  12.756 -0.6867  0.5287 -1.1775
17220TIP3    H173151   6.578   5.061  12.689 -0.3988  1.4204 -0.7765
17220TIP3    H273152   6.540   5.106  12.829 -1.1561 -0.1736 -0.4471
17221TIP3   OH273153   5.441   3.933   3.532 -0.1103  0.7865 -0.3687
17221TIP3    H173154   5.488   3.883   3.466 -0.9203  0.0312 -0.3929
17221TIP3    H273155   5.509   3.968   3.589  0.4422 -2.5052  1.1851
17222TIP3   OH273156   0.122   5.997   4.408  0.3715 -0.8203 -0.0928
17222TIP3    H173157   0.207   6.022   4.371 -0.5302  1.2349 -0.8983
17222TIP3    H273158   0.084   6.079   4.439 -1.7312 -1.5258 -0.6355
17223TIP3   OH273159   4.079   5.824   3.853 -0.1344 -0.3246  0.3794
17223TIP3    H173160   3.989   5.850   3.832 -0.0371 -0.7626 -0.6299
17223TIP3    H273161   4.086   5.734   3.821  0.3140 -0.7124  1.5086
17224TIP3   OH273162   3.955   6.428  11.564  0.2868  0.0205  0.0152
17224TIP3    H173163   3.992   6.504  11.607  2.1411 -0.6900 -0.2308
17224TIP3    H273164   4.030   6.369  11.550 -0.5921 -0.6558 -2.2950
17225TIP3   OH273165   0.913   1.266   4.046 -0.2132  0.8376 -0.0293
17225TIP3    H173166   0.998   1.297   4.077 -0.0806  1.5434 -1.0414
17225TIP3    H273167   0.933   1.191   3.990 -0.4187 -0.1451  1.1527
17226TIP3   OH273168   3.625   4.922   6.005  0.8571  0.1952 -0.2552
17226TIP3    H173169   3.545   4.967   6.031  0.2508 -0.1572 -1.4498
17226TIP3    H273170   3.657   4.882   6.086 -0.5795 -0.2804  0.1046
17227TIP3   OH273171   1.784   4.632   2.091 -0.1180 -0.1792 -0.7717
17227TIP3    H173172   1.768   4.657   2.182 -3.6568  0.4091 -1.4310
17227TIP3    H273173   1.870   4.589   2.093  0.2374  0.4132  2.6810
17228TIP3   OH273174   0.559   6.344  10.259 -0.3855 -0.1447  0.3132
17228TIP3    H173175   0.468   6.362  10.238 -0.0136 -0.3514 -1.7293
17228TIP3    H273176   0.609   6.412  10.212  0.6147 -1.8054 -1.1739
17229TIP3   OH273177   2.691   2.602  11.401 -0.1983 -0.2969 -0.0420
17229TIP3    H173178   2.731   2.520  11.370 -0.5235 -1.1660  1.6806
17229TIP3    H273179   2.764   2.662  11.411  0.2292 -0.8007 -0.0889
17230TIP3   OH273180   3.870   4.623   4.783 -0.0385 -0.1134 -0.0397
17230TIP3    H173181   3.831   4.588   4.863 -0.0871 -0.1263 -0.0691
17230TIP3    H273182   3.946   4.567   4.766  0.4248  0.3526  0.4236
17231TIP3   OH273183   5.210   2.207  15.610 -0.6366  0.4252  0.6737
17231TIP3    H173184   5.262   2.128  15.631  0.2713  0.9916  0.6217
17231TIP3    H273185   5.184   2.241  15.696  0.5920  1.1101  0.8004
17232TIP3   OH273186   2.683   3.855   0.047  0.1689 -0.0459  0.1234
17232TIP3    H173187   2.722   3.769   0.038  0.5149  0.0964  0.2493
17232TIP3    H273188   2.753   3.911   0.080 -0.4235 -0.0155  1.3998
17233TIP3   OH273189   5.035   5.077  16.060 -0.0232 -0.6936 -0.1418
17233TIP3    H173190   5.025   5.119  15.975  0.5075  1.7326  0.9023
17233TIP3    H273191   5.102   5.009  16.046  0.8116  0.3487 -1.4473
17234TIP3   OH273192   2.052   6.221   4.419  0.1099  0.2655 -0.0314
17234TIP3    H173193   1.999   6.142   4.424 -2.8543  2.1016 -0.2637
17234TIP3    H273194   2.031   6.260   4.334  2.0219  1.0130 -0.2268
17235TIP3   OH273195   2.380   4.165  10.448 -0.1029 -0.0833 -0.1455
17235TIP3    H173196   2.365   4.253  10.485 -0.1954  0.6388 -1.8228
17235TIP3    H273197   2.418   4.116  10.520 -1.7462  0.7827  1.4133
17236TIP3   OH273198   1.450   6.361  12.064  0.5071 -0.2076 -0.0822
17236TIP3    H173199   1.441   6.270  12.036  0.3503 -0.7131  1.5391
17236TIP3    H273200   1.501   6.357  12.145 -0.6324  1.0150  0.7434
17237TIP3   OH273201   3.895   3.527  11.115  0.5437 -0.5867  0.1595
17237TIP3    H173202   3.947   3.597  11.075  1.7379 -2.9097 -2.7564
17237TIP3    H273203   3.930   3.521  11.204  0.2557  2.5292  0.6085
17238TIP3   OH273204   5.139   4.511   1.170  0.3620  0.2042 -0.3228
17238TIP3    H173205   5.057   4.502   1.121  0.7714  0.9121 -1.1480
17238TIP3    H273206   5.132   4.596   1.213  0.4063 -0.0108  0.1166
17239TIP3   OH273207   4.494   3.225  11.079  0.0610 -0.1364 -0.1225
17239TIP3    H173208   4.565   3.162  11.091 -2.1881 -2.2311  4.5976
17239TIP3    H273209   4.512   3.294  11.143 -1.6867 -0.3198  0.6030
17240TIP3   OH273210   4.596   1.622  13.831 -0.0026 -0.2286 -0.2635
17240TIP3    H173211   4.602   1.718  13.837  2.1579 -0.3228 -0.0423
17240TIP3    H273212   4.547   1.607  13.750  1.3669  1.1058 -1.4068
17241TIP3   OH273213   3.625   4.471  17.162 -0.2076 -0.3214  0.1987
17241TIP3    H173214   3.599   4.379  17.172 -0.2732 -0.2957  0.2597
17241TIP3    H273215   3.558   4.509  17.106  1.1959 -0.9476 -2.0601
17242TIP3   OH273216   2.782   5.464  16.647  0.0139 -0.4032  0.0698
17242TIP3    H173217   2.717   5.527  16.614  0.2436 -2.0639 -4.1932
17242TIP3    H273218   2.866   5.507  16.632  0.0784 -0.0021  1.4578
17243TIP3   OH273219   2.562   5.274   2.406  0.2560 -0.4793  0.1913
17243TIP3    H173220   2.496   5.290   2.338  0.0471 -0.2134  0.4489
17243TIP3    H273221   2.519   5.213   2.466  0.5956 -1.0409 -0.1356
17244TIP3   OH273222   5.071   3.529  15.012 -0.8197 -0.6597  0.7175
17244TIP3    H173223   5.085   3.443  15.052 -0.4209 -1.2808 -0.7125
17244TIP3    H273224   5.118   3.590  15.069 -0.9265 -1.4069  1.6296
17245TIP3   OH273225   3.108   5.004   5.689 -0.1949 -0.1132  0.4913
17245TIP3    H173226   3.195   5.009   5.728  0.1819 -0.1359 -0.3119
17245TIP3    H273227   3.056   4.954   5.751 -0.0755  1.2625  1.7502
17246TIP3   OH273228   6.437   6.153  14.207 -0.2057 -0.4608  0.0905
17246TIP3    H173229   6.465   6.073  14.252 -0.0035 -0.6955 -0.4443
17246TIP3    H273230   6.348   6.134  14.179  0.5304 -1.3323 -1.8821
17247TIP3   OH273231   4.587   0.958  16.565 -0.3426 -0.3815 -0.1050
17247TIP3    H173232   4.560   0.876  16.606 -2.4533 -0.7186 -2.0037
17247TIP3    H273233   4.641   0.930  16.491  1.2660  0.1235  0.8156
17248TIP3   OH273234   2.991   4.408  11.420  0.0757 -0.0643 -0.3369
17248TIP3    H173235   2.962   4.494  11.389  1.7240  0.2535 -1.0892
17248TIP3    H273236   2.929   4.346  11.380 -0.2515  0.6675 -0.9939
17249TIP3   OH273237   5.921   5.313   1.971 -0.1207 -0.2626 -0.3534
17249TIP3    H173238   5.884   5.225   1.980  1.0541 -0.6491  1.1254
17249TIP3    H273239   5.907   5.354   2.056  1.3036  0.1669 -0.2942
17250TIP3   OH273240   6.174   6.759  15.332  0.2035 -0.2324  0.4888
17250TIP3    H173241   6.168   6.830  15.396  0.1383 -0.4626  0.7403
17250TIP3    H273242   6.184   6.680  15.385  1.3975 -0.2976  0.1918
17251TIP3   OH273243   6.111   4.990  13.070 -0.2152  0.9420 -0.7011
17251TIP3    H173244   6.039   5.051  13.057 -1.1990 -0.4101 -1.9568
17251TIP3    H273245   6.180   5.020  13.011 -0.1037  1.6904 -0.1993
17252TIP3   OH273246   1.544   3.201  14.742 -0.1572  1.0008  0.2885
17252TIP3    H173247   1.567   3.167  14.829 -0.8799  2.1605  0.9550
17252TIP3    H273248   1.523   3.293  14.757 -2.1328  0.7739 -0.8049
17253TIP3   OH273249   3.513   6.736   2.581  0.1185  0.6780  0.0013
17253TIP3    H173250   3.527   6.827   2.606 -0.4791  0.2588  2.0966
17253TIP3    H273251   3.456   6.740   2.505 -1.5069  2.0492  1.2294
17254TIP3   OH273252   5.126   0.999   2.153  0.5868 -0.8998  0.4074
17254TIP3    H173253   5.148   1.041   2.069 -0.0107 -0.5432  0.4242
17254TIP3    H273254   5.162   0.910   2.145 -1.3071 -1.6050 -1.1067
17255TIP3   OH273255   4.636   5.263   2.272  0.6610 -0.1360 -0.6706
17255TIP3    H173256   4.677   5.327   2.214 -1.9780  2.4531  0.0813
17255TIP3    H273257   4.598   5.197   2.213  2.1251 -0.2130 -1.5570
17256TIP3   OH273258   5.839   0.804   5.095 -0.6581 -0.0100  0.1206
17256TIP3    H173259   5.829   0.882   5.149 -2.1076 -0.1262  0.0687
17256TIP3    H273260   5.862   0.838   5.008  0.0449  0.2712  0.4112
17257TIP3   OH273261   4.872   0.801  16.643  0.0375  0.1253 -0.0229
17257TIP3    H173262   4.819   0.724  16.624  0.3416  0.0485 -0.5964
17257TIP3    H273263   4.821   0.875  16.609  0.0090  0.1156 -0.0006
17258TIP3   OH273264   3.248   4.179   2.835 -0.4185 -0.1863  0.4506
17258TIP3    H173265   3.175   4.240   2.845 -2.1254 -1.6925 -2.0545
17258TIP3    H273266   3.238   4.117   2.907 -1.4671 -0.2119  0.2965
17259TIP3   OH273267   3.585   5.056   3.981  0.5178 -0.2320  0.4695
17259TIP3    H173268   3.505   5.018   3.945  0.6426  0.1738 -0.2398
17259TIP3    H273269   3.556   5.102   4.060 -0.0121  0.2203  0.0210
17260TIP3   OH273270   0.579   2.979   3.373 -0.0618  0.7176  0.6003
17260TIP3    H173271   0.545   2.957   3.286  0.3113  3.5355 -0.3648
17260TIP3    H273272   0.512   2.948   3.434 -1.7302  1.2057 -0.9018
17261TIP3   OH273273   4.939   4.396   3.392  0.2940  0.2805  0.1737
17261TIP3    H173274   4.932   4.301   3.379  0.9045  0.3289 -0.5510
17261TIP3    H273275   5.034   4.413   3.394  0.1859  0.9207 -0.0378
17262TIP3   OH273276   4.662   3.952   5.742  0.3377 -0.8649  0.7426
17262TIP3    H173277   4.595   3.971   5.807  1.5869  0.5577  1.6543
17262TIP3    H273278   4.728   3.902   5.789  0.8726 -0.5197  0.3691
17263TIP3   OH273279   4.665   1.992  11.559  0.0554  0.0854  0.4233
17263TIP3    H173280   4.659   1.956  11.470  0.1634  2.1653 -0.4999
17263TIP3    H273281   4.613   1.933  11.613  1.3895 -2.2238 -0.6623
17264TIP3   OH273282   6.164   0.275  14.400 -0.2566  0.3870 -0.1186
17264TIP3    H173283   6.073   0.300  14.384 -0.3866 -0.2149 -0.3437
17264TIP3    H273284   6.161   0.222  14.480 -0.2463 -0.4169 -0.6343
17265TIP3   OH273285   1.755   6.234   1.852  0.4407 -0.5245 -0.1714
17265TIP3    H173286   1.754   6.165   1.785  0.5005 -0.5135 -0.1834
17265TIP3    H273287   1.848   6.254   1.864  0.4524 -0.7891  0.1829
17266TIP3   OH273288   5.853   3.155   5.692 -0.7932 -0.6214  0.7457
17266TIP3    H173289   5.913   3.096   5.737 -0.4502 -0.6444  0.2630
17266TIP3    H273290   5.892   3.242   5.705 -0.5262 -0.6612  0.2369
17267TIP3   OH273291   4.492   5.243   1.497 -0.1408  0.3224 -0.0765
17267TIP3    H173292   4.539   5.321   1.526 -0.4029 -0.4361  2.6115
17267TIP3    H273293   4.425   5.229   1.563 -1.1905 -1.2644 -1.3961
17268TIP3   OH273294   1.870   5.071   2.867  0.0472  0.5655  0.6461
17268TIP3    H173295   1.904   5.126   2.797 -2.5231  0.4173 -0.8388
17268TIP3    H273296   1.928   4.995   2.868  1.0871  1.3166 -0.1946
17269TIP3   OH273297   6.373   4.250   4.184 -0.7164  0.7559 -0.0535
17269TIP3    H173298   6.396   4.233   4.275  0.6322 -3.2888 -0.9248
17269TIP3    H273299   6.283   4.217   4.176  0.2847 -2.1838 -0.7173
17270TIP3   OH273300   6.022   2.584  10.673 -0.1492 -0.3128 -0.3254
17270TIP3    H173301   6.067   2.636  10.740  1.3609 -1.5370 -0.3386
17270TIP3    H273302   6.079   2.589  10.597 -1.6055  0.6574 -1.4043
17271TIP3   OH273303   4.309   1.213   1.377  0.2521  0.2022 -0.4821
17271TIP3    H173304   4.351   1.142   1.425  1.0825  0.9993  0.0170
17271TIP3    H273305   4.377   1.280   1.370 -0.5802  1.0449 -0.7207
17272TIP3   OH273306   1.900   0.242  14.451 -0.0580 -0.0156  0.4550
17272TIP3    H173307   1.961   0.309  14.420  0.8900 -1.1820 -0.3074
17272TIP3    H273308   1.813   0.280  14.438  0.4532  1.0745  0.1111
17273TIP3   OH273309   3.550   1.745   3.160  0.1606 -0.3739 -0.0216
17273TIP3    H173310   3.512   1.693   3.089  0.7759 -1.1126  0.1735
17273TIP3    H273311   3.491   1.820   3.169 -0.4391 -0.7501 -0.6838
17274TIP3   OH273312   4.017   3.669   5.242  0.0809  0.2738  0.1094
17274TIP3    H173313   4.025   3.588   5.293  2.1386  0.7450  0.6064
17274TIP3    H273314   3.962   3.726   5.295 -0.0163 -0.1993  0.5249
17275TIP3   OH273315   0.384   1.390   4.034  0.2608 -0.7333 -0.2457
17275TIP3    H173316   0.445   1.338   4.087 -0.6474 -0.6513  0.9309
17275TIP3    H273317   0.360   1.463   4.090  0.5493  0.3001 -1.4191
17276TIP3   OH273318   5.524   4.296  14.723  0.3012  0.4818  0.0726
17276TIP3    H173319   5.548   4.232  14.656  0.5807  2.7029 -2.1015
17276TIP3    H273320   5.606   4.316  14.767  0.4517  0.3050 -0.1239
17277TIP3   OH273321   4.027   1.236   0.022  0.0753  0.5204 -0.5121
17277TIP3    H173322   3.961   1.173   0.053  0.3142  0.3440 -0.3570
17277TIP3    H273323   4.104   1.182   0.003  0.2475  0.7540 -0.4792
17278TIP3   OH273324   6.700   3.508  12.317  0.8180 -0.0131  0.7595
17278TIP3    H173325   6.614   3.550  12.322 -0.5440 -2.3988 -0.8289
17278TIP3    H273326   6.756   3.572  12.273 -0.4874  1.0920  0.6527
17279TIP3   OH273327   5.686   2.773  15.809  0.7149  0.1219 -0.3878
17279TIP3    H173328   5.665   2.714  15.736  0.3461  1.0157 -1.0220
17279TIP3    H273329   5.616   2.759  15.872 -0.4647  1.2569 -1.3896
17280TIP3   OH273330   3.188   5.522   4.937 -0.4834 -0.1211  0.5022
17280TIP3    H173331   3.188   5.445   4.993  2.4448 -1.6403 -1.3402
17280TIP3    H273332   3.127   5.500   4.866 -0.6644 -0.1392  0.6605
17281TIP3   OH273333   0.499   1.646  16.007 -0.3551  0.3135 -0.0061
17281TIP3    H173334   0.500   1.586  15.933 -0.2088 -0.2466  0.4362
17281TIP3    H273335   0.429   1.709  15.987 -0.2274  0.2491 -0.6706
17282TIP3   OH273336   4.107   6.068  17.206 -0.9817  0.7307  0.0937
17282TIP3    H173337   4.036   6.003  17.205 -1.1648  0.9073  0.7385
17282TIP3    H273338   4.081   6.129  17.275 -0.8027  1.4829 -0.5021
17283TIP3   OH273339   1.656   6.813   5.131 -0.1001 -0.9204  0.3274
17283TIP3    H173340   1.725   6.790   5.193 -0.2521 -1.5247  0.2791
17283TIP3    H273341   1.629   6.901   5.157  1.3543 -0.2522 -0.2515
17284TIP3   OH273342   3.299   3.469  16.518 -0.0500  0.5029 -0.0660
17284TIP3    H173343   3.390   3.464  16.489  0.5110  0.3091  1.6180
17284TIP3    H273344   3.272   3.378  16.529  0.3250  0.5699  1.6363
17285TIP3   OH273345   1.540   4.023   3.643  0.0863 -0.0606  0.1232
17285TIP3    H173346   1.563   3.943   3.595 -0.0897 -0.5851  0.8977
17285TIP3    H273347   1.461   4.055   3.599 -0.0032 -0.4655 -0.0167
17286TIP3   OH273348   1.098   0.729  16.897 -0.5385 -0.1776  0.2972
17286TIP3    H173349   1.192   0.746  16.895 -0.5659  0.5814  2.5328
17286TIP3    H273350   1.062   0.784  16.827  0.7281 -1.1848 -1.2149
17287TIP3   OH273351   1.719   3.592   3.622 -0.2237  0.6709  0.3636
17287TIP3    H173352   1.812   3.610   3.608 -0.0354 -0.2920  0.3418
17287TIP3    H273353   1.701   3.626   3.710  0.1018  1.0217  0.2967
17288TIP3   OH273354   2.866   4.127   6.058  0.0030 -0.1015  0.6321
17288TIP3    H173355   2.903   4.180   5.988  0.0308  0.8628  1.3451
17288TIP3    H273356   2.902   4.165   6.138 -1.4665  0.0160  1.2760
17289TIP3   OH273357   6.204   4.438  13.864  0.5231 -0.6915 -0.5439
17289TIP3    H173358   6.178   4.401  13.949 -0.5557 -0.2175 -0.6430
17289TIP3    H273359   6.148   4.394  13.800  0.1165  0.1645 -0.8023
17290TIP3   OH273360   6.094   4.071  10.734  0.0970 -0.3664  0.3530
17290TIP3    H173361   6.086   4.160  10.700  1.2158  0.1129  1.2870
17290TIP3    H273362   6.010   4.054  10.777 -0.3580 -0.0191 -0.3727
17291TIP3   OH273363   4.740   0.028   1.038  0.0629 -0.2386  0.6605
17291TIP3    H173364   4.692   0.091   1.092 -0.1846 -1.3061  1.7480
17291TIP3    H273365   4.690   0.022   0.957 -0.2807  0.4399  0.8143
17292TIP3   OH273366   4.690   1.083   2.908 -0.4049 -0.3734  0.4616
17292TIP3    H173367   4.671   1.052   2.819 -0.7496  0.8011  0.1174
17292TIP3    H273368   4.632   1.157   2.921  0.1241 -0.1107  1.4268
17293TIP3   OH273369   0.019   1.744   6.000 -0.5213  0.2310  0.4885
17293TIP3    H173370  -0.018   1.677   6.058 -2.0394 -0.4012 -1.1463
17293TIP3    H273371  -0.048   1.812   5.996  0.3871  1.1794  0.9505
17294TIP3   OH273372   0.890   6.421   0.204  0.5152  0.6055 -0.5834
17294TIP3    H173373   0.919   6.426   0.295 -1.0832 -2.7545  0.2931
17294TIP3    H273374   0.948   6.357   0.163 -1.2681 -1.1096 -0.6343
17295TIP3   OH273375   1.033   3.239  15.922  0.0693 -0.1327  0.1214
17295TIP3    H173376   1.049   3.185  15.845 -2.5171 -2.6582  1.2039
17295TIP3    H273377   0.949   3.281  15.905  0.3320  0.7329  0.8424
17296TIP3   OH273378   4.818   1.968  14.743 -0.3108  0.1192  0.2892
17296TIP3    H173379   4.769   2.001  14.818 -1.7865  0.7726 -0.9138
17296TIP3    H273380   4.837   2.046  14.690  2.0243 -0.1088  0.6550
17297TIP3   OH273381   6.103   1.281   3.483 -0.0229 -0.1414  0.2907
17297TIP3    H173382   6.092   1.262   3.576  0.4985  0.1856  0.4279
17297TIP3    H273383   6.016   1.271   3.445  0.0500 -1.8539  0.5144
17298TIP3   OH273384   6.473   0.782   6.169  0.0741  0.0035 -0.1204
17298TIP3    H173385   6.388   0.816   6.198 -0.4321 -1.4873  0.2491
17298TIP3    H273386   6.528   0.860   6.159 -1.7745  1.1809 -1.9000
17299TIP3   OH273387   0.456   6.411  14.870 -0.3778  0.1464  0.2519
17299TIP3    H173388   0.386   6.364  14.825  1.6807 -1.1308 -1.8010
17299TIP3    H273389   0.508   6.450  14.800  0.5676  1.7067  1.7464
17300TIP3   OH273390   4.407   5.842   2.650 -0.2538  0.3608  0.2165
17300TIP3    H173391   4.401   5.776   2.719 -1.6098  2.1003  1.8672
17300TIP3    H273392   4.320   5.882   2.647  0.2555  1.4544 -1.3948
17301TIP3   OH273393   2.409   5.381  11.699  0.0143 -0.5589  0.0477
17301TIP3    H173394   2.358   5.343  11.628  1.4292 -2.0574 -0.2230
17301TIP3    H273395   2.376   5.340  11.779 -1.3586  0.8891  0.2679
17302TIP3   OH273396   5.363   2.171  12.100  0.4191 -0.2699  0.0697
17302TIP3    H173397   5.327   2.253  12.134  1.2953 -0.2987  1.1141
17302TIP3    H273398   5.311   2.153  12.022 -0.7591  0.5157  0.6406
17303TIP3   OH273399   2.473   5.545  16.272  0.2878  0.0252 -0.1156
17303TIP3    H173400   2.459   5.465  16.323 -1.2044  0.5937  0.4364
17303TIP3    H273401   2.568   5.553  16.266  0.4743 -1.9416 -0.4532
17304TIP3   OH273402   2.798   1.279  13.923 -0.2202  0.7017  0.0967
17304TIP3    H173403   2.816   1.319  14.008 -0.8695 -1.4008  1.2962
17304TIP3    H273404   2.750   1.346  13.874  0.0897  1.9255  1.4059
17305TIP3   OH273405   2.467   4.460   0.977  0.2903 -0.0289  0.4217
17305TIP3    H173406   2.561   4.450   0.991  0.1259 -1.2243  0.7416
17305TIP3    H273407   2.427   4.401   1.040 -0.6817  0.4137  0.2309
17306TIP3   OH273408   1.785   3.013   6.387 -0.1502 -0.5821 -0.5903
17306TIP3    H173409   1.854   2.956   6.355  0.2619  0.1940 -1.1206
17306TIP3    H273410   1.707   2.957   6.389 -0.0128 -0.9002 -2.1722
17307TIP3   OH273411   5.353   2.800  11.153  0.1693 -0.2592  0.3767
17307TIP3    H173412   5.325   2.854  11.227  1.2315  0.9674 -0.0684
17307TIP3    H273413   5.433   2.758  11.183 -1.2768 -2.6146  1.1434
17308TIP3   OH273414   3.035   5.151  12.453  0.3448 -0.1375  0.4353
17308TIP3    H173415   3.090   5.076  12.474  2.7138  1.4081  0.1262
17308TIP3    H273416   2.950   5.113  12.431  1.5858 -2.7486 -0.2293
17309TIP3   OH273417   3.656   2.842   2.454 -0.4513 -0.8397 -0.2924
17309TIP3    H173418   3.746   2.837   2.420 -0.5627  2.0934 -1.2528
17309TIP3    H273419   3.667   2.858   2.547  0.0091 -0.6579 -0.3754
17310TIP3   OH273420   0.678   6.816  12.050  0.0281 -0.5227 -0.0650
17310TIP3    H173421   0.660   6.892  11.996  2.2803 -0.5063 -0.9364
17310TIP3    H273422   0.692   6.851  12.138  0.6238  0.0432 -0.3765
17311TIP3   OH273423   3.074   0.502  12.194  0.3860  0.6285 -0.1947
17311TIP3    H173424   3.065   0.476  12.285 -0.0207 -0.5066 -0.5410
17311TIP3    H273425   2.985   0.502  12.159  0.6636 -0.5864 -0.9983
17312TIP3   OH273426   2.502   2.789  17.148 -0.1083 -0.1912 -0.1929
17312TIP3    H173427   2.420   2.787  17.099 -0.0197 -0.1502 -0.3413
17312TIP3    H273428   2.569   2.771  17.083  0.0849  0.6638 -0.2375
17313TIP3   OH273429   5.014   4.262   1.298  0.2447  0.7680  0.2033
17313TIP3    H173430   4.971   4.340   1.332  0.7307  0.6299  1.1866
17313TIP3    H273431   5.012   4.200   1.372 -1.0370 -0.5281 -0.8511
17314TIP3   OH273432   6.047   4.721   3.768 -0.2825  0.0719  0.2546
17314TIP3    H173433   6.107   4.668   3.715 -0.9641 -0.1280 -0.3311
17314TIP3    H273434   6.105   4.778   3.820  0.5728 -2.3781  2.2023
17315TIP3   OH273435   1.534   1.762  14.349  0.1562 -0.3889 -0.6999
17315TIP3    H173436   1.549   1.757  14.255  1.3613  0.0596 -0.5516
17315TIP3    H273437   1.565   1.850  14.374 -2.6482  0.5983 -0.2874
17316TIP3   OH273438   1.359   0.028  14.656 -0.1416 -0.6930  0.1308
17316TIP3    H173439   1.297   0.085  14.610 -1.7346 -1.1738  1.5686
17316TIP3    H273440   1.398  -0.027  14.588 -0.7285  0.1508 -0.8997
17317TIP3   OH273441   2.840   0.271   0.141 -0.3596 -0.3123 -0.1779
17317TIP3    H173442   2.863   0.361   0.164 -1.2541  0.2818 -1.4368
17317TIP3    H273443   2.924   0.228   0.126  0.0967  0.1692  0.8898
17318TIP3   OH273444   3.450   5.319   4.620 -0.3518  0.1344 -0.0711
17318TIP3    H173445   3.524   5.314   4.679  0.0212  1.1780 -0.4364
17318TIP3    H273446   3.386   5.257   4.656 -0.2562  0.9492  1.5855
17319TIP3   OH273447   1.904   4.801   0.001 -0.0568  0.0532 -0.2595
17319TIP3    H173448   1.834   4.736   0.005  1.9939 -2.2783 -0.0645
17319TIP3    H273449   1.885   4.862   0.073 -1.5221 -0.8704  0.1668
17320TIP3   OH273450   0.649   3.888   0.399  0.7163 -0.5678 -0.4746
17320TIP3    H173451   0.597   3.812   0.426 -2.2718  1.8775  1.2672
17320TIP3    H273452   0.593   3.964   0.418  2.6948  2.0613 -3.8819
17321TIP3   OH273453   1.009   1.458   6.048  0.5086  0.3151  0.5584
17321TIP3    H173454   1.082   1.397   6.043 -2.2085 -3.0725 -1.5434
17321TIP3    H273455   0.958   1.429   6.124 -0.6123  0.1949 -0.2194
17322TIP3   OH273456   4.516   2.253   6.214 -0.3984 -0.3555  0.3571
17322TIP3    H173457   4.427   2.239   6.247  0.1673 -2.0140  1.3216
17322TIP3    H273458   4.567   2.274   6.292 -0.0884  1.6402 -0.3286
17323TIP3   OH273459   2.725   6.080   3.138  0.0364 -0.6939  0.4323
17323TIP3    H173460   2.702   6.022   3.066 -1.0801 -0.7008  0.7836
17323TIP3    H273461   2.715   6.026   3.217 -1.9842  0.1969  0.8465
17324TIP3   OH273462   3.407   2.551   1.027 -0.4133 -0.0538  0.5189
17324TIP3    H173463   3.476   2.508   1.077  0.6330  1.1925  0.2087
17324TIP3    H273464   3.355   2.598   1.092  0.1186  0.4436  0.5947
17325TIP3   OH273465   1.815   4.903  15.054 -0.1834  0.0926  0.2055
17325TIP3    H173466   1.887   4.939  15.003 -0.1576  1.6008  1.2334
17325TIP3    H273467   1.736   4.935  15.010 -0.1597  1.7432  1.2715
17326TIP3   OH273468   0.764   1.210   2.895 -0.1843  0.1369  0.1159
17326TIP3    H173469   0.730   1.193   2.983  1.3262  0.7578  0.8530
17326TIP3    H273470   0.858   1.197   2.903 -0.1872 -1.4549 -1.8389
17327TIP3   OH273471   4.458   6.058   1.939  0.0258 -0.4414 -0.0452
17327TIP3    H173472   4.492   6.034   2.025 -0.7548 -2.4155 -0.2303
17327TIP3    H273473   4.365   6.075   1.954 -0.1430 -0.9366 -0.5116
17328TIP3   OH273474   3.497   4.366  13.806  0.4327 -0.1735 -0.1022
17328TIP3    H173475   3.535   4.280  13.789  0.4023  0.0015 -1.1145
17328TIP3    H273476   3.459   4.393  13.722  1.3750  1.2824 -0.0937
17329TIP3   OH273477   3.266   0.024   4.834  0.1373  0.0478 -0.0739
17329TIP3    H173478   3.223   0.025   4.748 -0.1792 -2.1673  0.0174
17329TIP3    H273479   3.240   0.107   4.874 -1.0987  0.3665 -1.4550
17330TIP3   OH273480   4.161   2.641  14.424  0.9128 -0.1999 -0.3011
17330TIP3    H173481   4.173   2.549  14.401  0.2788  0.4023 -3.5167
17330TIP3    H273482   4.089   2.641  14.487 -0.3522 -1.7867 -1.6796
17331TIP3   OH273483   1.206   1.703  17.025  0.2871 -0.1139  0.1392
17331TIP3    H173484   1.224   1.614  16.996  0.0924  0.6854 -2.6885
17331TIP3    H273485   1.271   1.757  16.980 -1.2793  1.4606 -0.3548
17332TIP3   OH273486   2.936   5.559  15.511 -0.1186  0.0493  0.1173
17332TIP3    H173487   2.958   5.612  15.435  0.9674  0.2203  0.5313
17332TIP3    H273488   2.846   5.585  15.533 -0.9098 -0.8726 -1.7965
17333TIP3   OH273489   4.958   6.199  14.128  0.0061 -0.0958  0.1709
17333TIP3    H173490   4.924   6.143  14.057  0.1798  0.1626 -0.1176
17333TIP3    H273491   5.052   6.204  14.111 -0.0252  0.3663  0.1422
17334TIP3   OH273492   5.094   2.416   0.062  0.1783 -0.2793  0.1833
17334TIP3    H173493   5.175   2.388   0.105  0.5558 -0.4798 -0.6321
17334TIP3    H273494   5.026   2.362   0.101  0.3990  0.0471  1.0381
17335TIP3   OH273495   2.607   5.201  11.844  0.4747  0.9431 -0.3159
17335TIP3    H173496   2.646   5.218  11.758  0.2406 -1.1694 -0.8920
17335TIP3    H273497   2.642   5.116  11.870 -0.8131  0.7507  0.8976
17336TIP3   OH273498   2.101   1.499  16.785  0.0783  0.2141 -0.4137
17336TIP3    H173499   2.144   1.468  16.865  0.1990 -2.3211 -1.3523
17336TIP3    H273500   2.037   1.430  16.764 -0.7820  1.3894 -1.8643
17337TIP3   OH273501   5.446   2.079  13.383  0.0872  0.3440 -0.0554
17337TIP3    H173502   5.534   2.067  13.347  0.2138 -0.2807  0.4320
17337TIP3    H273503   5.457   2.141  13.455  0.1000  0.3822 -0.0900
17338TIP3   OH273504   6.696   2.802   0.156 -0.5693  0.6858  0.4506
17338TIP3    H173505   6.734   2.847   0.231  0.2458 -1.1265  1.1808
17338TIP3    H273506   6.767   2.796   0.093 -0.4277 -0.2592  0.6880
17339TIP3   OH273507   5.545   3.552   3.257  0.2226  0.2107 -0.2009
17339TIP3    H173508   5.574   3.461   3.261  0.1125  0.1743 -0.2147
17339TIP3    H273509   5.607   3.600   3.311 -0.2959 -0.0228  0.6120
17340TIP3   OH273510   6.026   0.868  15.779 -0.4849  0.0280  0.7346
17340TIP3    H173511   6.059   0.858  15.690 -1.0090 -3.1017  0.7943
17340TIP3    H273512   6.092   0.923  15.823 -0.2698  1.7388 -1.5295
17341TIP3   OH273513   1.416   0.229   4.120 -0.1772  0.1191 -0.4663
17341TIP3    H173514   1.479   0.291   4.083  1.7085 -1.0423  0.6906
17341TIP3    H273515   1.423   0.151   4.065  0.3320 -0.4707  0.4154
17342TIP3   OH273516   5.399   2.830   1.407 -0.0391 -0.1577  0.4460
17342TIP3    H173517   5.477   2.857   1.456  0.5350 -0.8541 -0.0613
17342TIP3    H273518   5.405   2.735   1.404  0.0521 -0.1341 -1.1383
17343TIP3   OH273519   4.210   1.528   3.131  0.7986 -0.0923  0.6917
17343TIP3    H173520   4.138   1.541   3.069 -1.0800  0.0690  2.7723
17343TIP3    H273521   4.257   1.611   3.131 -0.8335  0.8907  1.4035
17344TIP3   OH273522   3.694   0.559   6.093  0.2614  0.2399  0.1566
17344TIP3    H173523   3.704   0.579   6.000  3.9722 -1.6002 -0.0313
17344TIP3    H273524   3.641   0.480   6.095  1.5016 -0.6414 -0.5829
17345TIP3   OH273525   0.012   6.660  12.779  0.2264 -0.4027 -0.4144
17345TIP3    H173526  -0.007   6.697  12.693 -0.6854 -2.2746 -1.0766
17345TIP3    H273527   0.058   6.578  12.760  2.9201  0.6505  1.0035
17346TIP3   OH273528   5.413   6.074   6.322 -0.2866  0.3264 -0.0639
17346TIP3    H173529   5.380   6.100   6.408 -1.6425 -0.2130 -0.4055
17346TIP3    H273530   5.427   6.157   6.276 -1.8885  0.5689 -0.1617
17347TIP3   OH273531   5.062   2.258  12.306 -0.7533 -0.3060 -0.4897
17347TIP3    H173532   5.099   2.173  12.326 -1.5369 -0.4971  0.1756
17347TIP3    H273533   5.074   2.309  12.386  2.8889  1.4099 -1.9129
17348TIP3   OH273534   5.522   1.321   0.103  0.5614 -0.2230  0.2837
17348TIP3    H173535   5.521   1.416   0.093  0.8095 -0.0493  1.6837
17348TIP3    H273536   5.526   1.287   0.014  1.3887  1.0894 -0.2020
17349TIP3   OH273537   3.261   3.491  13.439 -0.2025 -0.1042  0.1248
17349TIP3    H173538   3.285   3.576  13.475 -1.1401 -0.0167  0.5637
17349TIP3    H273539   3.299   3.490  13.351 -1.2736  1.2814 -0.3742
17350TIP3   OH273540   3.760   0.304   5.888  0.5388  0.1073  0.0014
17350TIP3    H173541   3.739   0.380   5.835 -0.3911  1.0705  1.6768
17350TIP3    H273542   3.701   0.309   5.963  0.8796 -1.9267  0.4787
17351TIP3   OH273543   3.584   0.565  10.972 -0.6305  0.3661 -0.1635
17351TIP3    H173544   3.514   0.543  10.910  0.4506 -2.7912 -0.4928
17351TIP3    H273545   3.662   0.575  10.917 -0.0828 -0.2167  0.4899
17352TIP3   OH273546   3.204   4.494  11.190 -0.4223 -0.2424 -0.0529
17352TIP3    H173547   3.262   4.568  11.205 -1.6560  0.7458 -0.0355
17352TIP3    H273548   3.251   4.419  11.226  1.4626  0.2695 -1.3058
17353TIP3   OH273549   1.873   3.032   0.398 -0.2203  0.4250 -0.4298
17353TIP3    H173550   1.854   2.989   0.315 -2.2642  0.3797  0.0049
17353TIP3    H273551   1.826   2.979   0.463 -2.4339  2.9537  0.1920
17354TIP3   OH273552   5.995   1.789  12.147 -0.0978  0.0754 -0.2316
17354TIP3    H173553   5.946   1.864  12.112 -0.4920  0.1480  0.4639
17354TIP3    H273554   6.072   1.783  12.090  0.8298  2.0774  0.7217
17355TIP3   OH273555   0.699   4.977   1.665 -0.2333  0.0607  0.2014
17355TIP3    H173556   0.773   4.982   1.726 -0.7017  1.0486  0.7081
17355TIP3    H273557   0.712   5.049   1.604 -0.8440  0.3306  0.3817
17356TIP3   OH273558   1.530   6.370  10.491 -0.6838 -0.2582 -0.4801
17356TIP3    H173559   1.541   6.295  10.433  1.3505 -1.0273  0.7809
17356TIP3    H273560   1.573   6.344  10.573  1.2360  2.6902 -0.3838
17357TIP3   OH273561   4.407   0.264   4.658  0.4199 -0.6324 -0.1893
17357TIP3    H173562   4.474   0.311   4.608  2.0737 -2.6764 -0.0398
17357TIP3    H273563   4.387   0.188   4.604 -1.7234 -0.1521 -0.1400
17358TIP3   OH273564   5.578   4.558   3.622  0.5809  0.2563  0.4417
17358TIP3    H173565   5.657   4.567   3.570 -0.2652 -0.4744 -1.0333
17358TIP3    H273566   5.555   4.465   3.616 -1.7718  0.8472 -1.3325
17359TIP3   OH273567   4.804   3.556  15.987 -0.2024 -0.2745 -0.5239
17359TIP3    H173568   4.736   3.497  16.018  0.2562  0.7849  2.9187
17359TIP3    H273569   4.758   3.622  15.935 -1.5655 -0.5785  0.2623
17360TIP3   OH273570   1.884   5.497  16.097  0.1715 -0.5346  0.2408
17360TIP3    H173571   1.961   5.505  16.153  0.1988  0.0358  0.1288
17360TIP3    H273572   1.836   5.579  16.111 -0.4034 -0.8757  0.2938
17361TIP3   OH273573   0.170   5.147  12.791  0.3214 -0.0764  0.3982
17361TIP3    H173574   0.136   5.236  12.783 -0.2595 -0.1598  1.6490
17361TIP3    H273575   0.253   5.157  12.839  0.8171 -0.1132 -0.4358
17362TIP3   OH273576   6.207   3.675  12.658 -0.0449 -0.2254  0.0020
17362TIP3    H173577   6.302   3.674  12.650 -0.1144 -1.3337 -1.1330
17362TIP3    H273578   6.183   3.768  12.653  0.8445 -0.0558 -1.9347
17363TIP3   OH273579   2.554   6.411  13.330 -0.0105  0.0163  0.1805
17363TIP3    H173580   2.642   6.427  13.297 -0.7081  1.2883 -1.1778
17363TIP3    H273581   2.497   6.464  13.275 -1.9386 -2.6944 -0.6825
17364TIP3   OH273582   2.415   1.896   3.617 -0.1125 -0.4379 -0.2184
17364TIP3    H173583   2.348   1.914   3.683 -1.6880 -1.5670 -1.4248
17364TIP3    H273584   2.391   1.951   3.543  0.6449 -0.4317 -0.4645
17365TIP3   OH273585   1.013   4.543  12.565  0.5658  0.0999  0.1018
17365TIP3    H173586   1.056   4.626  12.546 -0.3075  0.5781  0.1542
17365TIP3    H273587   0.954   4.528  12.492 -0.8460  0.6105  1.0938
17366TIP3   OH273588   0.934   1.960  12.991 -0.1416 -0.0891 -0.0719
17366TIP3    H173589   0.974   1.929  12.910 -0.4290 -0.0383 -0.2343
17366TIP3    H273590   0.882   1.885  13.022  1.8266 -0.9594  1.3223
17367TIP3   OH273591   3.402   5.687  10.576 -0.3839  0.3128 -0.2349
17367TIP3    H173592   3.311   5.697  10.547 -0.7899 -2.9304 -0.4500
17367TIP3    H273593   3.402   5.719  10.666 -1.0780  2.7323 -1.0288
17368TIP3   OH273594   1.118   1.853  11.519 -0.1444 -0.5192 -0.6899
17368TIP3    H173595   1.178   1.869  11.446  1.1942 -1.6071  0.1386
17368TIP3    H273596   1.172   1.860  11.597 -1.5916  0.8088  0.2567
17369TIP3   OH273597   0.806   5.509   2.131 -0.0602 -0.0979 -0.4325
17369TIP3    H173598   0.892   5.488   2.094 -0.3345 -0.8889 -0.6299
17369TIP3    H273599   0.804   5.463   2.215  0.1278  0.8036  0.0816
17370TIP3   OH273600   2.829   5.262   2.955 -0.2348  0.1479  0.1024
17370TIP3    H173601   2.845   5.168   2.967 -1.3699  0.0356  0.9206
17370TIP3    H273602   2.841   5.276   2.861  4.1356  0.0769  0.4395
17371TIP3   OH273603   2.000   3.021  15.864  0.4461 -0.2001  0.3971
17371TIP3    H173604   2.013   2.973  15.945  0.3720  0.7149  0.9608
17371TIP3    H273605   1.990   3.112  15.891 -2.2118 -0.1856 -0.4064
17372TIP3   OH273606   3.168   2.150   4.411 -0.0971  0.1502 -0.3311
17372TIP3    H173607   3.215   2.114   4.486  1.9674  2.4317 -0.3907
17372TIP3    H273608   3.191   2.093   4.338 -1.2272 -1.4393  0.5010
17373TIP3   OH273609   3.800   6.228   6.169  0.0183 -0.3152 -1.0722
17373TIP3    H173610   3.731   6.176   6.128  0.4350 -3.1361  1.4689
17373TIP3    H273611   3.877   6.214   6.112 -0.0829 -1.9359 -0.8690
17374TIP3   OH273612   4.296   1.893   4.816  0.0886  0.9337 -0.2637
17374TIP3    H173613   4.262   1.804   4.808  0.0756  1.0491 -1.9400
17374TIP3    H273614   4.249   1.942   4.748  1.0358  1.9152 -0.2387
17375TIP3   OH273615   0.865   6.712  12.772 -0.1505 -0.2333  0.0676
17375TIP3    H173616   0.953   6.684  12.799 -0.1977 -1.3581 -0.8880
17375TIP3    H273617   0.846   6.788  12.828  0.5789 -1.2388  1.7497
17376TIP3   OH273618   6.235   0.363  14.897 -0.3396 -0.0098 -0.2803
17376TIP3    H173619   6.319   0.408  14.908  0.3296 -1.0331 -0.9968
17376TIP3    H273620   6.172   0.433  14.880  0.6043  0.6840 -1.0157
17377TIP3   OH273621   2.787   1.942   0.238  0.3895 -0.0950  0.2096
17377TIP3    H173622   2.841   1.885   0.293 -1.0513 -1.1466  0.5984
17377TIP3    H273623   2.706   1.953   0.288 -0.3371  0.2365 -1.0036
17378TIP3   OH273624   2.291   4.114  16.996 -0.3869  0.0816 -0.2787
17378TIP3    H173625   2.267   4.199  17.033  0.1060  0.2670 -0.3766
17378TIP3    H273626   2.351   4.076  17.060  0.2484  0.2814 -0.7502
17379TIP3   OH273627   6.282   6.609   5.240  0.4298 -0.4303 -0.0139
17379TIP3    H173628   6.230   6.685   5.213 -1.3712 -1.3085  0.8263
17379TIP3    H273629   6.280   6.611   5.335  3.1246  0.2334  0.1093
17380TIP3   OH273630   4.526   1.689  15.486 -0.5259 -0.3599  0.2488
17380TIP3    H173631   4.556   1.599  15.469 -0.0587  0.0679 -1.4274
17380TIP3    H273632   4.607   1.736  15.508 -0.2708  0.2445 -1.7688
17381TIP3   OH273633   0.922   6.614  15.132  0.4699 -0.3495 -0.7646
17381TIP3    H173634   0.912   6.573  15.046  1.2451 -0.1114 -0.9800
17381TIP3    H273635   0.982   6.687  15.116 -2.3924  2.1339 -0.7925
17382TIP3   OH273636   2.085   0.140  14.632  0.3137  0.2868 -0.0248
17382TIP3    H173637   2.015   0.164  14.572  0.5153 -0.7090 -0.6749
17382TIP3    H273638   2.106   0.050  14.610 -0.4805 -0.5854  2.3958
17383TIP3   OH273639   6.796   6.154   0.689  0.0781 -0.2609 -0.7021
17383TIP3    H173640   6.765   6.176   0.601 -1.1910  0.3182 -0.1513
17383TIP3    H273641   6.787   6.236   0.738  0.6577 -0.6055 -0.0027
17384TIP3   OH273642   5.008   3.448  11.967 -0.4047  0.0266  0.2995
17384TIP3    H173643   4.982   3.502  11.892  0.9462  0.9105  0.4296
17384TIP3    H273644   5.047   3.370  11.928  2.6312  1.5905 -0.0603
17385TIP3   OH273645   5.816   0.278   3.963 -0.2879 -0.9097 -0.0844
17385TIP3    H173646   5.732   0.293   4.007 -0.2922 -0.0846 -0.3518
17385TIP3    H273647   5.875   0.343   4.000 -0.0449 -0.8057 -0.6405
17386TIP3   OH273648   5.256   1.303   0.687  0.2213 -0.2097 -0.4444
17386TIP3    H173649   5.197   1.240   0.645 -2.6978  1.6442  0.6148
17386TIP3    H273650   5.302   1.345   0.614 -0.9664 -0.6212 -1.4590
17387TIP3   OH273651   5.251   4.510   4.804 -0.3975  0.0037  0.4054
17387TIP3    H173652   5.321   4.468   4.754 -0.6021  1.5741 -1.2886
17387TIP3    H273653   5.181   4.445   4.808 -1.2920  0.5148 -3.3932
17388TIP3   OH273654   3.926   4.707  16.789  1.0520 -0.7398  0.1018
17388TIP3    H173655   3.969   4.632  16.831  1.2409 -1.6100 -1.5613
17388TIP3    H273656   3.923   4.774  16.857 -0.9237 -2.8823  2.3605
17389TIP3   OH273657   2.787   4.068   2.702 -0.0381 -0.3927 -0.1414
17389TIP3    H173658   2.740   4.042   2.623 -1.6489 -2.2642  1.3233
17389TIP3    H273659   2.802   3.985   2.748  0.8895  0.6485  1.5104
17390TIP3   OH273660   3.755   2.259   5.074  0.3655  0.1407 -0.4968
17390TIP3    H173661   3.824   2.205   5.111  1.6028  1.3448 -0.9627
17390TIP3    H273662   3.681   2.248   5.133  0.6331 -1.8713 -0.4663
17391TIP3   OH273663   2.199   0.600   1.044  0.2809  0.6082  0.0623
17391TIP3    H173664   2.111   0.583   1.009 -0.8248  2.1912  1.8459
17391TIP3    H273665   2.249   0.631   0.969 -0.1042 -1.9820 -1.3802
17392TIP3   OH273666   3.332   6.253   0.889  0.3562  0.3184 -0.2030
17392TIP3    H173667   3.393   6.256   0.816  2.9443 -1.6645  1.6651
17392TIP3    H273668   3.313   6.160   0.902  1.2577  0.4056  2.5065
17393TIP3   OH273669   3.930   1.253  14.417 -0.3497 -0.2038  0.4193
17393TIP3    H173670   3.882   1.329  14.384  1.0487  0.2341 -0.7160
17393TIP3    H273671   3.931   1.191  14.344  1.0545 -0.0607  0.2833
17394TIP3   OH273672   3.370   0.530  10.260  0.6315  1.0717  0.1509
17394TIP3    H173673   3.443   0.581  10.295 -0.1376  0.0009  3.7521
17394TIP3    H273674   3.296   0.552  10.317 -0.7885 -0.9971 -0.7653
17395TIP3   OH273675   5.186   2.977  12.195  0.2801 -0.0108  0.3470
17395TIP3    H173676   5.204   3.071  12.192  1.0019 -0.0886  1.5309
17395TIP3    H273677   5.092   2.971  12.213  0.1647  0.4747 -0.0790
17396TIP3   OH273678   4.579   5.208  15.955 -0.4757 -0.1875 -0.4238
17396TIP3    H173679   4.571   5.256  16.037 -0.8816 -1.3652  0.2500
17396TIP3    H273680   4.492   5.211  15.916  0.3122  2.7716 -2.2668
17397TIP3   OH273681   3.835   3.965  14.612  0.2211 -0.5351  0.6762
17397TIP3    H173682   3.845   3.885  14.561  0.6767 -0.2156  0.2605
17397TIP3    H273683   3.744   3.991  14.598  0.5507 -0.0062 -0.6430
17398TIP3   OH273684   3.256   4.060   2.114 -0.1356  0.3457  0.0697
17398TIP3    H173685   3.327   4.090   2.170  0.5444  1.9009 -1.5423
17398TIP3    H273686   3.297   4.040   2.030 -1.6156  1.7954 -1.0660
17399TIP3   OH273687   6.765   2.233   3.992 -0.1297 -0.1580 -0.6687
17399TIP3    H173688   6.826   2.278   4.051  0.9734 -3.1386  0.6371
17399TIP3    H273689   6.820   2.202   3.920 -0.8874  0.5966 -1.6044
17400TIP3   OH273690   2.789   2.689  12.225 -0.6057 -0.0660 -0.0984
17400TIP3    H173691   2.803   2.638  12.306 -0.8778 -0.2198 -0.1442
17400TIP3    H273692   2.737   2.631  12.170  0.5087 -0.3912 -0.8313
17401TIP3   OH273693   6.261   0.796  11.490 -0.0033  0.3269  0.0262
17401TIP3    H173694   6.166   0.799  11.495 -0.4432 -2.7064 -3.1483
17401TIP3    H273695   6.283   0.848  11.413  1.0220  1.2014  0.8665
17402TIP3   OH273696   5.887   3.281   4.432  0.1246 -0.2186 -0.0628
17402TIP3    H173697   5.933   3.210   4.387 -1.4036 -1.3425  0.0742
17402TIP3    H273698   5.954   3.322   4.487  1.8199  0.5735 -2.5668
17403TIP3   OH273699   6.083   2.353   1.855 -0.0570 -0.1701  0.1436
17403TIP3    H173700   6.147   2.346   1.926 -0.0480 -1.2789  0.0432
17403TIP3    H273701   6.020   2.283   1.872 -0.0365 -0.4801 -0.9592
17404TIP3   OH273702   1.612   0.322   6.488  0.0273  0.3433  0.5448
17404TIP3    H173703   1.701   0.355   6.494  0.0689  0.3392  0.0251
17404TIP3    H273704   1.560   0.399   6.464  0.4359 -0.2816 -2.9355
17405TIP3   OH273705   0.556   4.976  13.934 -0.3173  0.4505  0.1053
17405TIP3    H173706   0.479   5.030  13.912 -1.3477 -0.5141  1.1945
17405TIP3    H273707   0.628   5.018  13.887 -1.4096  1.6825 -0.5684
17406TIP3   OH273708   1.950   1.751  14.433 -0.3630  0.2950 -0.1298
17406TIP3    H173709   1.919   1.830  14.388 -0.1187  0.1765 -0.5167
17406TIP3    H273710   1.890   1.739  14.506  0.5369  1.7736  0.9004
17407TIP3   OH273711   0.388   6.688  12.070 -0.0883 -0.2692  0.4630
17407TIP3    H173712   0.478   6.659  12.058 -0.4967 -1.4000 -0.0738
17407TIP3    H273713   0.386   6.726  12.157  0.7409 -0.9013  0.7689
17408TIP3   OH273714   1.173   2.829  15.760  0.1046 -0.1314 -0.0856
17408TIP3    H173715   1.179   2.767  15.688  1.2085 -0.7806  0.5427
17408TIP3    H273716   1.218   2.786  15.833 -0.5297  0.7269  0.8434
17409TIP3   OH273717   5.878   2.858   1.473  0.3788 -0.0494  0.2887
17409TIP3    H173718   5.921   2.782   1.433 -0.2929 -0.6044  0.5933
17409TIP3    H273719   5.943   2.895   1.532  0.8438 -0.1572 -0.1554
17410TIP3   OH273720   0.833   5.552  12.516  0.0935 -0.3392  0.1730
17410TIP3    H173721   0.895   5.504  12.572 -0.0713 -0.7563  0.0005
17410TIP3    H273722   0.755   5.564  12.571  0.8893  1.6437  0.9873
17411TIP3   OH273723   4.774   6.669  16.584 -0.0527 -0.5791  0.4784
17411TIP3    H173724   4.711   6.700  16.649 -0.9898 -2.6840  0.6477
17411TIP3    H273725   4.791   6.578  16.609 -1.0771 -1.7453 -2.6932
17412TIP3   OH273726   2.774   4.362  12.269 -0.1544 -0.0009  0.0072
17412TIP3    H173727   2.844   4.298  12.287  1.4534  1.6898  0.1318
17412TIP3    H273728   2.821   4.444  12.255 -2.1951  1.3420  0.7007
17413TIP3   OH273729   4.866   1.230   0.841  0.3527 -0.2974  0.9397
17413TIP3    H173730   4.782   1.265   0.873 -0.4925 -0.2504 -1.1365
17413TIP3    H273731   4.889   1.161   0.904 -1.5000 -0.6413  1.3013
17414TIP3   OH273732   4.128   6.497  10.338 -0.1780  0.1648 -0.2252
17414TIP3    H173733   4.036   6.485  10.361  0.4780 -1.3061  1.9386
17414TIP3    H273734   4.152   6.582  10.376 -0.4863  0.2810 -0.2898
17415TIP3   OH273735   3.227   5.313   2.427 -0.2221 -0.1876  0.0420
17415TIP3    H173736   3.277   5.312   2.345  0.4433  1.5332  0.3694
17415TIP3    H273737   3.246   5.229   2.468  0.9657 -0.3136 -0.6996
17416TIP3   OH273738   2.073   1.406  14.700  0.7321 -0.5557  0.7100
17416TIP3    H173739   2.088   1.312  14.702 -0.7252 -0.8844 -0.9426
17416TIP3    H273740   2.090   1.431  14.609 -0.4839  0.4670  0.7340
17417TIP3   OH273741   6.653   2.148  15.321 -0.4116 -0.1412  0.3835
17417TIP3    H173742   6.568   2.104  15.324 -0.0159 -0.8500  1.2429
17417TIP3    H273743   6.655   2.189  15.234 -0.3831 -2.6267 -0.8686
17418TIP3   OH273744   5.033   1.701   4.147 -0.3925 -0.5002 -0.0183
17418TIP3    H173745   4.982   1.646   4.088 -1.6214  0.8102 -0.2481
17418TIP3    H273746   4.967   1.742   4.204  0.1045  2.6047 -1.4500
17419TIP3   OH273747   3.204   1.564  12.400  0.2872  0.2032  0.0423
17419TIP3    H173748   3.210   1.480  12.355 -0.8817 -1.1319  2.1929
17419TIP3    H273749   3.155   1.620  12.341  0.4876 -0.8370 -1.1447
17420TIP3   OH273750   3.021   4.318  12.936  0.9091  0.0794  0.5092
17420TIP3    H173751   2.959   4.307  13.008  0.9041  1.6573  0.7804
17420TIP3    H273752   3.074   4.238  12.937 -1.9451 -2.0200 -0.6095
17421TIP3   OH273753   3.941   0.438  14.511  0.4921  0.2691  0.5291
17421TIP3    H173754   3.978   0.525  14.495  0.6622  0.1448  0.2399
17421TIP3    H273755   3.847   0.450  14.509  0.5024  0.6374  1.5017
17422TIP3   OH273756   3.573   2.362   1.166 -0.0004 -0.2747  0.0026
17422TIP3    H173757   3.659   2.351   1.208 -0.0777  0.7212  0.4516
17422TIP3    H273758   3.512   2.315   1.223  0.5079 -2.9748 -1.5110
17423TIP3   OH273759   1.116   0.262   5.494  0.0816 -0.2773  0.1076
17423TIP3    H173760   1.029   0.223   5.507  0.7214 -1.1321  2.2293
17423TIP3    H273761   1.113   0.345   5.539  0.0606  0.1985 -0.7447
17424TIP3   OH273762   6.621   0.508   0.890  0.3696  0.4340  0.0391
17424TIP3    H173763   6.561   0.465   0.828 -1.5648  1.3688  1.1771
17424TIP3    H273764   6.682   0.439   0.915  0.1011 -0.4358 -1.5193
17425TIP3   OH273765   2.298   2.003  14.667  0.3412  0.1011  0.4535
17425TIP3    H173766   2.250   1.921  14.674  1.0600 -0.4661 -0.7824
17425TIP3    H273767   2.261   2.046  14.590  0.7128  0.4187  0.4471
17426TIP3   OH273768   1.459   4.575  16.203  0.7663 -0.3534 -0.0929
17426TIP3    H173769   1.505   4.658  16.217 -0.9737  0.5193  0.7357
17426TIP3    H273770   1.418   4.585  16.117  0.7915 -0.4748 -0.1182
17427TIP3   OH273771   2.110   4.623  11.277 -0.3589 -0.6436 -0.0643
17427TIP3    H173772   2.131   4.561  11.208 -0.2146 -1.4463  0.6812
17427TIP3    H273773   2.143   4.582  11.357 -2.6931 -0.9209  0.8438
17428TIP3   OH273774   3.914   5.258  15.260  0.9183 -0.7530  0.5489
17428TIP3    H173775   3.892   5.336  15.209  0.2295 -0.8931  0.6193
17428TIP3    H273776   3.928   5.189  15.195 -0.2038 -0.9933  0.5317
17429TIP3   OH273777   2.171   0.382   0.026 -0.6683 -0.5357 -0.4404
17429TIP3    H173778   2.171   0.410   0.118 -0.6203  1.0004 -0.8896
17429TIP3    H273779   2.186   0.462  -0.024 -1.5330 -1.2080 -1.8442
17430TIP3   OH273780   4.094   1.655   2.263  0.5691  0.0480  0.0103
17430TIP3    H173781   4.032   1.610   2.320  0.9485  0.3997  0.7132
17430TIP3    H273782   4.070   1.747   2.269 -0.6139 -0.0724 -1.9175
17431TIP3   OH273783   1.021   4.610  14.181 -0.4419  0.4624 -0.2813
17431TIP3    H173784   1.089   4.592  14.245  0.7589  0.3703 -1.5397
17431TIP3    H273785   0.943   4.630  14.233  0.4269  0.1358  1.1807
17432TIP3   OH273786   2.560   1.201   3.325  0.9954 -0.3170 -0.1556
17432TIP3    H173787   2.497   1.191   3.396  0.1325  2.1365 -0.4766
17432TIP3    H273788   2.646   1.196   3.367  0.5889 -1.8563  0.5592
17433TIP3   OH273789   6.254   4.096  15.046  0.0314 -0.3908  0.2253
17433TIP3    H173790   6.178   4.150  15.066  0.1954  0.0612 -0.3517
17433TIP3    H273791   6.297   4.083  15.131  1.0846  2.0429  0.1289
17434TIP3   OH273792   5.020   4.392  15.508  0.0287 -0.2558  0.0073
17434TIP3    H173793   4.970   4.473  15.521  1.2120  0.3550  1.0449
17434TIP3    H273794   4.976   4.327  15.563  0.2294  0.2205  0.7499
17435TIP3   OH273795   3.811   3.186  14.923 -0.5041 -0.6967  0.3390
17435TIP3    H173796   3.747   3.238  14.874 -0.4949 -0.8671  0.1481
17435TIP3    H273797   3.765   3.159  15.002 -0.8675 -1.3421 -0.0888
17436TIP3   OH273798   5.806   0.939  13.568  0.3189 -0.5538 -0.7160
17436TIP3    H173799   5.881   0.883  13.591  0.1248 -0.5460 -0.0614
17436TIP3    H273800   5.755   0.945  13.649 -0.2909 -0.4031 -1.1084
17437TIP3   OH273801   2.338   2.092  11.888  0.3341 -0.0838  0.4022
17437TIP3    H173802   2.298   2.129  11.809  2.3606  1.6691  0.1371
17437TIP3    H273803   2.375   2.008  11.859  0.4612  0.2230 -0.3363
17438TIP3   OH273804   3.620   1.301  15.974  0.6082  0.1052  0.1102
17438TIP3    H173805   3.543   1.358  15.969 -0.9101 -1.8956 -0.2464
17438TIP3    H273806   3.655   1.301  15.885 -0.3614 -0.7658 -0.2916
17439TIP3   OH273807   3.794   2.982  13.410  0.2246  0.7631 -0.1947
17439TIP3    H173808   3.750   2.939  13.337 -2.4866  1.1693  1.1127
17439TIP3    H273809   3.757   2.942  13.488  0.8726  2.4031  1.0062
17440TIP3   OH273810   1.144   6.428   0.914 -0.8402  0.1844 -0.1483
17440TIP3    H173811   1.080   6.492   0.946 -0.6593 -0.1529  0.9401
17440TIP3    H273812   1.098   6.344   0.920  0.1594 -0.2898  2.1831
17441TIP3   OH273813   5.487   0.490   0.873 -0.4553 -0.2297  0.3611
17441TIP3    H173814   5.434   0.570   0.876 -0.7521 -0.4206  0.1738
17441TIP3    H273815   5.462   0.442   0.952  0.7739  0.5226  1.2582
17442TIP3   OH273816   1.047   4.255  14.531  0.6309  0.0828 -0.2813
17442TIP3    H173817   1.114   4.279  14.467  0.7612  0.6930  0.0807
17442TIP3    H273818   1.068   4.164  14.555  2.9172  1.0287  1.7247
17443TIP3   OH273819   1.157   3.094  15.711  0.1285 -0.1706 -0.5209
17443TIP3    H173820   1.177   3.004  15.735  0.4680  0.1223  0.3194
17443TIP3    H273821   1.239   3.142  15.724  0.3074  0.0257 -2.2088
17444TIP3   OH273822   3.327   0.327   1.226 -0.0583 -0.1664 -0.3607
17444TIP3    H173823   3.356   0.240   1.257 -2.1924 -1.0451 -0.6661
17444TIP3    H273824   3.401   0.359   1.174  0.3535 -2.3442 -1.2477
17445TIP3   OH273825   5.740   0.415  16.357  0.0711  0.4945  0.2251
17445TIP3    H173826   5.777   0.416  16.268 -1.6069 -0.0121 -0.5215
17445TIP3    H273827   5.702   0.502  16.368 -0.2557  0.3542  0.2057
17446TIP3   OH273828   3.251   0.931  13.723 -0.3532 -0.2216 -0.0288
17446TIP3    H173829   3.313   1.004  13.731 -0.3684 -0.4268  2.5640
17446TIP3    H273830   3.194   0.956  13.651  2.2162  0.3379 -2.0368
17447TIP3   OH273831   3.843   4.663  15.989  0.5179  0.4011 -0.5189
17447TIP3    H173832   3.814   4.575  15.962  0.1100  0.1980  0.5368
17447TIP3    H273833   3.920   4.680  15.936 -0.4770  0.1885 -2.1091
17448TIP3   OH273834   4.419   5.119   4.127  0.4062 -0.1521  0.2003
17448TIP3    H173835   4.352   5.155   4.185  0.8567  2.9901 -0.9923
17448TIP3    H273836   4.375   5.049   4.079 -1.3699  0.3772  0.9809
17449TIP3   OH273837   3.018   1.801   1.356 -0.0969 -0.1812 -0.4578
17449TIP3    H173838   3.043   1.786   1.265  0.9012 -0.3867 -0.1623
17449TIP3    H273839   3.053   1.725   1.403  0.8001  0.6908  0.3371
17450TIP3   OH273840   4.037   5.366   5.155 -0.4405  0.3155  0.1839
17450TIP3    H173841   4.016   5.298   5.219 -0.4520  0.1783  0.0342
17450TIP3    H273842   4.093   5.428   5.203 -0.4274  0.1996  0.3179
17451TIP3   OH273843   3.271   3.737  17.181 -0.2097 -0.4852  0.0726
17451TIP3    H173844   3.205   3.679  17.144 -0.5186 -1.0778  1.4881
17451TIP3    H273845   3.278   3.710  17.272 -0.4197  1.7485  0.8183
17452TIP3   OH273846   6.408   1.195   0.131  0.5423  0.3005  0.1082
17452TIP3    H173847   6.448   1.231   0.052  1.0102 -0.6422 -0.0997
17452TIP3    H273848   6.474   1.208   0.199  0.3655  0.6072  0.2218
17453TIP3   OH273849   4.772   0.202  11.484  0.1472 -0.0836  0.0115
17453TIP3    H173850   4.738   0.269  11.544  0.3833  0.0060  0.0438
17453TIP3    H273851   4.762   0.240  11.397 -1.1573 -0.6200 -0.0969
17454TIP3   OH273852   4.726   2.458   3.625 -0.3956 -0.0442  0.3540
17454TIP3    H173853   4.714   2.547   3.657 -1.3225 -0.0112 -0.0775
17454TIP3    H273854   4.814   2.459   3.586 -0.4417  0.7061  0.2502
17455TIP3   OH273855   2.352   3.789  12.478 -0.9525  0.3894  0.0922
17455TIP3    H173856   2.351   3.720  12.545  0.0617  2.0567  1.9338
17455TIP3    H273857   2.403   3.752  12.406  0.5651 -0.3984  1.5179
17456TIP3   OH273858   5.318   0.282  12.180 -0.3921  0.2586  0.3305
17456TIP3    H173859   5.378   0.242  12.243 -0.3012 -1.0690 -0.5458
17456TIP3    H273860   5.364   0.360  12.149  1.4091 -1.2672 -1.0844
17457TIP3   OH273861   6.637   1.008  14.543 -0.0778 -0.8289  0.2685
17457TIP3    H173862   6.690   1.056  14.607  1.4654  0.6512 -1.9591
17457TIP3    H273863   6.569   1.070  14.517 -1.6932 -1.9866  1.5689
17458TIP3   OH273864   2.540   4.658   4.643 -0.5799 -0.1170 -0.0348
17458TIP3    H173865   2.608   4.593   4.658  0.3359  0.8865  0.3568
17458TIP3    H273866   2.485   4.653   4.721 -0.4696 -0.3726  0.0277
17459TIP3   OH273867   3.198   6.244   2.809 -0.2913  0.0426 -0.0116
17459TIP3    H173868   3.194   6.320   2.868 -1.2838  0.3149 -0.4162
17459TIP3    H273869   3.108   6.213   2.804  0.1694 -1.4680  0.5192
17460TIP3   OH273870   2.891   1.396   1.414  0.7617 -0.3006  0.1139
17460TIP3    H173871   2.841   1.470   1.378  0.4067 -0.2733  0.6525
17460TIP3    H273872   2.869   1.322   1.357  0.4341 -0.1882  0.0931
17461TIP3   OH273873   0.894   1.088   1.234 -0.6575 -0.7549  0.4673
17461TIP3    H173874   0.932   1.173   1.214  0.5871 -1.5046 -0.5210
17461TIP3    H273875   0.967   1.035   1.266 -1.2499 -1.6847  0.3352
17462TIP3   OH273876   1.399   1.325   3.660 -0.1927  1.2340  0.5445
17462TIP3    H173877   1.382   1.403   3.606 -3.0250  1.5238  1.6510
17462TIP3    H273878   1.411   1.360   3.748  1.6802  0.5785  0.5859
17463TIP3   OH273879   5.662   6.030   2.807 -0.7942 -0.2920 -0.1520
17463TIP3    H173880   5.570   6.058   2.807 -0.2379  1.6737  0.3299
17463TIP3    H273881   5.703   6.081   2.876  0.6702 -1.1795 -0.3259
17464TIP3   OH273882   3.434   0.085   3.592  0.8428 -0.8673  0.5670
17464TIP3    H173883   3.441   0.127   3.507  0.2585 -0.1856  0.8438
17464TIP3    H273884   3.425   0.157   3.654 -1.8183 -1.3778  0.8952
17465TIP3   OH273885   6.604   0.491  13.151  0.1759  0.3853 -0.2789
17465TIP3    H173886   6.597   0.457  13.062  2.1345  0.4331 -0.4930
17465TIP3    H273887   6.657   0.425  13.198  3.8057  2.7566 -0.6122
17466TIP3   OH273888   2.318   0.297  13.249 -0.3550  0.2903  0.0253
17466TIP3    H173889   2.345   0.338  13.331 -0.5332  1.2024 -0.3547
17466TIP3    H273890   2.301   0.371  13.190  0.2156 -0.3451 -0.9731
17467TIP3   OH273891   3.698   3.908  16.048  0.9775  0.1048  0.5751
17467TIP3    H173892   3.626   3.918  16.110 -0.6243  2.0017 -1.4717
17467TIP3    H273893   3.736   3.995  16.041  0.5210  0.1630 -1.7466
17468TIP3   OH273894   1.002   4.725   6.282 -0.2888 -0.0697 -0.9701
17468TIP3    H173895   0.977   4.680   6.363  0.4869  0.7019 -0.2794
17468TIP3    H273896   0.932   4.704   6.220 -1.3738  0.0642  0.1717
17469TIP3   OH273897   3.358   1.376   1.938  0.3752 -0.4755  0.0600
17469TIP3    H173898   3.326   1.453   1.986 -0.0690 -0.1520 -0.7359
17469TIP3    H273899   3.298   1.367   1.864  0.4033 -1.6163  0.1625
17470TIP3   OH273900   6.071   2.852  15.607  0.0696  0.1362  0.6906
17470TIP3    H173901   6.078   2.772  15.555 -0.3120 -0.1377  1.0549
17470TIP3    H273902   6.033   2.824  15.690  1.4287  0.4392  1.4440
17471TIP3   OH273903   5.360   0.731   6.314 -0.4367  0.2996  0.1988
17471TIP3    H173904   5.428   0.799   6.311 -1.2605  1.3201  2.3991
17471TIP3    H273905   5.278   0.780   6.316 -1.1370 -0.8489  0.1735
17472TIP3   OH273906   6.235   6.504   3.771 -0.2847 -0.5894  0.3515
17472TIP3    H173907   6.170   6.572   3.786 -1.2911 -1.7050  1.1811
17472TIP3    H273908   6.311   6.532   3.822 -1.1860 -0.7639  1.8405
17473TIP3   OH273909   6.411   1.875  10.884  0.6691 -0.3661  0.0615
17473TIP3    H173910   6.367   1.846  10.804 -1.2655 -0.6332  1.1755
17473TIP3    H273911   6.340   1.898  10.944  2.0564 -0.9021  1.9960
17474TIP3   OH273912   2.464   0.684   5.846  0.8935  0.2227 -0.0080
17474TIP3    H173913   2.418   0.768   5.850 -0.3732 -0.4777  0.6324
17474TIP3    H273914   2.472   0.657   5.938 -1.6883 -1.8941 -0.3008
17475TIP3   OH273915   2.725   3.161   5.659  0.5930  0.4555  0.2002
17475TIP3    H173916   2.718   3.219   5.584  0.8505  0.9921  0.5847
17475TIP3    H273917   2.644   3.111   5.659 -0.4937  2.1324  0.9429
17476TIP3   OH273918   2.491   5.004  14.470  0.0231  0.0416  0.5719
17476TIP3    H173919   2.560   4.995  14.536  0.0829  0.3457  0.5485
17476TIP3    H273920   2.426   5.062  14.510  0.3126  0.6554  0.1526
17477TIP3   OH273921   2.967   1.414  11.289  0.1012 -0.6111 -0.3660
17477TIP3    H173922   3.043   1.460  11.326 -0.1867 -1.0437  0.8199
17477TIP3    H273923   2.923   1.480  11.236  0.2036  0.2275  0.5597
17478TIP3   OH273924   0.369   4.351   3.651  0.3844 -0.0017  0.0676
17478TIP3    H173925   0.443   4.294   3.630  3.1111  1.6977  3.8703
17478TIP3    H273926   0.330   4.310   3.729  0.1529  1.3739  0.7026
17479TIP3   OH273927   0.213   1.943  14.191 -0.5413 -0.4125  1.2738
17479TIP3    H173928   0.257   2.016  14.234 -1.0742  1.4510 -1.1387
17479TIP3    H273929   0.276   1.871  14.195  0.8185  0.7659  1.9541
17480TIP3   OH273930   1.795   2.968   2.858 -0.1064 -0.5526  0.2605
17480TIP3    H173931   1.814   3.046   2.805  1.0030 -1.0334 -0.0867
17480TIP3    H273932   1.744   3.001   2.932  2.2506  0.9435  1.3696
17481TIP3   OH273933   5.929   6.775  11.873  0.1585 -0.6453  0.2515
17481TIP3    H173934   5.928   6.682  11.849  0.4720 -0.8990  1.1795
17481TIP3    H273935   6.012   6.787  11.920  0.8934  0.4795 -1.2369
17482TIP3   OH273936   4.284   4.217   0.802  0.1809 -0.3304 -0.1844
17482TIP3    H173937   4.192   4.192   0.793  0.3016 -1.2738  0.9843
17482TIP3    H273938   4.332   4.137   0.783  0.7369 -0.0114 -0.1260
17483TIP3   OH273939   5.122   0.850   2.410  0.5320  0.0663  0.6735
17483TIP3    H173940   5.080   0.860   2.496  1.3551  0.1732  1.0735
17483TIP3    H273941   5.053   0.817   2.353 -0.8275  2.7295  0.6431
17484TIP3   OH273942   4.321   3.629  14.926 -0.4623  0.3900  0.4878
17484TIP3    H173943   4.278   3.641  15.011  3.5727  1.1711  2.6525
17484TIP3    H273944   4.354   3.539  14.929 -1.9991 -0.2836 -1.2330
17485TIP3   OH273945   4.079   4.440   2.515  0.3500  1.1341 -0.0768
17485TIP3    H173946   4.033   4.449   2.598  0.0789  1.6446 -0.2761
17485TIP3    H273947   4.043   4.510   2.460  0.5751  0.8462 -0.5998
17486TIP3   OH273948   2.070   6.360  15.320 -0.6414 -0.1489 -0.3998
17486TIP3    H173949   2.118   6.343  15.401  1.3274  1.8558 -1.0336
17486TIP3    H273950   1.981   6.330  15.337  0.1580 -1.4263  1.8544
17487TIP3   OH273951   3.641   5.629  12.469 -0.0444 -0.4508 -0.2599
17487TIP3    H173952   3.594   5.702  12.510 -0.0992 -1.4661  1.6055
17487TIP3    H273953   3.572   5.577  12.427 -0.7156 -1.8871  2.3879
17488TIP3   OH273954   5.646   5.320   1.838 -0.0304  0.5724 -0.0408
17488TIP3    H173955   5.733   5.358   1.829  0.4331 -0.8640 -2.2716
17488TIP3    H273956   5.656   5.252   1.904  0.2535  1.1503  0.5233
17489TIP3   OH273957   5.320   0.189   0.265  0.1997 -0.6724 -0.5399
17489TIP3    H173958   5.405   0.154   0.294  0.0806 -0.2568  0.3608
17489TIP3    H273959   5.295   0.133   0.192  0.3560 -2.0277  0.3917
17490TIP3   OH273960   3.725   4.588  10.960 -0.4420  0.0385  0.0183
17490TIP3    H173961   3.682   4.600  11.044  1.4359  2.8971  0.7197
17490TIP3    H273962   3.699   4.500  10.932 -0.7341 -1.2581  3.7765
17491TIP3   OH273963   4.776   4.457  14.705 -0.8828 -0.9671  1.2142
17491TIP3    H173964   4.691   4.470  14.747 -0.7453 -1.2707  1.5922
17491TIP3    H273965   4.833   4.426  14.776 -0.3082 -0.2190  1.1048
17492TIP3   OH273966   5.620   6.513  15.301  0.1103  0.1400  0.0164
17492TIP3    H173967   5.616   6.440  15.239  0.4700  0.6199 -0.5752
17492TIP3    H273968   5.555   6.576  15.269  1.6331  1.2567 -1.0142
17493TIP3   OH273969   4.494   0.930   5.936 -0.2308  0.2671  0.1416
17493TIP3    H173970   4.488   1.001   5.872  0.7506  0.4442  0.2318
17493TIP3    H273971   4.578   0.944   5.980 -0.2670 -0.6452  0.5242
17494TIP3   OH273972   6.564   4.184  12.793  0.2005 -0.3365 -0.1847
17494TIP3    H173973   6.607   4.113  12.745  0.9562 -0.3033  0.4279
17494TIP3    H273974   6.631   4.218  12.852  0.1220  1.4819 -1.0679
17495TIP3   OH273975   3.712   4.378   0.554  0.0321 -0.3713  0.0452
17495TIP3    H173976   3.685   4.287   0.543  1.7164 -0.9906  0.6750
17495TIP3    H273977   3.761   4.398   0.474 -1.5650  0.4990 -0.7617
17496TIP3   OH273978   4.623   0.242  14.596  0.1528 -0.1662 -0.2223
17496TIP3    H173979   4.664   0.328  14.589 -0.5269  0.2601  0.7455
17496TIP3    H273980   4.538   0.252  14.552  0.7352 -0.8266 -1.5503
17497TIP3   OH273981   2.283   1.414  13.724  0.3029 -0.3245  0.7557
17497TIP3    H173982   2.345   1.354  13.683  1.6047  2.5427 -1.8824
17497TIP3    H273983   2.334   1.458  13.793 -0.0030 -0.6792  1.2168
17498TIP3   OH273984   6.539   3.949  14.563 -0.1843 -0.4001  0.1329
17498TIP3    H173985   6.547   3.946  14.658  2.8724 -0.4022 -0.0510
17498TIP3    H273986   6.517   4.040  14.543  0.9356  0.0150  0.7638
17499TIP3   OH273987   1.672   5.078  12.600  0.2846  0.1537  0.3154
17499TIP3    H173988   1.718   5.159  12.623 -0.2330  0.6196 -0.2639
17499TIP3    H273989   1.742   5.017  12.578  0.6418  1.0239 -1.1287
17500TIP3   OH273990   2.878   2.256  13.928 -0.2148  0.4407 -0.2622
17500TIP3    H173991   2.818   2.211  13.869 -1.2655  0.1741  0.9452
17500TIP3    H273992   2.902   2.336  13.882  1.9128 -1.3933 -2.5814
17501TIP3   OH273993   0.140   1.937   3.227  0.0993  0.1416 -0.3826
17501TIP3    H173994   0.148   1.867   3.162  2.0158 -0.4312  0.3823
17501TIP3    H273995   0.148   1.892   3.311 -0.9662  1.0315  0.2065
17502TIP3   OH273996   6.079   5.915   6.828  0.0096  0.6819  0.4542
17502TIP3    H173997   6.114   5.990   6.876  2.8685 -0.6946  0.7216
17502TIP3    H273998   6.068   5.946   6.738  0.3559  1.6463  0.7415
17503TIP3   OH273999   4.166   3.672   3.098  0.0643  0.2756 -0.6714
17503TIP3    H174000   4.120   3.614   3.037  0.7403  1.0189 -1.9421
17503TIP3    H274001   4.254   3.634   3.105  0.3548  0.8498 -1.1196
17504TIP3   OH274002   6.014   5.592   4.191 -0.3617 -0.7205  0.5463
17504TIP3    H174003   6.081   5.657   4.172 -0.7444 -0.6883 -0.7530
17504TIP3    H274004   5.975   5.622   4.274 -2.0865  2.0749 -1.1162
17505TIP3   OH274005   2.904   4.075   4.597  0.2412  0.3387 -0.2149
17505TIP3    H174006   2.986   4.092   4.643 -0.1734  0.8894  0.3573
17505TIP3    H274007   2.886   4.156   4.549 -0.4909  0.6386  0.5200
17506TIP3   OH274008   3.306   1.473  11.741 -0.0352 -0.1243 -0.0269
17506TIP3    H174009   3.214   1.466  11.766 -0.3232  2.3161 -0.0973
17506TIP3    H274010   3.321   1.399  11.682 -1.8641 -0.7234  0.2022
17507TIP3   OH274011   3.914   2.779  12.452  0.3850  0.1418  0.2265
17507TIP3    H174012   3.960   2.804  12.371 -0.9472 -1.1173 -0.9632
17507TIP3    H274013   3.840   2.840  12.456  0.8578  0.6852  0.9233
17508TIP3   OH274014   4.588   0.661  17.055  0.0857 -0.3159 -0.0753
17508TIP3    H174015   4.634   0.597  17.002 -0.9640 -0.8725 -0.3402
17508TIP3    H274016   4.640   0.668  17.135  0.1002 -1.6625  0.0483
17509TIP3   OH274017   2.244   2.873   5.444  0.4370 -0.3436 -0.6083
17509TIP3    H174018   2.317   2.838   5.495 -0.5097 -0.4990  0.6881
17509TIP3    H274019   2.208   2.943   5.499 -1.4042 -1.3727 -0.4556
17510TIP3   OH274020   6.618   3.339  14.683  0.0444 -0.2769 -1.1827
17510TIP3    H174021   6.707   3.371  14.698  0.6687 -2.2404 -0.4305
17510TIP3    H274022   6.571   3.361  14.763  0.4025 -0.9726 -0.7704
17511TIP3   OH274023   6.330   0.831   5.365  0.1541 -0.0070  0.3947
17511TIP3    H174024   6.362   0.863   5.280 -0.9975  0.7044  0.2079
17511TIP3    H274025   6.249   0.785   5.344  0.8947 -1.5963  0.8874
17512TIP3   OH274026   5.011   1.191  11.621 -0.2451 -0.3144 -0.2511
17512TIP3    H174027   5.093   1.141  11.618 -0.8410 -1.3051 -0.3896
17512TIP3    H274028   4.972   1.167  11.705 -2.3953 -3.1794 -1.8776
17513TIP3   OH274029   0.109   6.555  14.797 -0.6254  0.1206 -0.1966
17513TIP3    H174030   0.086   6.501  14.872  2.1269  0.5603  1.0904
17513TIP3    H274031   0.162   6.626  14.834  2.1413 -0.4588 -2.6437
17514TIP3   OH274032   5.738   2.549   1.925 -0.0577 -0.0931  0.1272
17514TIP3    H174033   5.829   2.560   1.953  0.4365 -0.1030 -1.3493
17514TIP3    H274034   5.693   2.515   2.002  1.0954  0.3019  1.0111
17515TIP3   OH274035   4.351   2.590  16.404 -0.0692 -0.1603  0.0009
17515TIP3    H174036   4.280   2.620  16.461  0.2972 -0.0562  0.4054
17515TIP3    H274037   4.319   2.508  16.367 -0.4891 -0.0027  0.0132
17516TIP3   OH274038   4.491   4.245  14.776 -0.7967  0.3124  0.1309
17516TIP3    H174039   4.467   4.337  14.769  0.3174  0.8960  2.7085
17516TIP3    H274040   4.426   4.207  14.836  0.0226 -0.0033  0.8460
17517TIP3   OH274041   6.459   6.551   3.917 -0.2981  0.0111  0.5234
17517TIP3    H174042   6.491   6.639   3.939  1.3886 -0.5167  0.3207
17517TIP3    H274043   6.532   6.510   3.870 -2.4451 -0.1771 -2.9523
17518TIP3   OH274044   6.374   2.018  12.542  0.2175 -0.0773 -0.1557
17518TIP3    H174045   6.449   2.032  12.484  1.1831 -1.9506  0.5297
17518TIP3    H274046   6.298   2.022  12.485  0.8155  1.7793 -0.8950
17519TIP3   OH274047   4.413   5.063   3.296  0.4590 -0.1786 -0.3475
17519TIP3    H174048   4.430   4.973   3.269 -0.4249 -0.4374 -0.0860
17519TIP3    H274049   4.470   5.116   3.240  0.0844 -0.8168 -1.3569
17520TIP3   OH274050   2.515   1.995  13.217 -0.6801  0.3277 -0.1509
17520TIP3    H174051   2.610   1.984  13.212 -0.7745 -0.8291  0.3229
17520TIP3    H274052   2.502   2.090  13.219  0.6594  0.5771  2.8647
17521TIP3   OH274053   0.524   0.843  12.896  0.1057 -0.6946 -0.2691
17521TIP3    H174054   0.520   0.864  12.989 -0.3463 -0.1424 -0.4049
17521TIP3    H274055   0.435   0.818  12.873  0.2636 -1.0463 -0.5065
17522TIP3   OH274056   3.113   3.170   4.943  0.0180 -0.4196 -0.2588
17522TIP3    H174057   3.069   3.232   4.884 -1.4201  1.1964  2.3400
17522TIP3    H274058   3.206   3.179   4.922 -0.1265  2.6844 -0.0059
17523TIP3   OH274059   1.381   5.889   4.668 -0.2212  0.6290 -0.1005
17523TIP3    H174060   1.448   5.838   4.622 -1.0955 -2.6394  1.8800
17523TIP3    H274061   1.298   5.856   4.633 -0.9389  3.4773 -1.3772
17524TIP3   OH274062   2.338   6.474   4.987 -0.0370 -1.3171 -0.3540
17524TIP3    H174063   2.364   6.565   4.969 -1.6786 -0.9340 -1.0283
17524TIP3    H274064   2.370   6.457   5.075 -0.9910  0.4734  0.4095
17525TIP3   OH274065   4.413   3.780  11.744  0.1082 -0.6736 -0.3340
17525TIP3    H174066   4.378   3.759  11.831 -0.3016 -1.2186 -0.6236
17525TIP3    H274067   4.378   3.712  11.687  0.0355 -0.0888 -1.0047
17526TIP3   OH274068   3.140   0.783   0.409  0.2399 -0.6162 -0.0684
17526TIP3    H174069   3.107   0.870   0.386  0.5953 -0.1209  1.1969
17526TIP3    H274070   3.224   0.776   0.363  0.4612 -0.0678  0.2460
17527TIP3   OH274071   0.730   0.496   4.465  0.1141 -0.2010 -0.1221
17527TIP3    H174072   0.727   0.407   4.500 -1.7064 -1.5618 -3.3193
17527TIP3    H274073   0.645   0.534   4.488  0.2495  0.1453 -0.1832
17528TIP3   OH274074   0.518   1.895   5.484  0.5300 -0.0976  0.4782
17528TIP3    H174075   0.579   1.861   5.549  0.0482  0.3780  1.1881
17528TIP3    H274076   0.439   1.917   5.533 -0.3158 -0.9307 -0.4643
17529TIP3   OH274077   2.031   0.069   5.020  0.2472  0.0117 -0.2212
17529TIP3    H174078   2.077   0.142   4.978 -1.8916  0.9995 -1.0343
17529TIP3    H274079   2.022   0.095   5.111  0.2650  0.3733 -0.3205
17530TIP3   OH274080   1.781   4.700  15.428 -0.0795 -0.3085  0.0193
17530TIP3    H174081   1.812   4.738  15.510 -2.0597 -1.7217  1.5253
17530TIP3    H274082   1.798   4.606  15.438 -0.0022 -0.4530 -1.3654
17531TIP3   OH274083   0.813   5.165  13.992 -0.0817  0.1030  0.0338
17531TIP3    H174084   0.870   5.202  13.924 -0.1985  0.7716  0.2894
17531TIP3    H274085   0.728   5.207  13.976 -0.3474 -0.4344  0.0281
17532TIP3   OH274086   6.442   2.410  14.768  0.0901 -0.1782  0.0774
17532TIP3    H174087   6.367   2.469  14.770  0.5187  0.3639  0.4886
17532TIP3    H274088   6.485   2.423  14.853 -1.0138 -2.6714  1.1248
17533TIP3   OH274089   3.011   1.020  17.048  0.3577 -0.1707 -0.4506
17533TIP3    H174090   3.030   0.946  16.990  0.2160  0.9760 -2.0351
17533TIP3    H274091   3.095   1.042  17.088  0.3057 -1.4788  0.4346
17534TIP3   OH274092   2.779   4.791   1.470  0.1991 -0.1438 -0.1694
17534TIP3    H174093   2.815   4.878   1.456 -1.1844  0.4584 -0.0559
17534TIP3    H274094   2.854   4.732   1.456  1.5502  1.1195  1.3624
17535TIP3   OH274095   3.338   4.023  14.303 -1.0519 -0.4901  0.1762
17535TIP3    H174096   3.429   3.997  14.292 -0.3661  1.8965 -0.3180
17535TIP3    H274097   3.300   4.017  14.215 -0.2262  2.2615 -0.4613
17536TIP3   OH274098   4.717   4.722  17.003 -0.6596  0.1359 -0.1391
17536TIP3    H174099   4.736   4.642  16.954  2.0334  0.6590 -0.1439
17536TIP3    H274100   4.728   4.698  17.095 -0.6858  0.2874 -0.0952
17537TIP3   OH274101   3.662   0.883  14.386 -0.1180 -0.5287 -0.1358
17537TIP3    H174102   3.587   0.829  14.410 -0.9411  0.6760  0.0705
17537TIP3    H274103   3.692   0.921  14.468 -0.1228  0.0513 -0.3984
17538TIP3   OH274104   3.852   5.618  11.057  0.2778  0.0211 -0.1953
17538TIP3    H174105   3.881   5.634  10.967  3.1085  0.7635  0.7537
17538TIP3    H274106   3.793   5.691  11.076  2.7772  2.2165 -0.2498
17539TIP3   OH274107   3.250   5.094  16.744 -0.4450  0.4246 -0.0400
17539TIP3    H174108   3.161   5.098  16.708 -0.3979 -0.6148 -0.3045
17539TIP3    H274109   3.291   5.177  16.716 -0.7192  0.0706 -1.5893
17540TIP3   OH274110   5.647   5.662  13.067  0.5775  0.3390  0.1299
17540TIP3    H174111   5.680   5.724  13.132 -0.5625 -1.0290  2.1543
17540TIP3    H274112   5.552   5.662  13.080  0.1550  0.9472 -2.4854
17541TIP3   OH274113   2.683   5.205   5.677 -0.0230  0.2985 -1.0019
17541TIP3    H174114   2.648   5.284   5.719 -0.4229 -0.2481 -0.2739
17541TIP3    H274115   2.748   5.173   5.739  0.6638  0.4560 -1.6381
17542TIP3   OH274116   4.224   6.347   6.147 -0.0243  0.0679 -0.2575
17542TIP3    H174117   4.264   6.433   6.160 -0.5542  0.3600 -0.5242
17542TIP3    H274118   4.289   6.285   6.178  1.8037  0.3550 -3.1118
17543TIP3   OH274119   5.961   3.880  12.098  0.0321  0.1737 -0.0356
17543TIP3    H174120   5.944   3.903  12.007  0.6572 -1.3600 -0.5597
17543TIP3    H274121   5.880   3.838  12.128 -0.3652  1.1322  0.3147
17544TIP3   OH274122   6.237   3.376   3.420  0.0998 -0.6826 -0.1750
17544TIP3    H174123   6.231   3.281   3.412 -0.5331 -0.5585 -1.3115
17544TIP3    H274124   6.329   3.396   3.400  0.5904 -1.1531  1.4298
17545TIP3   OH274125   5.940   3.779  11.819 -0.6934  0.0179 -0.0151
17545TIP3    H174126   5.947   3.857  11.764  1.1302 -0.4466 -0.5094
17545TIP3    H274127   5.862   3.733  11.787 -0.1176  0.1605 -1.7118
17546TIP3   OH274128   5.673   4.179   3.500 -0.2771  0.7176  0.3730
17546TIP3    H174129   5.681   4.111   3.567  2.5540  0.0713 -0.4940
17546TIP3    H274130   5.599   4.232   3.529 -2.3069 -2.3787  1.3794
17547TIP3   OH274131   5.049   6.018   0.568  1.0255  0.2263 -0.2792
17547TIP3    H174132   5.039   5.972   0.485 -1.1084  0.3980 -0.1603
17547TIP3    H274133   4.962   6.015   0.608  2.4484 -1.7591  3.0100
17548TIP3   OH274134   0.442   6.584  15.972  0.2982  0.0087  0.2383
17548TIP3    H174135   0.522   6.570  16.023  0.2951  1.7488  0.7778
17548TIP3    H274136   0.468   6.642  15.901 -0.1990 -0.5367 -0.4019
17549TIP3   OH274137   0.462   2.360   0.515 -0.0440  0.4475 -0.6867
17549TIP3    H174138   0.527   2.357   0.585 -0.7885 -0.5117 -0.0062
17549TIP3    H274139   0.513   2.373   0.435  1.0384 -0.6908 -0.2148
17550TIP3   OH274140   2.545   2.944  11.412  0.3336 -0.7241 -0.2989
17550TIP3    H174141   2.548   3.022  11.467  2.0680  0.2959 -1.7110
17550TIP3    H274142   2.613   2.887  11.448  0.8537 -0.4398 -0.8101
17551TIP3   OH274143   1.499   0.709   0.012 -0.0821  0.4875 -0.3784
17551TIP3    H174144   1.433   0.777   0.002  0.9477  1.6950  0.6525
17551TIP3    H274145   1.541   0.703  -0.074 -1.1154  0.1268 -0.8687
17552TIP3   OH274146   5.891   2.623  14.883 -0.1093 -0.1997  0.1490
17552TIP3    H174147   5.889   2.614  14.978 -0.2569 -2.5728 -0.0298
17552TIP3    H274148   5.821   2.686  14.863 -0.8402 -0.5518  1.5134
17553TIP3   OH274149   0.713   1.946  16.579  0.0490  0.6095 -0.0911
17553TIP3    H174150   0.794   1.900  16.601 -1.1008 -1.7698 -0.4859
17553TIP3    H274151   0.727   1.979  16.490  0.8136  0.8005  0.0976
17554TIP3   OH274152   5.525   2.603   3.613  0.1568 -0.1468 -0.3396
17554TIP3    H174153   5.527   2.619   3.518 -0.3889  0.5350 -0.2498
17554TIP3    H274154   5.606   2.642   3.646 -0.4272  1.1020 -0.3276
17555TIP3   OH274155   2.733   2.341  13.403 -0.3391  0.3236  0.8037
17555TIP3    H174156   2.694   2.412  13.454 -0.2889  0.4593  0.6532
17555TIP3    H274157   2.811   2.317  13.452  0.3465  1.2392  0.1835
17556TIP3   OH274158   2.012   4.506   0.340  0.1636  0.3775  0.1368
17556TIP3    H174159   2.010   4.578   0.403  3.0222 -0.9578  1.9944
17556TIP3    H274160   2.080   4.531   0.277 -1.0473  0.6434 -1.1234
17557TIP3   OH274161   5.011   2.852   1.047  0.6406  0.7188 -0.0441
17557TIP3    H174162   5.065   2.930   1.059 -0.5844  1.5280  0.3505
17557TIP3    H274163   5.008   2.840   0.952  0.1807  1.6454 -0.1618
17558TIP3   OH274164   4.264   1.412   5.480  0.4540  0.3357 -0.0564
17558TIP3    H174165   4.325   1.473   5.438  1.2412 -1.2472 -1.3303
17558TIP3    H274166   4.179   1.432   5.441 -0.2075  3.2730  2.4933
17559TIP3   OH274167   0.630   4.429   3.479  0.2643 -0.0696 -0.2201
17559TIP3    H174168   0.608   4.463   3.566 -0.1864  0.3564 -0.4957
17559TIP3    H274169   0.585   4.345   3.475 -0.2380  0.1984 -0.2786
17560TIP3   OH274170   3.900   2.109   4.887 -0.2459  0.3011  0.1878
17560TIP3    H174171   3.968   2.095   4.952 -1.5452 -1.8898  1.2016
17560TIP3    H274172   3.823   2.136   4.938 -0.0211  3.5422 -1.0035
17561TIP3   OH274173   4.432   3.376  14.918 -0.5947 -0.1713 -0.4383
17561TIP3    H174174   4.423   3.384  14.823 -1.9081  0.1996 -0.3038
17561TIP3    H274175   4.361   3.317  14.944  0.5066 -1.2754  0.1966
17562TIP3   OH274176   1.933   2.177  12.738  0.7350 -0.0036 -0.0841
17562TIP3    H174177   1.845   2.207  12.762  1.3726  0.2088  2.2171
17562TIP3    H274178   1.965   2.132  12.816  3.3502  1.5105 -0.1631
17563TIP3   OH274179   1.792   3.170   4.929 -0.3527  0.2655  0.2067
17563TIP3    H174180   1.804   3.116   5.007  0.1209  0.6148  0.3840
17563TIP3    H274181   1.698   3.168   4.912 -0.1030 -3.2422 -1.6739
17564TIP3   OH274182   4.846   1.242   3.233  0.1372 -0.0793  0.0597
17564TIP3    H174183   4.750   1.245   3.240  0.1093  1.2009 -0.5781
17564TIP3    H274184   4.865   1.290   3.152  1.4022  1.2975  1.1138
17565TIP3   OH274185   5.962   4.021  14.493  0.4262 -0.1824  0.1145
17565TIP3    H174186   5.994   4.103  14.531  2.4836 -0.3091 -1.1849
17565TIP3    H274187   6.023   3.955  14.523 -0.8158 -1.1642  0.5739
17566TIP3   OH274188   5.682   3.037   3.113 -0.0702 -1.2966 -0.3524
17566TIP3    H174189   5.714   2.998   3.032  0.2921 -1.8801  0.0626
17566TIP3    H274190   5.700   2.971   3.180  0.0433 -0.6420  0.2719
17567TIP3   OH274191   4.149   3.065  14.041 -0.2253 -0.5455 -0.1584
17567TIP3    H174192   4.145   2.969  14.042 -0.1349 -0.5540  1.1456
17567TIP3    H274193   4.067   3.091  13.998 -1.6665 -1.1923  2.0072
17568TIP3   OH274194   0.361   0.298   4.745 -0.5971  0.3977 -0.0775
17568TIP3    H174195   0.285   0.260   4.701  0.0870  1.1277 -1.9544
17568TIP3    H274196   0.421   0.224   4.759  0.2343  0.4972 -2.6662
17569TIP3   OH274197   1.095   0.838   2.325 -0.4159  0.6597  0.5961
17569TIP3    H174198   1.057   0.900   2.263  1.6643  2.3156  0.8682
17569TIP3    H274199   1.063   0.866   2.410 -0.2851  0.7329  0.6216
17570TIP3   OH274200   4.399   5.067   6.594  0.8156 -0.8530 -0.2549
17570TIP3    H174201   4.492   5.088   6.592  0.9394 -1.3810 -0.1074
17570TIP3    H274202   4.361   5.122   6.526  0.8304  1.2477  1.3160
17571TIP3   OH274203   3.819   2.968  12.057 -0.2870 -0.0080 -0.1305
17571TIP3    H174204   3.859   3.014  11.983  1.1644 -1.9209 -0.6103
17571TIP3    H274205   3.881   2.983  12.130 -1.2813  1.1635  0.5061
17572TIP3   OH274206   3.696   6.545   2.482 -0.4946 -0.4530 -0.1909
17572TIP3    H174207   3.610   6.564   2.444 -0.1639 -0.0236 -0.7311
17572TIP3    H274208   3.713   6.618   2.541  0.0416  0.1030 -1.0182
17573TIP3   OH274209   4.784   0.604   0.394  0.0190  1.0165  0.0461
17573TIP3    H174210   4.815   0.523   0.353 -0.9928  0.4664  0.3167
17573TIP3    H274211   4.851   0.627   0.458 -1.1814 -1.5311  2.4358
17574TIP3   OH274212   1.561   1.950  13.716 -0.0242 -0.4956  0.2953
17574TIP3    H174213   1.616   1.879  13.683  1.4763  0.3472  0.9230
17574TIP3    H274214   1.620   2.007  13.764 -1.2606  1.0006  0.1336
17575TIP3   OH274215   1.477   0.623  15.318  0.3342 -0.5339  0.1670
17575TIP3    H174216   1.504   0.641  15.407  2.6938  1.1826 -0.7923
17575TIP3    H274217   1.501   0.531  15.304  0.1689 -0.7425  1.1793
17576TIP3   OH274218   1.863   1.677  15.459 -0.2263 -0.2528 -0.4208
17576TIP3    H174219   1.784   1.692  15.408 -0.6936 -0.9040  0.0931
17576TIP3    H274220   1.933   1.671  15.394 -0.9426 -2.0326 -1.0985
17577TIP3   OH274221   6.245   3.464   1.147  0.7060  0.1707 -0.3788
17577TIP3    H174222   6.323   3.499   1.103  0.7070 -1.6184 -1.9349
17577TIP3    H274223   6.208   3.539   1.193  3.5659  0.9879  0.7905
17578TIP3   OH274224   1.758   5.481   5.862 -0.3884  0.0236 -0.4995
17578TIP3    H174225   1.705   5.541   5.811 -1.8212  1.3517  2.3428
17578TIP3    H274226   1.738   5.502   5.953  1.3298 -2.7875  0.6662
17579TIP3   OH274227   5.173   5.916   3.162  0.2484  0.3093  0.0498
17579TIP3    H174228   5.153   5.890   3.072  0.8685 -0.0766  0.0196
17579TIP3    H274229   5.091   5.954   3.195  0.3685  1.6503 -1.0982
17580TIP3   OH274230   3.010   1.758  16.639 -0.3896 -0.1326  0.1717
17580TIP3    H174231   3.020   1.821  16.567  0.2742 -1.3176 -0.8163
17580TIP3    H274232   3.096   1.755  16.680 -0.4881 -0.2198  0.3722
17581TIP3   OH274233   4.191   6.008   2.493  0.1613  0.6762 -0.0187
17581TIP3    H174234   4.104   6.040   2.519 -0.0158  1.1827 -1.1758
17581TIP3    H274235   4.173   5.929   2.442  0.4808 -0.0373  0.9322
17582TIP3   OH274236   3.472   3.165   0.905 -0.0331  0.2949  0.4131
17582TIP3    H174237   3.389   3.132   0.939 -0.1535  0.9122  0.7243
17582TIP3    H274238   3.447   3.228   0.837  0.1909 -0.0393  0.0169
17583TIP3   OH274239   1.536   3.239  10.439  0.1208 -0.3336 -0.1374
17583TIP3    H174240   1.543   3.144  10.448  1.5114 -0.2944 -0.5592
17583TIP3    H274241   1.489   3.267  10.518  0.9653 -1.2325  0.7105
17584TIP3   OH274242   2.592   2.865   6.009 -0.1061 -0.2203 -0.3899
17584TIP3    H174243   2.496   2.856   6.012 -0.1244 -0.3608 -1.0944
17584TIP3    H274244   2.622   2.782   5.973  0.1205  0.5555 -2.0801
17585TIP3   OH274245   4.766   5.447  11.039  0.0603 -0.2794  0.1101
17585TIP3    H174246   4.784   5.356  11.063 -1.7360 -0.5388  0.5851
17585TIP3    H274247   4.674   5.447  11.012  0.0220  1.4090  0.1455
17586TIP3   OH274248   0.904   0.273   2.728  0.1836  0.0885 -0.1272
17586TIP3    H174249   0.821   0.263   2.683  0.7535 -0.1168 -1.1594
17586TIP3    H274250   0.902   0.206   2.797 -0.3579 -0.1314 -0.3521
17587TIP3   OH274251   2.069   5.738  14.457 -0.4470  1.4108 -0.3665
17587TIP3    H174252   2.018   5.808  14.497 -0.3154 -0.0786  2.6947
17587TIP3    H274253   2.091   5.680  14.530  1.4806 -0.5658 -2.3739
17588TIP3   OH274254   3.900   4.335  16.551  0.4809 -0.4729  0.2600
17588TIP3    H174255   3.957   4.381  16.612 -0.8521 -1.4928  2.4175
17588TIP3    H274256   3.825   4.392  16.540  0.2988 -0.6958  0.3325
17589TIP3   OH274257   0.158   0.881  14.739  0.5821  0.0405  0.3580
17589TIP3    H174258   0.155   0.972  14.709  2.1992 -0.1291 -0.4540
17589TIP3    H274259   0.210   0.884  14.819  2.9326 -0.4166 -1.0429
17590TIP3   OH274260   6.598   1.914   2.439  0.3327 -0.5120 -0.2787
17590TIP3    H174261   6.531   1.858   2.399 -2.3073  2.0171  0.3139
17590TIP3    H274262   6.676   1.898   2.386 -0.3498 -4.2946 -0.4410
17591TIP3   OH274263   3.804   5.149   1.294 -0.0731 -0.0628  0.7882
17591TIP3    H174264   3.786   5.243   1.292 -2.1007 -0.4214 -0.0365
17591TIP3    H274265   3.894   5.141   1.263  0.2526  1.6218  1.2029
17592TIP3   OH274266   0.474   0.116  10.705 -0.3889  0.2330 -0.1365
17592TIP3    H174267   0.384   0.093  10.726 -0.6960  2.4791  1.4077
17592TIP3    H274268   0.466   0.183  10.636  0.1018  0.3165 -0.1193
17593TIP3   OH274269   0.128   5.264  13.935  0.7149  0.5173 -0.0424
17593TIP3    H174270   0.074   5.229  14.006  1.6645  0.0459  0.4504
17593TIP3    H274271   0.070   5.328  13.892 -0.1331  0.2578  0.6679
17594TIP3   OH274272   1.141   5.066  10.919 -0.0589  0.0515  0.0436
17594TIP3    H174273   1.198   5.045  10.846  1.3586 -0.0917  1.1399
17594TIP3    H274274   1.067   5.112  10.880 -0.3750 -1.8153 -1.7056
17595TIP3   OH274275   6.010   0.501  12.140 -0.0088  0.0293  0.2176
17595TIP3    H174276   5.980   0.589  12.115  0.6497  0.3923  0.6842
17595TIP3    H274277   5.983   0.492  12.232  1.8545  0.6277  0.8661
17596TIP3   OH274278   6.476   3.934  14.109 -0.3934 -0.1637 -0.4127
17596TIP3    H174279   6.459   3.991  14.034 -0.1677 -0.6869 -0.8709
17596TIP3    H274280   6.502   3.993  14.179 -0.8954  0.3589 -0.6608
17597TIP3   OH274281   5.509   2.968   1.168 -0.2089 -0.4412  0.4645
17597TIP3    H174282   5.586   2.989   1.221  0.0526  0.3323 -0.1991
17597TIP3    H274283   5.472   2.890   1.209  3.3007 -3.4738 -1.5687
17598TIP3   OH274284   4.013   6.485  12.424  1.1495  0.7290 -0.0002
17598TIP3    H174285   3.970   6.567  12.400  0.5913  0.9452  1.6000
17598TIP3    H274286   3.971   6.419  12.370 -1.4423  0.9057  1.6254
17599TIP3   OH274287   0.610   0.156  15.690 -0.1736  0.0891 -0.0422
17599TIP3    H174288   0.518   0.176  15.709  0.4227  3.1504  0.1220
17599TIP3    H274289   0.648   0.136  15.775 -0.3754  0.2594  0.0897
17600TIP3   OH274290   1.331   2.902   3.631  0.1033  0.1961  0.2804
17600TIP3    H174291   1.409   2.930   3.584 -0.2625 -0.6413 -0.8858
17600TIP3    H274292   1.279   2.982   3.643  0.1787  0.4221 -0.8126
17601TIP3   OH274293   4.423   6.809   2.551  0.6814  0.0658  0.4147
17601TIP3    H174294   4.514   6.810   2.520  1.0143 -1.8474  1.1560
17601TIP3    H274295   4.398   6.901   2.556  2.7828  0.6715  0.7638
17602TIP3   OH274296   6.258   0.258  16.379  0.1778 -0.0458 -0.4090
17602TIP3    H174297   6.296   0.293  16.459 -1.4806  0.9640 -0.0175
17602TIP3    H274298   6.247   0.164  16.397  2.5673 -0.4227 -0.6216
17603TIP3   OH274299   2.086   5.466   5.056 -0.4222  0.3664 -0.0128
17603TIP3    H174300   2.163   5.452   5.111 -1.0852 -1.4153  0.5176
17603TIP3    H274301   2.026   5.516   5.112  1.1130  3.8591 -1.1846
17604TIP3   OH274302   5.289   4.355  16.439  0.0431 -0.0982 -0.0963
17604TIP3    H174303   5.289   4.425  16.373  3.3131 -0.4674 -0.6691
17604TIP3    H274304   5.344   4.389  16.509 -2.1839 -0.3143  1.8786
17605TIP3   OH274305   6.113   0.676   2.393  0.0661 -0.3157 -0.0766
17605TIP3    H174306   6.203   0.643   2.399 -0.2140 -0.9301  1.0526
17605TIP3    H274307   6.113   0.757   2.445 -0.2282 -0.7803  0.6600
17606TIP3   OH274308   3.697   0.319  13.827 -0.0387  0.3780  0.0238
17606TIP3    H174309   3.611   0.347  13.795 -0.6187 -0.3199  0.8813
17606TIP3    H274310   3.746   0.296  13.749 -0.5243  1.0939 -0.4989
17607TIP3   OH274311   0.745   5.806  14.642  0.2762 -0.2083  0.1117
17607TIP3    H174312   0.692   5.734  14.676  0.1695  0.5811  1.6919
17607TIP3    H274313   0.835   5.779  14.656  0.2444  0.5769  2.1956
17608TIP3   OH274314   5.641   0.674   4.190 -0.5774 -0.1951  0.4914
17608TIP3    H174315   5.617   0.747   4.133 -1.5533 -0.4928  0.4985
17608TIP3    H274316   5.718   0.705   4.237  1.7946 -0.7782 -2.6495
17609TIP3   OH274317   4.016   2.579  13.782  0.0077  0.4761 -0.8679
17609TIP3    H174318   3.986   2.661  13.820  1.8423  1.4436 -1.4004
17609TIP3    H274319   3.958   2.512  13.819  0.1660  1.6510  1.6871
17610TIP3   OH274320   4.844   6.454   5.689  0.1763 -0.1034  0.5953
17610TIP3    H174321   4.793   6.496   5.620  0.4293 -1.6099 -0.5814
17610TIP3    H274322   4.798   6.372   5.707  0.3874  0.0401  1.8837
17611TIP3   OH274323   0.808   3.758   0.771  0.2713  0.5255 -0.0437
17611TIP3    H174324   0.883   3.722   0.819  0.3991  0.1336 -0.5312
17611TIP3    H274325   0.837   3.762   0.680 -0.2962  0.3699 -0.2368
17612TIP3   OH274326   5.357   0.727  14.095  0.1451  0.6107  0.3792
17612TIP3    H174327   5.316   0.649  14.132  1.6802 -0.3261  0.2095
17612TIP3    H274328   5.308   0.800  14.132 -1.9078 -0.4306 -0.1677
17613TIP3   OH274329   0.954   2.710  16.012  0.5899 -0.0983 -0.2905
17613TIP3    H174330   0.929   2.715  16.105  0.4933  0.4337 -0.3370
17613TIP3    H274331   1.049   2.721  16.012  0.3871  2.5108 -0.3905
17614TIP3   OH274332   3.460   3.337   0.689  0.6113 -0.0873  0.7032
17614TIP3    H174333   3.509   3.313   0.610 -0.3197 -0.6643  0.2940
17614TIP3    H274334   3.420   3.422   0.667 -0.6245 -0.8062  0.0935
17615TIP3   OH274335   0.317   1.675   0.610 -0.1974  0.7767 -0.5668
17615TIP3    H174336   0.244   1.629   0.567 -0.2642  0.5110 -0.1727
17615TIP3    H274337   0.278   1.715   0.687 -0.3630  2.3977 -1.4610
17616TIP3   OH274338   1.047   2.224  13.716  0.1133 -0.0127  0.3705
17616TIP3    H174339   1.016   2.149  13.768  1.2886 -0.1645  0.8749
17616TIP3    H274340   1.082   2.285  13.780  0.5682  0.2969 -0.1643
17617TIP3   OH274341   2.619   1.600   3.175  0.4625  0.0056 -0.3780
17617TIP3    H174342   2.678   1.661   3.129 -0.7146  1.1205 -0.4774
17617TIP3    H274343   2.531   1.628   3.148 -0.1378 -1.1220  0.3751
17618TIP3   OH274344   5.182   0.369   0.648  0.1305  0.4668 -0.4459
17618TIP3    H174345   5.237   0.340   0.720 -1.5727 -1.2103  0.2870
17618TIP3    H274346   5.145   0.288   0.612 -1.1665  1.4451 -1.4386
17619TIP3   OH274347   4.729   0.836   0.252 -0.3589 -0.2005  0.0328
17619TIP3    H174348   4.803   0.856   0.309  0.4546 -0.0821 -1.0389
17619TIP3    H274349   4.716   0.742   0.261  0.5126 -0.3729 -0.4605
17620TIP3   OH274350   1.163   4.977   5.633 -0.1327 -0.3139  0.4003
17620TIP3    H174351   1.069   4.985   5.652  0.0854 -0.6314  1.6706
17620TIP3    H274352   1.166   4.946   5.542 -1.2532 -0.1599  0.2944
17621TIP3   OH274353   1.005   6.353  15.319  0.1222  0.1449 -0.3229
17621TIP3    H174354   1.085   6.393  15.285  1.7659 -0.6139  2.3675
17621TIP3    H274355   0.976   6.295  15.249  2.5623 -0.3936 -0.9835
17622TIP3   OH274356   2.662   0.781  16.161  0.3281 -0.1662  0.3220
17622TIP3    H174357   2.670   0.779  16.066  1.0730  0.4749  0.3559
17622TIP3    H274358   2.752   0.791  16.192  0.1548 -0.9963  1.1161
17623TIP3   OH274359   3.643   4.246  11.146  0.1549  0.4134  0.4356
17623TIP3    H174360   3.619   4.191  11.221  0.1909 -0.5340 -0.2360
17623TIP3    H274361   3.697   4.315  11.184 -1.3289  1.0239  1.5672
17624TIP3   OH274362   2.592   0.275   3.267  0.1022 -0.0454 -0.3860
17624TIP3    H174363   2.506   0.261   3.227 -1.7345  0.7693  2.8946
17624TIP3    H274364   2.609   0.194   3.316  0.2822  0.4974  0.4720
17625TIP3   OH274365   2.083   4.113  11.580  0.1854  0.1149 -0.3085
17625TIP3    H174366   2.093   4.019  11.569  1.2511  0.1268  0.4445
17625TIP3    H274367   2.158   4.139  11.633  0.4312  1.5285 -1.2892
17626TIP3   OH274368   5.695   6.798  12.557 -0.5747  0.0506  0.8588
17626TIP3    H174369   5.685   6.740  12.633  0.5904  0.4623  1.3411
17626TIP3    H274370   5.654   6.880  12.584 -2.2431 -0.5052  0.1686
17627TIP3   OH274371   2.790   5.752  14.985  0.0788  0.0908 -0.3311
17627TIP3    H174372   2.734   5.806  15.041  2.0988  0.4506  1.4899
17627TIP3    H274373   2.758   5.663  14.997 -0.8662  0.4310 -0.2973
17628TIP3   OH274374   6.798   3.277   5.083 -0.0901  0.1702  0.0022
17628TIP3    H174375   6.809   3.359   5.036  0.8153 -0.4441 -0.9197
17628TIP3    H274376   6.704   3.263   5.087 -0.2463  1.2324  0.1402
17629TIP3   OH274377   0.533   5.103   2.785  0.6258 -0.4027  0.1585
17629TIP3    H174378   0.484   5.049   2.847 -0.9940  0.3155 -0.4346
17629TIP3    H274379   0.622   5.107   2.821 -0.3265  0.2867  2.6274
17630TIP3   OH274380   6.487   4.153   5.373 -0.1050  0.3897  0.4248
17630TIP3    H174381   6.491   4.058   5.384 -1.0846  0.4738  1.8285
17630TIP3    H274382   6.413   4.181   5.427 -1.1394  1.7464 -1.5540
17631TIP3   OH274383   6.658   2.328  16.036  0.1102  0.1289 -0.0206
17631TIP3    H174384   6.650   2.374  16.120  0.2743  0.3076 -0.1009
17631TIP3    H274385   6.714   2.385  15.983 -0.1931  0.1393 -0.3368
17632TIP3   OH274386   2.048   4.389   3.367 -0.5460  0.2009 -0.0400
17632TIP3    H174387   2.058   4.482   3.390  0.3991  0.0918 -0.0076
17632TIP3    H274388   1.964   4.365   3.406 -0.7640  1.0201  0.0276
17633TIP3   OH274389   3.287   4.320  11.481 -0.0779 -0.0895  0.7491
17633TIP3    H174390   3.202   4.288  11.449 -0.8787  2.8395 -0.4452
17633TIP3    H274391   3.264   4.387  11.546  1.3776 -0.4019  1.6215
17634TIP3   OH274392   1.411   4.685  10.374  0.1590  0.4522 -0.0681
17634TIP3    H174393   1.484   4.736  10.339 -0.7737  0.7575 -1.6736
17634TIP3    H274394   1.442   4.595  10.372 -0.2058  0.3087 -2.8224
17635TIP3   OH274395   1.380   5.106  14.949  0.0825 -0.4452 -0.1271
17635TIP3    H174396   1.365   5.126  14.857 -1.1917  2.0864  0.5440
17635TIP3    H274397   1.451   5.041  14.948  0.4798 -0.0937 -2.8318
17636TIP3   OH274398   1.165   0.126  14.496 -0.0451  0.1639 -0.1373
17636TIP3    H174399   1.101   0.177  14.546 -0.0308  1.4999 -1.4317
17636TIP3    H274400   1.120   0.044  14.477 -0.5499  0.1904  0.8547
17637TIP3   OH274401   1.381   4.809  15.115  0.2507  0.9343 -0.1190
17637TIP3    H174402   1.332   4.727  15.116  1.3764  0.2282  0.2445
17637TIP3    H274403   1.330   4.867  15.060 -1.6371  0.6694  1.2521
17638TIP3   OH274404   2.571   3.355  13.118  0.4082  0.1056  0.4108
17638TIP3    H174405   2.519   3.286  13.076  1.4404  0.8492 -2.3183
17638TIP3    H274406   2.661   3.322  13.117  0.4653  0.0873  2.3259
17639TIP3   OH274407   1.253   6.064  11.537  0.2430 -0.2536 -0.3161
17639TIP3    H174408   1.209   5.990  11.578  0.4383  0.2639  0.8893
17639TIP3    H274409   1.195   6.138  11.553 -0.4326 -0.2728 -2.3628
17640TIP3   OH274410   4.754   4.815   6.772 -1.2827 -0.9907 -0.4319
17640TIP3    H174411   4.746   4.892   6.828 -2.6876 -1.4986  0.1166
17640TIP3    H274412   4.846   4.815   6.743 -0.5803 -0.5389  1.6246
17641TIP3   OH274413   4.037   3.229   4.859  0.3386  0.1731 -0.6350
17641TIP3    H174414   4.029   3.299   4.923 -0.4528 -1.3719  1.0331
17641TIP3    H274415   4.129   3.203   4.862  0.1771 -0.3218  0.3884
17642TIP3   OH274416   3.656   0.014  13.765 -0.4779  0.4394 -0.0283
17642TIP3    H174417   3.685   0.045  13.679 -0.3181 -0.7736 -0.4222
17642TIP3    H274418   3.702   0.070  13.828 -1.0397  1.7246 -0.7227
17643TIP3   OH274419   0.816   6.434   4.971 -0.1318 -0.0531 -0.1885
17643TIP3    H174420   0.881   6.463   5.035 -0.5560 -0.2020  0.3113
17643TIP3    H274421   0.811   6.339   4.984 -0.2368 -0.0802 -0.4298
17644TIP3   OH274422   4.085   1.147  14.935 -0.1302  0.2922 -0.5482
17644TIP3    H174423   4.069   1.203  15.011 -0.8582  2.1268 -1.9725
17644TIP3    H274424   4.049   1.062  14.960 -2.6735  1.4904  0.2915
17645TIP3   OH274425   4.806   5.695   5.988  0.1350 -0.3219 -0.1289
17645TIP3    H174426   4.753   5.626   5.947 -1.1957  0.1225  0.7648
17645TIP3    H274427   4.846   5.652   6.064 -0.9524 -0.0680  0.6150
17646TIP3   OH274428   4.317   6.647  16.944  0.1778  0.2904  0.3282
17646TIP3    H174429   4.244   6.591  16.919  1.5628 -1.3669 -0.1549
17646TIP3    H274430   4.325   6.636  17.039  0.7309 -0.7400  0.1766
17647TIP3   OH274431   3.396   1.609   6.372  0.0007  0.1166 -0.0045
17647TIP3    H174432   3.307   1.575   6.384  0.8537 -1.8606  1.3078
17647TIP3    H274433   3.453   1.535   6.392  1.9761  0.7134 -2.7662
17648TIP3   OH274434   3.555   2.954   0.737 -0.2342 -0.2921 -0.1984
17648TIP3    H174435   3.570   2.889   0.806 -1.7053 -0.5326 -0.0719
17648TIP3    H274436   3.538   3.035   0.785  0.4367 -0.0806 -0.3230
17649TIP3   OH274437   5.208   3.356  16.474 -0.4324  0.5128  0.6906
17649TIP3    H174438   5.198   3.350  16.379 -1.4655  3.1788  0.5294
17649TIP3    H274439   5.293   3.400  16.486 -0.0531 -0.2986  1.0480
17650TIP3   OH274440   1.057   0.139   1.207 -0.2605 -0.2614 -0.2278
17650TIP3    H174441   1.147   0.147   1.174  0.3262 -0.0279  1.3546
17650TIP3    H274442   1.044   0.045   1.218  0.4971 -0.2181  1.3146
17651TIP3   OH274443   6.639   1.781  12.993  0.1968 -0.0942 -0.1400
17651TIP3    H174444   6.646   1.700  12.943 -0.6656  0.6881 -1.5648
17651TIP3    H274445   6.591   1.841  12.936  0.4110  1.2786  1.0725
17652TIP3   OH274446   5.667   0.328   1.633 -0.1294  0.1656 -0.2505
17652TIP3    H174447   5.689   0.412   1.673 -1.9858  0.1969  0.7979
17652TIP3    H274448   5.718   0.263   1.682 -0.8520  0.4102  0.8325
17653TIP3   OH274449   0.301   0.950   0.606 -0.0940 -0.0001 -0.4823
17653TIP3    H174450   0.354   0.996   0.672  0.4306  0.9063 -1.4955
17653TIP3    H274451   0.210   0.963   0.636 -0.0111  2.1388 -0.9423
17654TIP3   OH274452   5.636   5.843  15.804 -0.7230  0.5145  0.0159
17654TIP3    H174453   5.556   5.813  15.848 -1.5585  0.7374 -1.2944
17654TIP3    H274454   5.662   5.768  15.750 -0.2359  0.5696  0.1727
17655TIP3   OH274455   5.716   4.357  11.696 -0.3871 -0.4057  0.1504
17655TIP3    H174456   5.624   4.371  11.715  0.2054  2.9325  1.2783
17655TIP3    H274457   5.761   4.381  11.777  1.5539  0.3781 -1.0827
17656TIP3   OH274458   6.291   1.073   1.726 -0.2678  0.4033  0.7122
17656TIP3    H174459   6.279   1.156   1.772  1.3552  1.3280 -0.4198
17656TIP3    H274460   6.356   1.026   1.779 -0.0719  0.5136  0.5743
17657TIP3   OH274461   0.421   3.891   1.502 -0.0276 -0.1924  0.0171
17657TIP3    H174462   0.415   3.980   1.539  0.3789 -0.0304 -0.3008
17657TIP3    H274463   0.498   3.853   1.544 -0.1040 -0.3334  0.0272
17658TIP3   OH274464   4.966   1.433   5.387 -0.0270 -0.1163  0.0744
17658TIP3    H174465   4.995   1.509   5.438 -0.2185  0.3898 -0.5525
17658TIP3    H274466   4.887   1.463   5.342 -0.1846 -0.7348 -0.0661
17659TIP3   OH274467   2.149   5.835  16.721  0.1898 -0.2080  0.5771
17659TIP3    H174468   2.108   5.769  16.776  0.2018  1.3826  2.5778
17659TIP3    H274469   2.144   5.798  16.632 -1.7020 -1.9197  1.3251
17660TIP3   OH274470   1.773   4.541  15.780 -0.0739 -0.6291 -0.2640
17660TIP3    H174471   1.851   4.595  15.769  0.3751 -1.1755  0.1736
17660TIP3    H274472   1.747   4.518  15.691 -1.1794  1.5363 -0.5686
17661TIP3   OH274473   4.529   0.339   2.231  0.3459  0.0229 -0.0074
17661TIP3    H174474   4.477   0.259   2.232 -0.7863  0.7368  1.5768
17661TIP3    H274475   4.466   0.409   2.247  1.1024  1.4193 -2.4909
17662TIP3   OH274476   1.724   0.596  13.251 -0.0566 -0.0789  0.6293
17662TIP3    H174477   1.788   0.589  13.180 -0.2271  0.5103  0.4166
17662TIP3    H274478   1.770   0.560  13.327 -0.0057 -1.0632  0.1465
17663TIP3   OH274479   5.235   0.464   4.697  0.7532  0.0855  0.1623
17663TIP3    H174480   5.269   0.497   4.780 -0.8473 -0.1799  0.9716
17663TIP3    H274481   5.190   0.539   4.658  0.0817 -0.2030  0.3561
17664TIP3   OH274482   1.079   1.045  16.776 -0.4945 -0.7736 -0.5635
17664TIP3    H174483   1.045   1.027  16.688 -0.6318 -0.9555 -0.4734
17664TIP3    H274484   1.001   1.056  16.830 -0.4093 -0.5962 -0.4773
17665TIP3   OH274485   4.769   3.988  13.312  0.0013  0.1344  0.0447
17665TIP3    H174486   4.720   4.070  13.311 -0.5968 -0.2034  1.0838
17665TIP3    H274487   4.837   4.001  13.377  0.2873  0.0129 -0.2236
17666TIP3   OH274488   4.475   3.831   3.287 -0.5426 -0.7477  0.0649
17666TIP3    H174489   4.464   3.824   3.382 -1.5439 -0.7324 -0.0359
17666TIP3    H274490   4.441   3.748   3.252  1.7984 -1.6774 -0.1707
17667TIP3   OH274491   4.339   5.469   3.736  0.1699 -0.0181 -0.7148
17667TIP3    H174492   4.306   5.514   3.657 -2.1638  1.4272  0.9512
17667TIP3    H274493   4.420   5.514   3.757 -0.1475  0.8278 -1.2476
17668TIP3   OH274494   6.067   5.941   4.609  0.4326  0.0626 -0.2415
17668TIP3    H174495   5.974   5.941   4.585  0.5527 -2.5253 -1.0765
17668TIP3    H274496   6.088   5.849   4.622  3.2026  0.4169 -1.3874
17669TIP3   OH274497   6.604   5.845  10.903 -0.5255  0.5692 -0.2769
17669TIP3    H174498   6.617   5.823  10.811  0.7527  2.6100 -0.6375
17669TIP3    H274499   6.692   5.861  10.937 -0.5712 -3.3173  2.2602
17670TIP3   OH274500   5.220   5.346  12.087  0.3190  0.2238 -0.0849
17670TIP3    H174501   5.263   5.423  12.124  0.2332  0.1714  0.1277
17670TIP3    H274502   5.138   5.380  12.050  0.4712  0.2993 -0.3569
17671TIP3   OH274503   4.926   0.204   3.309  0.2333  0.0518 -0.3988
17671TIP3    H174504   4.974   0.286   3.303  0.9708 -0.4445 -2.0700
17671TIP3    H274505   4.990   0.137   3.285 -1.0603 -0.6964 -2.0131
17672TIP3   OH274506   4.880   3.086  14.608  0.4153 -0.0311  0.3468
17672TIP3    H174507   4.818   3.138  14.659  1.6672 -0.1480  2.0990
17672TIP3    H274508   4.954   3.145  14.593 -0.0630  0.1224 -1.7534
17673TIP3   OH274509   3.013   3.460  16.451 -0.0915 -0.1746 -0.0558
17673TIP3    H174510   2.990   3.552  16.465 -0.7622 -0.4407  0.6249
17673TIP3    H274511   3.108   3.457  16.467  0.3448  0.7621 -2.0672
17674TIP3   OH274512   2.833   0.037  10.933 -0.4772 -0.4556 -0.3945
17674TIP3    H174513   2.812   0.034  10.839  3.1079 -0.1392 -1.3438
17674TIP3    H274514   2.882   0.118  10.944 -0.3377 -0.7713  1.6509
17675TIP3   OH274515   5.634   6.227   1.322  0.3678 -0.5206  0.0711
17675TIP3    H174516   5.693   6.298   1.298  2.2808 -2.0864 -0.1499
17675TIP3    H274517   5.578   6.215   1.245 -1.5662  2.1404  0.9256
17676TIP3   OH274518   5.441   6.110  13.823 -0.0405  0.0798 -0.2140
17676TIP3    H174519   5.376   6.114  13.752 -2.7279 -1.3735  2.0021
17676TIP3    H274520   5.489   6.029  13.807 -2.5854 -1.8229  1.0218
17677TIP3   OH274521   4.486   2.487   0.828  0.2822  0.1667  0.0993
17677TIP3    H174522   4.425   2.421   0.795  1.2951 -0.8695  0.2387
17677TIP3    H274523   4.450   2.513   0.912  1.0016 -1.8885  1.1213
17678TIP3   OH274524   1.347   3.071   2.391 -0.5127  0.4021 -0.1431
17678TIP3    H174525   1.254   3.058   2.408 -0.4069 -1.1371 -0.6035
17678TIP3    H274526   1.353   3.081   2.296 -0.2066  0.4508 -0.1208
17679TIP3   OH274527   1.531   3.986  13.026 -0.5283 -0.1954 -0.3708
17679TIP3    H174528   1.572   3.982  13.112 -1.7920 -1.5003  0.2028
17679TIP3    H274529   1.531   3.895  12.995 -2.3357 -0.1547 -0.6177
17680TIP3   OH274530   5.496   3.778   2.135  0.0427  0.2392 -0.6301
17680TIP3    H174531   5.490   3.807   2.226 -1.7946 -1.7695  0.0020
17680TIP3    H274532   5.437   3.836   2.087 -0.4913  0.1191 -0.1389
17681TIP3   OH274533   2.542   2.053   5.911 -0.1766 -0.0546 -0.2814
17681TIP3    H174534   2.455   2.092   5.913  0.4294  1.3751  0.8954
17681TIP3    H274535   2.535   1.975   5.966 -0.1864  1.4211  1.9657
17682TIP3   OH274536   6.410   0.319  16.586  0.4182  0.4174  0.0888
17682TIP3    H174537   6.365   0.285  16.663 -0.1647  0.4496 -0.2355
17682TIP3    H274538   6.474   0.381  16.622  1.0760 -0.5476  0.6367
17683TIP3   OH274539   6.585   2.071   3.847 -0.3604 -0.0559  0.2355
17683TIP3    H174540   6.646   2.134   3.885  1.0223 -1.1046 -0.1728
17683TIP3    H274541   6.530   2.124   3.788  0.6636  0.7877  0.0112
17684TIP3   OH274542   1.563   0.388  12.657  0.4530  0.9588  0.8468
17684TIP3    H174543   1.629   0.440  12.703  1.0907  0.7006  0.2283
17684TIP3    H274544   1.583   0.400  12.564  0.5515 -0.3136  0.6910
17685TIP3   OH274545   0.339   4.321   1.028  0.4947 -0.5095 -0.1795
17685TIP3    H174546   0.267   4.259   1.041  0.9003 -1.2680 -1.3450
17685TIP3    H274547   0.307   4.404   1.062 -0.1181 -1.3257  1.3025
17686TIP3   OH274548   3.246   4.925  12.551 -0.1718  0.9090 -0.3054
17686TIP3    H174549   3.192   4.898  12.625  1.5170 -1.9372  0.0379
17686TIP3    H274550   3.225   4.862  12.482 -1.2683  3.1430 -2.1248
17687TIP3   OH274551   5.200   4.691   6.004 -0.2555  0.0129  0.7144
17687TIP3    H174552   5.109   4.720   6.002 -0.5013 -0.7815 -0.0981
17687TIP3    H274553   5.251   4.769   5.981 -0.7552  0.3507  0.7446
17688TIP3   OH274554   0.035   6.229   0.054  0.0525 -0.3681  0.2114
17688TIP3    H174555   0.105   6.276   0.100  0.0121 -0.6422  0.5525
17688TIP3    H274556   0.077   6.151   0.019  0.6218  0.8885 -2.1383
17689TIP3   OH274557   0.614   4.701  13.970 -0.3191  0.3323  0.4543
17689TIP3    H174558   0.582   4.699  14.060  1.4988  1.7339  1.2200
17689TIP3    H274559   0.579   4.783  13.934  0.6768  0.8707  0.6498
17690TIP3   OH274560   0.021   2.190   2.374  0.0024  0.2110  0.1450
17690TIP3    H174561  -0.063   2.230   2.397 -0.1234  0.5072 -0.7864
17690TIP3    H274562   0.075   2.203   2.452 -0.5299  0.8239  0.4274
17691TIP3   OH274563   2.007   1.334   4.359  0.1059 -0.0997  0.2188
17691TIP3    H174564   1.912   1.342   4.355  0.1365 -0.2490 -1.4361
17691TIP3    H274565   2.030   1.275   4.287  1.5308  0.8355 -0.1566
17692TIP3   OH274566   2.532   5.032   6.270 -0.2859  0.0896  0.0203
17692TIP3    H174567   2.582   4.950   6.271 -0.1257  0.1260 -1.6744
17692TIP3    H274568   2.574   5.086   6.337  1.3589 -0.2254 -0.6943
17693TIP3   OH274569   0.083   1.635   1.157  0.2598 -0.1464 -0.2808
17693TIP3    H174570   0.169   1.661   1.190 -0.2424  0.0944  0.8926
17693TIP3    H274571   0.036   1.717   1.145  0.7585 -0.1323 -2.6789
17694TIP3   OH274572   6.797   6.329  11.587 -0.0530 -0.1351  0.1643
17694TIP3    H174573   6.773   6.337  11.494 -2.6228  2.1363  0.8796
17694TIP3    H274574   6.888   6.358  11.591 -0.3535  1.2162 -1.4874
17695TIP3   OH274575   5.775   1.208   2.250  0.6156 -0.5588 -0.0525
17695TIP3    H174576   5.809   1.251   2.172  1.0293 -1.2877 -0.2839
17695TIP3    H274577   5.849   1.157   2.283 -0.0067 -1.5223 -0.1071
17696TIP3   OH274578   5.783   1.208  16.575  0.0671 -0.5500 -0.2207
17696TIP3    H174579   5.829   1.144  16.630  1.0728  0.7768  0.5562
17696TIP3    H274580   5.695   1.210  16.611  0.1628 -1.1253  0.0742
17697TIP3   OH274581   1.827   3.232   3.636  0.6507 -0.0880  0.2233
17697TIP3    H174582   1.860   3.282   3.562 -1.2451  1.2648  0.2132
17697TIP3    H274583   1.762   3.172   3.599  0.5395 -0.2296  0.6325
17698TIP3   OH274584   2.185   3.944  12.629 -0.4446  0.0263  0.4734
17698TIP3    H174585   2.241   3.884  12.579 -3.0926 -3.6023  1.4326
17698TIP3    H274586   2.217   3.937  12.719 -0.4666  0.4461  0.5138
17699TIP3   OH274587   5.973   3.976   4.009  0.1830  0.5306  0.0849
17699TIP3    H174588   5.917   4.036   3.959 -0.8600  0.6100  1.2862
17699TIP3    H274589   5.916   3.943   4.079  1.6086  0.5340  1.2984
17700TIP3   OH274590   1.454   1.443  11.965 -0.2398  0.7197 -0.4512
17700TIP3    H174591   1.517   1.461  11.895  0.1577  0.4715 -0.1645
17700TIP3    H274592   1.484   1.496  12.039 -0.2722  0.4812 -0.2637
17701TIP3   OH274593   0.078   5.851  11.493  0.0753 -0.0362 -0.5646
17701TIP3    H174594   0.007   5.903  11.530  1.0424  1.7559 -1.1551
17701TIP3    H274595   0.065   5.764  11.531 -2.3900  0.2378 -0.6094
17702TIP3   OH274596   6.116   4.164   4.170 -0.7229  0.0798 -0.2045
17702TIP3    H174597   6.060   4.109   4.115 -1.7864  2.8700 -2.1520
17702TIP3    H274598   6.055   4.210   4.228 -0.0530  0.5365  0.1560
17703TIP3   OH274599   0.426   5.272  12.023  0.3749  0.3817  0.3649
17703TIP3    H174600   0.355   5.310  12.074  0.9451  0.6317  0.9823
17703TIP3    H274601   0.434   5.182  12.055 -1.1152 -0.3949 -1.2400
17704TIP3   OH274602   2.237   5.750   2.300  0.0665  0.2298 -0.4811
17704TIP3    H174603   2.234   5.693   2.377 -0.2915  0.8610 -0.0175
17704TIP3    H274604   2.181   5.706   2.235  1.1122 -0.7895 -0.7402
17705TIP3   OH274605   1.012   3.610  11.875  0.0199  0.4816 -0.1538
17705TIP3    H174606   0.991   3.596  11.968  0.6669 -0.0866 -0.0844
17705TIP3    H274607   1.052   3.696  11.872  1.3690 -0.1040  0.3416
17706TIP3   OH274608   3.558   0.018  11.551  0.2707  0.1205  0.0996
17706TIP3    H174609   3.612   0.086  11.591  1.4734 -0.0250 -1.1838
17706TIP3    H274610   3.576  -0.060  11.603  1.9934 -0.1247 -0.7905
17707TIP3   OH274611   5.854   4.433  15.399  0.0404  0.1723 -0.2988
17707TIP3    H174612   5.939   4.464  15.369  0.2536 -0.7780 -0.7130
17707TIP3    H274613   5.848   4.464  15.490  0.7003  0.4834 -0.3576
17708TIP3   OH274614   5.134   5.555   0.791  0.3828 -0.2261  0.1988
17708TIP3    H174615   5.114   5.514   0.875  1.5982  0.3008  0.7702
17708TIP3    H274616   5.209   5.612   0.810 -0.7725  1.7112 -0.7068
17709TIP3   OH274617   5.224   2.700   6.647  0.1495 -0.0567 -0.0721
17709TIP3    H174618   5.197   2.623   6.597 -0.6555 -0.7466  1.3633
17709TIP3    H274619   5.142   2.742   6.672  0.5076 -0.0751  1.1788
17710TIP3   OH274620   6.555   0.351  17.064  0.2128  0.2678  1.3557
17710TIP3    H174621   6.620   0.398  17.012 -0.0606 -0.4551  0.3245
17710TIP3    H274622   6.471   0.387  17.036 -0.0562 -1.2526  0.0241
17711TIP3   OH274623   2.148   0.304   4.913 -0.0213  0.1446 -0.6479
17711TIP3    H174624   2.235   0.343   4.917  0.2943 -0.6286  1.9418
17711TIP3    H274625   2.092   0.373   4.878  1.5492  0.7352 -2.1319
17712TIP3   OH274626   4.546   2.015   4.366 -0.1486 -0.1796 -0.2286
17712TIP3    H174627   4.463   2.058   4.389  0.9438  1.9014 -0.0004
17712TIP3    H274628   4.520   1.946   4.305 -2.0091  0.7572 -0.5978
17713TIP3   OH274629   5.350   4.652   3.754  0.0471 -0.1036  0.1828
17713TIP3    H174630   5.263   4.657   3.715 -0.6808 -0.0550  1.7732
17713TIP3    H274631   5.407   4.629   3.680 -1.5017 -1.5427 -0.6531
17714TIP3   OH274632   1.213   6.571   4.061 -0.1606 -0.0703  0.2071
17714TIP3    H174633   1.294   6.620   4.050 -0.7992  0.7979 -0.7694
17714TIP3    H274634   1.144   6.638   4.059 -0.9847 -0.9112 -0.2088
17715TIP3   OH274635   5.625   2.483   5.406 -0.3262 -0.2050  0.5632
17715TIP3    H174636   5.581   2.406   5.440  0.2608 -0.8529 -0.1083
17715TIP3    H274637   5.676   2.451   5.332 -1.7579  1.1928 -1.1161
17716TIP3   OH274638   5.855   0.233  11.906 -0.4632 -0.1235 -0.0763
17716TIP3    H174639   5.927   0.265  11.960  0.3849 -0.0388 -1.2198
17716TIP3    H274640   5.893   0.163  11.854 -0.9917  0.4184 -1.2462
17717TIP3   OH274641   6.448   3.814  12.527 -0.2179 -0.2191 -0.0742
17717TIP3    H174642   6.534   3.854  12.533  0.0111 -0.7748  0.4056
17717TIP3    H274643   6.451   3.762  12.446 -0.3676  0.3613 -0.4616
17718TIP3   OH274644   0.463   6.738  13.839 -0.2193 -0.5908 -0.5183
17718TIP3    H174645   0.495   6.788  13.763 -2.7065 -0.0037 -1.2830
17718TIP3    H274646   0.416   6.802  13.892 -0.3299 -1.4200  0.4106
17719TIP3   OH274647   5.753   3.920  15.253  0.8542  0.1370  0.2303
17719TIP3    H174648   5.785   3.835  15.221 -0.4454  0.2084 -1.3827
17719TIP3    H274649   5.775   3.981  15.183  0.9665  0.9740  0.9883
17720TIP3   OH274650   6.533   0.119   5.870  0.5500  0.1978 -0.6605
17720TIP3    H174651   6.439   0.106   5.858  0.1769  2.9093 -1.3224
17720TIP3    H274652   6.541   0.202   5.918  2.5864  0.6685 -1.6569
17721TIP3   OH274653   1.351   5.546  13.479 -0.1314  0.1374 -0.1172
17721TIP3    H174654   1.359   5.641  13.470  0.5081  0.2359  1.2306
17721TIP3    H274655   1.377   5.528  13.569 -2.1438 -1.1200  0.2829
17722TIP3   OH274656   5.854   5.749  15.550  0.1929  0.0820  0.7364
17722TIP3    H174657   5.868   5.729  15.458 -2.6108  0.9852  0.0137
17722TIP3    H274658   5.780   5.693  15.576  0.3123  0.5382  2.1504
17723TIP3   OH274659   1.545   3.181  11.970  0.3132  0.2891  0.0982
17723TIP3    H174660   1.464   3.136  11.997  1.2136 -0.5603  1.5650
17723TIP3    H274661   1.592   3.194  12.052  0.7821  2.6183 -0.4845
17724TIP3   OH274662   6.207   3.857  16.966  0.3815  0.8523 -0.0451
17724TIP3    H174663   6.179   3.859  16.875  1.0229 -2.0767 -0.3983
17724TIP3    H274664   6.296   3.821  16.964  0.9461  1.9807  1.6740
17725TIP3   OH274665   1.348   4.202  15.567  0.3626 -0.9446  0.4148
17725TIP3    H174666   1.443   4.188  15.569  0.2245 -1.8403  2.0007
17725TIP3    H274667   1.317   4.171  15.652 -1.2855 -0.0619  0.1767
17726TIP3   OH274668   2.276   3.150  11.979  0.4520  0.0385  0.3616
17726TIP3    H174669   2.238   3.066  12.006 -0.3951  0.2109 -0.2759
17726TIP3    H274670   2.330   3.129  11.903  0.2235  0.0725  0.1896
17727TIP3   OH274671   5.152   6.269   1.733  0.1546 -0.4438  0.1142
17727TIP3    H174672   5.060   6.292   1.747  0.2671 -0.6917  1.4017
17727TIP3    H274673   5.200   6.325   1.794  0.7817 -1.0141  0.1596
17728TIP3   OH274674   0.508   0.813   4.165  0.3757 -0.2544 -0.0789
17728TIP3    H174675   0.446   0.768   4.107  0.4239 -0.3545 -0.0542
17728TIP3    H274676   0.466   0.897   4.184 -0.1026 -0.6214  0.5421
17729TIP3   OH274677   6.804   2.274  11.458  0.2547 -0.1657  0.0812
17729TIP3    H174678   6.896   2.282  11.481  0.8730  1.5131 -2.5726
17729TIP3    H274679   6.796   2.185  11.422  0.9140 -0.1762 -0.0442
17730TIP3   OH274680   0.475   1.584  12.392 -1.1507  0.2619 -0.1253
17730TIP3    H174681   0.517   1.669  12.393 -1.3459  0.4004 -1.6466
17730TIP3    H274682   0.545   1.522  12.411 -0.7668  0.6743 -0.1912
17731TIP3   OH274683   1.503   5.089   5.064  0.6612 -0.3767  0.2921
17731TIP3    H174684   1.410   5.088   5.089  0.8629 -3.9148  1.3189
17731TIP3    H274685   1.543   5.149   5.127 -0.8044  0.8005  0.1687
17732TIP3   OH274686   4.903   5.170  13.452 -0.0148  0.0552 -0.1132
17732TIP3    H174687   4.929   5.209  13.368 -1.3076  0.8101 -0.1810
17732TIP3    H274688   4.812   5.145  13.440 -0.0568 -0.3297  0.9006
17733TIP3   OH274689   2.800   1.807   3.436 -0.5906  0.1288 -0.0039
17733TIP3    H174690   2.887   1.817   3.474 -0.8514  0.2077  0.5971
17733TIP3    H274691   2.755   1.747   3.495 -0.4489 -1.1769 -1.1860
17734TIP3   OH274692   0.820   0.403  15.340  0.1817  0.5082  0.4627
17734TIP3    H174693   0.728   0.383  15.321  0.1901 -1.1325  1.9132
17734TIP3    H274694   0.835   0.367  15.427  2.1625  0.9450  0.3496
17735TIP3   OH274695   0.310   6.240  11.541  0.0296 -0.3573 -0.0476
17735TIP3    H174696   0.258   6.252  11.461 -1.8196 -0.2737  1.1065
17735TIP3    H274697   0.379   6.306  11.535 -2.3055  2.3121  0.1341
17736TIP3   OH274698   5.094   4.765   0.534  0.1108  0.2390  0.1035
17736TIP3    H174699   5.156   4.836   0.521  0.2223  0.3211  1.0561
17736TIP3    H274700   5.115   4.730   0.620  1.3791 -2.2555 -1.1160
17737TIP3   OH274701   5.306   2.697  13.234 -0.1122 -0.3076 -0.0011
17737TIP3    H174702   5.262   2.715  13.317 -0.3332  0.7052 -0.3257
17737TIP3    H274703   5.383   2.646  13.259  0.8203  1.4819  1.0656
17738TIP3   OH274704   3.468   2.480   4.833 -0.2105  0.3218  0.0681
17738TIP3    H174705   3.451   2.457   4.925  1.0210  0.5326  0.3717
17738TIP3    H274706   3.483   2.575   4.835 -1.1418  0.4881 -0.5166
17739TIP3   OH274707   5.675   0.376  14.738  0.2713  0.2962  0.1590
17739TIP3    H174708   5.763   0.410  14.724  0.3286  0.0268 -0.1544
17739TIP3    H274709   5.684   0.316  14.813 -0.1031  1.9985  1.6378
17740TIP3   OH274710   5.599   2.034   5.567  0.4813 -0.1859  0.4594
17740TIP3    H174711   5.523   2.093   5.565 -0.0640 -0.8379 -2.2264
17740TIP3    H274712   5.653   2.068   5.638 -0.1208  3.1679 -0.4998
17741TIP3   OH274713   0.263   1.768  15.980  0.6898  0.0248  0.0923
17741TIP3    H174714   0.194   1.810  16.032  0.6454 -0.2523  0.2599
17741TIP3    H274715   0.223   1.686  15.949  0.7844  0.0919 -0.2091
17742TIP3   OH274716   3.694   3.159  15.489  0.7162  0.1259  0.1256
17742TIP3    H174717   3.747   3.085  15.459  0.3572  0.2609 -0.8833
17742TIP3    H274718   3.752   3.235  15.480  1.6303 -0.1730  2.6344
17743TIP3   OH274719   2.649   1.294  14.236  0.3274 -0.1594 -0.4128
17743TIP3    H174720   2.714   1.356  14.203  0.8941 -1.4560 -1.7735
17743TIP3    H274721   2.699   1.234  14.292  0.2866 -1.0275 -1.2882
17744TIP3   OH274722   2.468   6.585  12.096 -0.0110  0.1937 -0.2317
17744TIP3    H174723   2.562   6.579  12.115 -0.0562 -1.6391 -0.4089
17744TIP3    H274724   2.428   6.606  12.180  0.4976  0.2895 -0.0053
17745TIP3   OH274725   1.596   6.307  16.514 -0.1232 -0.1489 -0.5979
17745TIP3    H174726   1.528   6.239  16.514  0.2208 -0.5490  1.4055
17745TIP3    H274727   1.561   6.375  16.571  0.5628  0.2945 -0.7015
17746TIP3   OH274728   4.965   2.204   5.474 -0.1737 -0.3136 -0.0587
17746TIP3    H174729   5.047   2.253   5.476 -0.2748 -0.1592  0.4950
17746TIP3    H274730   4.989   2.118   5.440  0.1149 -0.0842 -0.4444
17747TIP3   OH274731   3.965   5.148   2.372  0.0993 -0.1704  0.0704
17747TIP3    H174732   3.951   5.182   2.460  1.2721 -0.8015  0.5208
17747TIP3    H274733   3.904   5.074   2.365  0.4916 -0.5472  0.6082
17748TIP3   OH274734   5.185   4.627  15.318 -0.4351  0.2733 -0.3908
17748TIP3    H174735   5.249   4.628  15.389 -0.3249  1.7506 -0.4780
17748TIP3    H274736   5.163   4.534  15.306  1.7123 -0.2821 -0.3981
17749TIP3   OH274737   2.615   5.084   1.224 -0.4008 -0.1153  0.0702
17749TIP3    H174738   2.597   5.008   1.170 -1.2113  0.3425 -0.3302
17749TIP3    H274739   2.697   5.120   1.190 -1.2567  0.5783 -1.3530
17750TIP3   OH274740   5.186   2.720   0.219 -0.3643 -0.0461 -0.4092
17750TIP3    H174741   5.188   2.739   0.126 -0.5733 -2.8832 -1.0910
17750TIP3    H274742   5.278   2.707   0.243 -0.2904  0.9125 -0.1402
17751TIP3   OH274743   4.349   2.041  16.776  0.1463  0.5908 -0.4591
17751TIP3    H174744   4.435   2.067  16.745 -0.0706  0.6963 -0.9852
17751TIP3    H274745   4.314   1.985  16.706  0.2127 -0.3261  0.2088
17752TIP3   OH274746   5.035   1.699   5.545 -0.3661  0.1445 -0.5121
17752TIP3    H174747   5.047   1.707   5.640 -0.6031 -0.7030 -0.4035
17752TIP3    H274748   5.057   1.786   5.511  1.5082 -0.0314  0.1323
17753TIP3   OH274749   5.301   1.973  11.416 -0.5574  0.1942  0.0825
17753TIP3    H174750   5.322   1.885  11.446 -1.0236 -0.7283 -2.0582
17753TIP3    H274751   5.216   1.963  11.372  0.0021  1.4030 -1.3658
17754TIP3   OH274752   2.131   1.399   5.374  0.8587 -0.3503  0.3846
17754TIP3    H174753   2.179   1.319   5.353  1.8209  0.6835 -1.5519
17754TIP3    H274754   2.039   1.372   5.374  1.2051 -1.5882  0.4419
17755TIP3   OH274755   2.544   3.591   3.201  0.1746  0.4533  0.0284
17755TIP3    H174756   2.501   3.509   3.174  1.8470 -0.4311 -0.0715
17755TIP3    H274757   2.605   3.565   3.270 -0.2628  1.8672  0.9918
17756TIP3   OH274758   5.735   0.924  16.414 -0.0741  0.0180  0.4193
17756TIP3    H174759   5.826   0.911  16.385 -0.4613 -0.1589 -0.7627
17756TIP3    H274760   5.699   0.988  16.354 -0.2671  1.3980  1.9274
17757TIP3   OH274761   6.305   4.619  12.184  0.3523 -0.0130 -0.4921
17757TIP3    H174762   6.217   4.592  12.159 -0.1928  1.8781 -0.7873
17757TIP3    H274763   6.357   4.539  12.184 -0.5532 -0.7107 -3.7472
17758TIP3   OH274764   2.241   5.216  12.716  0.5233  0.2843  0.6314
17758TIP3    H174765   2.304   5.145  12.724  0.4943  0.3021  1.0811
17758TIP3    H274766   2.184   5.191  12.644  1.8043  0.8654 -0.6314
17759TIP3   OH274767   3.516   2.784  12.293  0.2061  0.3905  0.2801
17759TIP3    H174768   3.483   2.698  12.318 -1.9013  0.8844 -0.6069
17759TIP3    H274769   3.538   2.776  12.201  0.4498  0.6808  0.3109
17760TIP3   OH274770   3.208   0.450  15.484  0.1639 -0.0231 -0.0416
17760TIP3    H174771   3.134   0.429  15.541  0.5581  1.3035  1.0107
17760TIP3    H274772   3.245   0.365  15.461 -1.8736 -0.7539 -0.8955
17761TIP3   OH274773   5.003   0.508   5.725 -0.5028  0.1194  0.3990
17761TIP3    H174774   5.031   0.462   5.646 -0.8766  0.5283  0.0198
17761TIP3    H274775   5.080   0.558   5.752  0.5070 -2.0497  1.8457
17762TIP3   OH274776   0.670   1.286  13.338  0.3251 -0.4529 -0.3062
17762TIP3    H174777   0.575   1.273  13.330  0.1624  0.4209  0.1360
17762TIP3    H274778   0.708   1.215  13.287 -0.5553 -1.5523  0.5092
17763TIP3   OH274779   1.167   4.071  11.486 -0.4937  0.3431 -0.4094
17763TIP3    H174780   1.112   4.146  11.463 -0.7695  1.0882  2.2956
17763TIP3    H274781   1.215   4.100  11.564 -0.1885 -2.0929  0.3931
17764TIP3   OH274782   6.798   4.411   4.417  0.2450  0.2854 -0.3392
17764TIP3    H174783   6.819   4.414   4.324  0.5122 -1.1431 -0.3534
17764TIP3    H274784   6.835   4.328   4.447 -3.5596 -1.4562  0.1041
17765TIP3   OH274785   3.471   6.674  12.526  0.4804  0.0432  0.2948
17765TIP3    H174786   3.552   6.725  12.530  0.5389 -0.0935  0.8470
17765TIP3    H274787   3.407   6.727  12.574  0.1261  0.3516 -0.4943
17766TIP3   OH274788   2.494   5.188  15.696 -1.0168  0.7224 -0.3639
17766TIP3    H174789   2.506   5.096  15.673 -0.4390  0.3968  1.1575
17766TIP3    H274790   2.399   5.202  15.688 -1.4040 -0.5714  1.2397
17767TIP3   OH274791   1.715   3.928   4.225  0.3390 -0.0515  0.2787
17767TIP3    H174792   1.774   3.857   4.250 -1.0531 -0.7862  1.6239
17767TIP3    H274793   1.738   3.947   4.134  1.3602 -1.5935  0.1775
17768TIP3   OH274794   0.834   0.277  11.986 -0.5876 -0.3689 -0.0112
17768TIP3    H174795   0.760   0.337  11.983 -0.0200  0.3219 -0.3770
17768TIP3    H274796   0.858   0.271  12.078  0.4053  1.2980 -0.1240
17769TIP3   OH274797   0.446   3.132   0.452 -0.2699  0.2484 -0.2808
17769TIP3    H174798   0.466   3.042   0.428  0.1271  0.0704  0.6768
17769TIP3    H274799   0.356   3.145   0.424  0.2150  0.1110 -1.9874
17770TIP3   OH274800   1.752   4.394  12.520 -0.1146 -0.4783 -0.3804
17770TIP3    H174801   1.740   4.483  12.489  0.6863 -0.6726 -1.2988
17770TIP3    H274802   1.846   4.377  12.510 -0.3137 -1.5489 -0.6011
17771TIP3   OH274803   5.543   5.007   4.117 -0.1845 -0.2027  0.2392
17771TIP3    H174804   5.599   4.929   4.112  2.2214  1.4825 -1.0972
17771TIP3    H274805   5.577   5.055   4.192 -1.9791 -0.6018  1.3591
17772TIP3   OH274806   1.430   1.572   5.858 -0.6017  0.2188 -0.1751
17772TIP3    H174807   1.387   1.535   5.935 -1.1770  1.2588  0.0230
17772TIP3    H274808   1.363   1.627   5.817  0.0164  0.4897 -0.8451
17773TIP3   OH274809   4.740   3.149   0.949  1.0887 -0.1852 -0.3429
17773TIP3    H174810   4.676   3.218   0.932 -0.9135 -1.5707  1.1086
17773TIP3    H274811   4.793   3.182   1.022  0.3379 -0.0566  0.1474
17774TIP3   OH274812   5.121   6.711   6.086 -0.4697  0.3245  0.5774
17774TIP3    H174813   5.106   6.672   6.172 -1.7868  1.8821  1.0997
17774TIP3    H274814   5.038   6.753   6.064 -0.5472 -1.0258 -2.0204
17775TIP3   OH274815   2.785   6.676  11.687  0.2126 -0.1959  0.4305
17775TIP3    H174816   2.720   6.618  11.647  0.2833  0.5396 -0.8098
17775TIP3    H274817   2.734   6.732  11.746 -0.2123  0.0211 -0.1320
17776TIP3   OH274818   4.033   0.991   3.872 -0.1554  0.5154 -0.0535
17776TIP3    H174819   3.939   1.003   3.855 -0.5299  0.5234  1.8535
17776TIP3    H274820   4.064   1.080   3.891  0.0973  0.4203 -0.0310
17777TIP3   OH274821   5.169   1.431   5.829  0.3479 -0.4265  0.3691
17777TIP3    H174822   5.224   1.500   5.867 -1.0674  1.9537 -1.5560
17777TIP3    H274823   5.201   1.422   5.739  0.2964 -2.0959  0.5033
17778TIP3   OH274824   6.573   6.323   5.440  0.4837  0.2137  0.1747
17778TIP3    H174825   6.618   6.392   5.392 -0.3776 -0.1714 -1.2356
17778TIP3    H274826   6.642   6.259   5.460  1.1398  1.1167  0.8553
17779TIP3   OH274827   1.521   5.144  13.434 -0.1875 -0.1461  0.2441
17779TIP3    H174828   1.578   5.205  13.482  0.9099  0.3956 -1.6478
17779TIP3    H274829   1.545   5.156  13.342 -3.1882 -0.0978 -0.6408
17780TIP3   OH274830   4.523   0.028  15.393  0.5077  0.6897  0.2125
17780TIP3    H174831   4.545   0.078  15.314  0.8306  0.4060  0.1176
17780TIP3    H274832   4.463  -0.040  15.362 -1.5810  2.2259  0.6831
17781TIP3   OH274833   0.901   4.171  17.172 -0.2896  0.3215  0.0654
17781TIP3    H174834   0.897   4.251  17.120  0.8223  0.6071  0.3896
17781TIP3    H274835   0.913   4.101  17.107 -1.4024  0.3764 -0.2306
17782TIP3   OH274836   6.417   5.436  11.500  0.3558 -0.1096  0.2303
17782TIP3    H174837   6.363   5.371  11.544  0.8181 -0.6272  0.0410
17782TIP3    H274838   6.410   5.415  11.407 -1.4054  1.5725 -0.0908
17783TIP3   OH274839   0.888   3.384   4.373  0.2904 -0.0207  0.3064
17783TIP3    H174840   0.912   3.301   4.331 -0.1306  0.5605 -1.1687
17783TIP3    H274841   0.796   3.374   4.394 -0.7172  1.1889 -2.9380
17784TIP3   OH274842   4.376   4.759   0.741  0.4509  0.6132 -0.2596
17784TIP3    H174843   4.326   4.833   0.707  0.4307  0.5792 -0.3040
17784TIP3    H274844   4.424   4.726   0.665 -0.3439 -0.0681 -0.4742
17785TIP3   OH274845   2.038   0.805  16.159 -0.1270  0.3032  0.2760
17785TIP3    H174846   1.942   0.798  16.166 -0.2010 -0.8799 -1.3497
17785TIP3    H274847   2.069   0.715  16.166  0.7539  0.5242 -0.6646
17786TIP3   OH274848   1.243   4.199   0.545 -0.1082  0.4559  0.2020
17786TIP3    H174849   1.293   4.261   0.491 -3.7158  2.7816 -0.7822
17786TIP3    H274850   1.219   4.129   0.485  0.4660  0.1965  0.2621
17787TIP3   OH274851   5.929   1.031   4.922 -0.0367 -0.7401 -0.9591
17787TIP3    H174852   5.974   1.009   4.841  2.0740 -0.0512 -0.0504
17787TIP3    H274853   5.897   1.121   4.909 -2.2560 -1.6018 -2.0064
17788TIP3   OH274854   3.635   4.813   3.251 -0.0023 -0.1005 -0.4512
17788TIP3    H174855   3.575   4.879   3.217  0.8174  1.1583  0.4360
17788TIP3    H274856   3.722   4.852   3.241  0.5226 -1.1261 -0.0698
17789TIP3   OH274857   0.691   5.263  16.358 -0.0986 -0.1650 -0.4005
17789TIP3    H174858   0.659   5.313  16.433 -1.0576 -0.7344 -0.4195
17789TIP3    H274859   0.775   5.303  16.338 -0.0896  0.3730  0.6144
17790TIP3   OH274860   0.787   3.094   2.317  0.6484  0.1797 -0.5456
17790TIP3    H174861   0.753   3.007   2.295  1.7694 -0.4537  0.1604
17790TIP3    H274862   0.761   3.107   2.408  1.0692  0.3103 -0.4454
17791TIP3   OH274863   2.910   3.380  12.472  1.0011  0.4704 -0.1796
17791TIP3    H174864   2.965   3.441  12.522 -1.9592  0.6062  3.3208
17791TIP3    H274865   2.931   3.294  12.509 -2.3107  0.7284  2.8340
17792TIP3   OH274866   3.717   1.010  12.697  0.0283  0.3745  0.1812
17792TIP3    H174867   3.746   1.078  12.757 -2.4673 -1.0071  3.3128
17792TIP3    H274868   3.772   0.934  12.718 -1.4340 -0.3809  1.5735
17793TIP3   OH274869   6.266   4.888   0.913 -0.4464 -0.1989 -0.2640
17793TIP3    H174870   6.227   4.854   0.994  0.7104  2.4903  1.5709
17793TIP3    H274871   6.195   4.885   0.849 -2.0920 -0.3259  1.4861
17794TIP3   OH274872   4.240   3.794  14.186 -0.2500 -0.2323  0.5424
17794TIP3    H174873   4.179   3.720  14.178  0.0734 -0.3535 -1.2017
17794TIP3    H274874   4.209   3.858  14.123  0.4208  0.4510  0.8856
17795TIP3   OH274875   2.191   0.545   0.254  0.2492 -0.3247 -0.1662
17795TIP3    H174876   2.146   0.490   0.318 -0.5737  0.2099 -0.2519
17795TIP3    H274877   2.195   0.631   0.296 -0.9633  0.2205 -1.0798
17796TIP3   OH274878   1.759   0.853  16.939  0.0815  0.3788  0.0448
17796TIP3    H174879   1.714   0.923  16.986  0.9375  0.0072  1.5052
17796TIP3    H274880   1.815   0.812  17.006  0.4634 -0.9490 -1.0409
17797TIP3   OH274881   6.607   4.619  11.473  0.0010 -0.1022 -0.0443
17797TIP3    H174882   6.667   4.556  11.435 -1.3524 -0.9347 -0.9112
17797TIP3    H274883   6.643   4.704  11.449 -0.7011 -0.5733 -3.2350
17798TIP3   OH274884   5.094   3.349   0.084  0.0761  0.4280 -0.1615
17798TIP3    H174885   5.171   3.405   0.091 -0.0779  0.5923  0.2688
17798TIP3    H274886   5.124   3.262   0.112  0.5214  0.0867 -1.6125
17799TIP3   OH274887   2.548   4.450   2.246 -0.4435 -0.3947  0.2902
17799TIP3    H174888   2.605   4.523   2.270  0.4707 -1.7085  2.5393
17799TIP3    H274889   2.606   4.389   2.200 -0.6814 -0.6080  0.2750
17800TIP3   OH274890   5.245   1.350  11.480  0.1654  0.4557  0.8440
17800TIP3    H174891   5.277   1.271  11.438  0.8413  1.5792 -0.8337
17800TIP3    H274892   5.159   1.365  11.441  0.5224  1.1553  0.3139
17801TIP3   OH274893   5.416   1.626  14.106  0.0625 -0.8054  0.1885
17801TIP3    H174894   5.438   1.554  14.165  0.1125  1.2177  2.7825
17801TIP3    H274895   5.498   1.645  14.060  0.4653 -1.3438  0.6695
17802TIP3   OH274896   3.214   6.279   5.307 -0.5287 -0.3648 -0.3883
17802TIP3    H174897   3.161   6.282   5.227  0.1512  0.6613 -0.8111
17802TIP3    H274898   3.291   6.228   5.283 -0.0651  0.4051 -0.5512
17803TIP3   OH274899   6.285   0.811  12.303 -0.5577 -0.1764 -0.3042
17803TIP3    H174900   6.193   0.839  12.297 -0.2066  1.0850 -0.2432
17803TIP3    H274901   6.334   0.887  12.271  0.5320 -0.2482  1.1176
17804TIP3   OH274902   6.594   1.334  10.563  0.0590  0.0733  0.1926
17804TIP3    H174903   6.616   1.329  10.656 -0.3189 -0.5575  0.2580
17804TIP3    H274904   6.513   1.284  10.555  1.1018 -1.5833 -0.7861
17805TIP3   OH274905   4.058   1.847  14.673  0.4156  0.0667 -0.0192
17805TIP3    H174906   4.119   1.781  14.639  0.2987 -0.1422  0.1772
17805TIP3    H274907   4.109   1.895  14.738 -0.0384 -1.0204  1.1748
17806TIP3   OH274908   1.866   1.874   4.975 -0.0747  0.2681  0.0181
17806TIP3    H174909   1.783   1.842   4.939  0.1100  0.9387 -1.0633
17806TIP3    H274910   1.931   1.847   4.910  0.5867 -0.3377  0.9040
17807TIP3   OH274911   0.961   6.095   0.391 -0.2597  0.1421 -0.9072
17807TIP3    H174912   1.001   6.131   0.312  0.6776 -0.8299 -0.9029
17807TIP3    H274913   0.927   6.009   0.363  0.0452 -0.1889 -0.2747
17808TIP3   OH274914   3.745   1.201   2.030 -0.0696  0.1583  0.3679
17808TIP3    H174915   3.834   1.195   2.065  0.4002 -0.9557 -0.8920
17808TIP3    H274916   3.729   1.295   2.020  0.5752  0.4025  1.5387
17809TIP3   OH274917   3.652   2.799  14.290 -0.2561  0.2136 -0.3148
17809TIP3    H174918   3.598   2.780  14.366  0.9640 -1.5055  0.1978
17809TIP3    H274919   3.592   2.795  14.215 -0.9718 -1.0082  0.2914
17810TIP3   OH274920   4.600   1.258  14.398  0.2391 -0.7210  0.4712
17810TIP3    H174921   4.546   1.291  14.470  1.3184  0.5627  0.7272
17810TIP3    H274922   4.560   1.294  14.319 -1.6052 -3.0164  0.2549
17811TIP3   OH274923   3.671   1.868   2.172  0.6838  0.6423  0.2893
17811TIP3    H174924   3.706   1.781   2.191  0.9565  0.7522  0.2945
17811TIP3    H274925   3.634   1.861   2.084  1.7444  0.8323 -0.1890
17812TIP3   OH274926   4.673   5.407  17.081  0.7217 -0.1281  0.0542
17812TIP3    H174927   4.686   5.467  17.154 -0.8787 -1.0421  1.1607
17812TIP3    H274928   4.719   5.327  17.107 -0.3438 -0.6589  0.3760
17813TIP3   OH274929   6.615   5.211  12.986 -0.2564 -0.1197 -0.3837
17813TIP3    H174930   6.591   5.303  12.983 -1.0936 -0.3685 -1.6579
17813TIP3    H274931   6.700   5.210  13.032 -0.9543  1.1086  1.0105
17814TIP3   OH274932   5.423   1.905  14.671 -0.1837 -0.2241  0.2872
17814TIP3    H174933   5.466   1.980  14.629 -1.3299  0.3478  0.1112
17814TIP3    H274934   5.341   1.895  14.624 -1.6255  0.5780  2.4882
17815TIP3   OH274935   2.881   1.142   2.872 -0.1997 -0.5491 -0.0942
17815TIP3    H174936   2.940   1.068   2.855  1.0209  0.8252 -2.3323
17815TIP3    H274937   2.853   1.130   2.963 -0.6424 -4.1232 -0.5630
17816TIP3   OH274938   2.160   4.758  13.131  0.0899  0.3826  0.2841
17816TIP3    H174939   2.113   4.789  13.209  1.0247  2.6813  0.0111
17816TIP3    H274940   2.130   4.668  13.120 -2.3205  0.9188  1.5782
17817TIP3   OH274941   1.415   4.333   3.052 -0.8656 -0.2667  0.0777
17817TIP3    H174942   1.473   4.289   3.115 -0.0437  0.6111 -0.0343
17817TIP3    H274943   1.345   4.370   3.106 -0.8476 -0.5839  0.3214
17818TIP3   OH274944   0.170   3.285   4.868 -0.3179 -0.6003  0.0547
17818TIP3    H174945   0.159   3.207   4.922 -1.4905 -0.8803 -0.5512
17818TIP3    H274946   0.259   3.316   4.888 -0.1043 -1.6627  0.8439
17819TIP3   OH274947   3.932   5.802  16.794 -0.4716  0.3730 -0.4804
17819TIP3    H174948   3.846   5.827  16.828 -1.2740 -2.0607 -0.5330
17819TIP3    H274949   3.993   5.857  16.842 -2.0429  2.2680 -0.5210
17820TIP3   OH274950   4.684   3.230   2.556 -0.6096 -0.0900 -0.2591
17820TIP3    H174951   4.621   3.297   2.529  0.1043  0.2743 -1.0672
17820TIP3    H274952   4.742   3.275   2.618 -1.1547 -0.4411  0.5296
17821TIP3   OH274953   4.835   3.842  15.219 -0.2792  0.0381  0.2391
17821TIP3    H174954   4.765   3.864  15.281 -0.4772  1.1540 -0.3479
17821TIP3    H274955   4.893   3.784  15.268 -2.3451 -2.1072  0.2957
17822TIP3   OH274956   1.008   4.624   2.543 -0.2000 -0.3897  0.0457
17822TIP3    H174957   0.968   4.558   2.600 -0.4109 -3.2665 -3.1351
17822TIP3    H274958   0.940   4.692   2.534 -1.1149 -1.1218  1.1413
17823TIP3   OH274959   4.899   1.743   6.520  0.1557 -0.3046  0.5592
17823TIP3    H174960   4.859   1.657   6.531  0.3470 -0.2093  2.3113
17823TIP3    H274961   4.975   1.742   6.578 -0.7663  1.5722  1.9266
17824TIP3   OH274962   6.557   0.786  13.108  0.2392  0.0586 -0.1718
17824TIP3    H174963   6.505   0.813  13.033 -0.6224  0.2247  0.4712
17824TIP3    H274964   6.538   0.693  13.120 -0.4111  0.2618  0.4427
17825TIP3   OH274965   1.759   2.690  15.651  0.4820  0.2048 -0.3811
17825TIP3    H174966   1.822   2.687  15.723  1.2384 -1.4163 -1.0541
17825TIP3    H274967   1.811   2.716  15.574  0.0186  0.3007 -0.6719
17826TIP3   OH274968   3.634   5.849  15.786  0.4043  0.2503 -0.4519
17826TIP3    H174969   3.597   5.937  15.787  0.2491  0.2039 -1.4041
17826TIP3    H274970   3.634   5.824  15.694  0.5308 -0.7151 -0.1974
17827TIP3   OH274971   0.431   4.768  11.934 -0.0747  0.5976 -0.1647
17827TIP3    H174972   0.476   4.694  11.894  0.3558  0.2288  0.9619
17827TIP3    H274973   0.354   4.731  11.976  0.3049  0.7230  0.6684
17828TIP3   OH274974   0.840   5.323   1.815 -0.2973 -0.3676  0.3401
17828TIP3    H174975   0.928   5.294   1.790  1.0462  2.6983  1.0635
17828TIP3    H274976   0.838   5.313   1.910 -0.4506  0.2019  0.4001
17829TIP3   OH274977   6.553   0.747  15.140  0.3917  0.1828  0.3311
17829TIP3    H174978   6.637   0.718  15.104  1.3335  1.1474  1.6448
17829TIP3    H274979   6.563   0.738  15.234 -0.4478  1.6481  0.5940
17830TIP3   OH274980   3.609   5.439  13.514  0.6255  0.0809  0.1785
17830TIP3    H174981   3.578   5.528  13.533 -1.3556 -0.6730  0.7202
17830TIP3    H274982   3.682   5.452  13.454 -0.5942  2.0366 -1.0264
17831TIP3   OH274983   3.644   6.457   3.274  0.1301 -0.3032 -0.0314
17831TIP3    H174984   3.639   6.527   3.209  1.7570  0.2688  0.4146
17831TIP3    H274985   3.585   6.485   3.344  0.6211  0.5288  0.0567
17832TIP3   OH274986   4.812   5.544  16.543 -0.6067  0.0070  0.1894
17832TIP3    H174987   4.782   5.623  16.588  1.1040  0.3231  0.8295
17832TIP3    H274988   4.906   5.541  16.559  0.0598 -0.0597 -3.0484
17833TIP3   OH274989   0.838   2.566  16.945  0.6061  0.2034  0.3903
17833TIP3    H174990   0.854   2.496  17.009  0.2335 -0.4943 -0.2560
17833TIP3    H274991   0.743   2.580  16.949  0.5109 -0.1655 -0.3140
17834TIP3   OH274992   6.416   1.479   3.651  0.4705  0.1478 -1.1452
17834TIP3    H174993   6.352   1.418   3.690 -1.0737  2.5210  0.2556
17834TIP3    H274994   6.496   1.466   3.702  1.9611 -4.1452 -4.0296
17835TIP3   OH274995   2.779   4.990   0.839 -0.2358  0.6038  0.8018
17835TIP3    H174996   2.839   5.018   0.770 -3.0943 -0.0210 -2.1494
17835TIP3    H274997   2.772   5.067   0.896  3.1282  0.7323  1.2255
17836TIP3   OH274998   0.649   3.036   1.384 -0.1036 -0.1634 -0.4094
17836TIP3    H174999   0.610   2.993   1.460 -0.7549 -0.7691 -1.0768
17836TIP3    H275000   0.643   3.129   1.403 -1.1678 -0.2772 -0.1534
17837TIP3   OH275001   0.344   3.419   4.446 -0.6733  0.3632  0.1888
17837TIP3    H175002   0.336   3.342   4.390 -0.4359  1.0663 -0.8355
17837TIP3    H275003   0.278   3.406   4.515  1.6737 -2.4288  2.1142
17838TIP3   OH275004   4.405   1.887  13.199 -0.1278  0.1681 -0.2650
17838TIP3    H175005   4.418   1.960  13.259 -0.6799 -1.1304  1.5440
17838TIP3    H275006   4.493   1.853  13.182  0.0843  0.9256 -0.7200
17839TIP3   OH275007   0.118   0.792   4.693 -0.1565  0.3226  0.3385
17839TIP3    H175008   0.150   0.704   4.672  0.2592  0.5300  0.0822
17839TIP3    H275009   0.198   0.845   4.699 -0.2111  0.2514  2.5902
17840TIP3   OH275010   6.388   5.675  11.666 -0.1829 -0.3943  0.2879
17840TIP3    H175011   6.440   5.601  11.634 -1.1518 -0.3185 -1.6478
17840TIP3    H275012   6.298   5.654  11.639 -0.5266  1.3291 -0.0389
17841TIP3   OH275013   6.379   0.257   5.595 -0.0547 -0.0562 -0.0845
17841TIP3    H175014   6.392   0.331   5.655  0.2061 -0.0113 -0.1925
17841TIP3    H275015   6.290   0.267   5.562 -0.9225 -1.1682  1.7708
17842TIP3   OH275016   6.208   5.320  16.006 -0.3068 -0.1313 -0.4104
17842TIP3    H175017   6.211   5.290  15.916 -1.5256 -1.3659 -0.0726
17842TIP3    H275018   6.147   5.394  16.006 -0.4801 -0.2748 -0.5666
17843TIP3   OH275019   2.897   4.277  16.674  0.6249 -0.2550  0.2397
17843TIP3    H175020   2.827   4.336  16.702  1.2408  0.3304  0.5657
17843TIP3    H275021   2.946   4.327  16.609  0.5165 -0.8062 -0.2770
17844TIP3   OH275022   3.609   5.415   2.240 -0.3247  0.0715  0.3425
17844TIP3    H175023   3.578   5.325   2.250  0.3558 -0.4019 -1.4490
17844TIP3    H275024   3.695   5.416   2.284  0.1767 -0.4872 -0.5876
17845TIP3   OH275025   5.354   4.468  13.894  0.8198  0.5211  0.1149
17845TIP3    H175026   5.302   4.497  13.819  0.1948  1.7370  0.9844
17845TIP3    H275027   5.351   4.373  13.890 -0.1491  0.5740 -0.7547
17846TIP3   OH275028   2.235   5.282  14.646 -0.4271  0.6620  0.5520
17846TIP3    H175029   2.284   5.233  14.712  0.1104  1.3236  0.6443
17846TIP3    H275030   2.221   5.219  14.575  0.8607  0.5659  0.3725
17847TIP3   OH275031   5.914   4.367  11.483 -0.0005  0.1124  0.2860
17847TIP3    H175032   5.976   4.426  11.526  0.2299  0.4273 -0.4691
17847TIP3    H275033   5.839   4.364  11.543 -0.6376  2.3130 -0.2959
17848TIP3   OH275034   0.781   6.574  11.669 -0.0381  0.3930  0.6985
17848TIP3    H175035   0.729   6.570  11.589 -0.3382  0.0238  0.9130
17848TIP3    H275036   0.855   6.515  11.653  0.0753  0.5693  0.5693
17849TIP3   OH275037   4.434   4.323   2.103 -0.2137 -0.0683 -0.7887
17849TIP3    H175038   4.394   4.314   2.190  1.5126 -1.3065 -0.0746
17849TIP3    H275039   4.485   4.243   2.091  1.0788  0.8935 -2.1449
17850TIP3   OH275040   6.578   2.109   2.017 -0.3355 -0.1453  0.0350
17850TIP3    H175041   6.557   2.200   1.996  0.1922  0.3671  1.5957
17850TIP3    H275042   6.674   2.108   2.023 -0.4325 -0.1502  2.5990
17851TIP3   OH275043   3.182   1.253  13.061  0.1736 -0.1229  0.4525
17851TIP3    H175044   3.174   1.177  13.119 -1.0545 -1.1159 -0.9361
17851TIP3    H275045   3.092   1.277  13.040  0.5428 -0.3385 -1.6504
17852TIP3   OH275046   2.981   3.555   2.273 -0.0532  0.0503 -0.2465
17852TIP3    H175047   2.972   3.620   2.343 -1.2854 -1.2870  0.8814
17852TIP3    H275048   2.906   3.572   2.215 -1.0345 -1.0639  0.6667
17853TIP3   OH275049   1.287   5.506  11.237  0.6658 -0.1054  0.5176
17853TIP3    H175050   1.200   5.487  11.273  0.1772  0.3360 -0.4121
17853TIP3    H275051   1.294   5.601  11.238  1.2253 -0.1430  0.7652
17854TIP3   OH275052   0.779   3.923   5.403 -0.5311  0.0025  0.5367
17854TIP3    H175053   0.704   3.982   5.414 -0.4487  1.1552 -3.5460
17854TIP3    H275054   0.740   3.842   5.369 -0.1288 -0.3683  0.9449
17855TIP3   OH275055   6.609   1.734  11.239 -0.5065  1.0135 -0.4426
17855TIP3    H175056   6.613   1.655  11.294  0.5297 -0.7613 -2.8811
17855TIP3    H275057   6.543   1.789  11.281 -0.0772 -0.3886  2.2945
17856TIP3   OH275058   3.097   3.040  16.443  0.4115  0.3738  0.4415
17856TIP3    H175059   3.048   2.973  16.395 -1.4025  2.9841 -1.6842
17856TIP3    H275060   3.030   3.096  16.481  1.7578  2.4511 -0.0777
17857TIP3   OH275061   2.073   4.617   2.130  0.1515  0.0924  0.3504
17857TIP3    H175062   2.167   4.611   2.114  0.2428  1.1725  0.4288
17857TIP3    H275063   2.065   4.654   2.217 -0.3407  0.7389  0.0386
17858TIP3   OH275064   0.713   3.715  12.053  0.0930  0.6784 -0.0500
17858TIP3    H175065   0.645   3.707  11.986 -0.2070  1.7597  0.0993
17858TIP3    H275066   0.687   3.653  12.121  0.0402  0.0521 -0.6292
17859TIP3   OH275067   1.340   3.582   1.710  0.0894  0.6565  0.4043
17859TIP3    H175068   1.282   3.506   1.718 -0.0202  0.6241 -0.6329
17859TIP3    H275069   1.378   3.592   1.798 -1.5555  0.7456  1.1338
17860TIP3   OH275070   6.423   2.970   2.965  0.0656  0.2271  0.0691
17860TIP3    H175071   6.442   3.060   2.937  0.6328  0.2390  0.4684
17860TIP3    H275072   6.351   2.942   2.909 -0.1710  0.9634 -0.0060
17861TIP3   OH275073   0.113   6.205   1.453  0.3834 -0.2731 -0.2338
17861TIP3    H175074   0.153   6.118   1.456 -1.5394 -1.2194 -0.7834
17861TIP3    H275075   0.159   6.254   1.522  2.5084 -1.2286 -0.8813
17862TIP3   OH275076   1.551   3.317  11.138  0.3748 -0.0053  0.2755
17862TIP3    H175077   1.459   3.324  11.113  0.3287  0.1485  0.4856
17862TIP3    H275078   1.600   3.329  11.057  0.1793 -1.1344 -0.0180
17863TIP3   OH275079   5.213   5.942  11.496  0.3688 -0.3141  0.1886
17863TIP3    H175080   5.146   5.903  11.440  0.5755 -0.9585  0.3915
17863TIP3    H275081   5.166   5.966  11.576  0.5555 -1.5965  0.6951
17864TIP3   OH275082   2.327   6.689   4.675 -0.0087  0.4445 -0.0168
17864TIP3    H175083   2.290   6.776   4.662  0.2310  0.5881  0.2292
17864TIP3    H275084   2.393   6.701   4.744  0.3994  0.1738 -0.3540
17865TIP3   OH275085   3.854   1.142  12.403  0.1270  0.8686 -0.3614
17865TIP3    H175086   3.844   1.055  12.441 -1.7930  0.4038 -1.7284
17865TIP3    H275087   3.946   1.149  12.380  0.5859 -0.2254  1.0350
17866TIP3   OH275088   6.234   4.696   4.366 -0.3232  0.2107  0.1143
17866TIP3    H175089   6.185   4.775   4.342 -0.2940  0.1608 -0.1118
17866TIP3    H275090   6.270   4.715   4.453  0.3728  0.7766 -0.2829
17867TIP3   OH275091   4.943   3.406   6.456 -0.2671 -0.2794  0.4201
17867TIP3    H175092   5.004   3.468   6.495  1.1250 -0.5205 -1.2406
17867TIP3    H275093   4.869   3.459   6.428  0.5802  0.5538 -0.3203
17868TIP3   OH275094   1.140   3.712  12.584 -0.2232 -0.1239  0.3168
17868TIP3    H175095   1.126   3.653  12.659  0.4697 -0.5976  0.0795
17868TIP3    H275096   1.190   3.660  12.522  2.4600  1.4037  1.0372
17869TIP3   OH275097   5.813   3.043  14.934 -0.0535  0.1182 -0.0648
17869TIP3    H175098   5.849   3.073  14.850  1.1778 -1.7006 -0.2321
17869TIP3    H275099   5.875   3.075  14.999 -1.1087  1.6955  0.2381
17870TIP3   OH275100   6.404   6.074  13.865  0.4126  0.0041 -0.7056
17870TIP3    H175101   6.317   6.106  13.889  1.1766  4.0924 -2.5857
17870TIP3    H275102   6.388   6.004  13.803 -1.4829 -0.4249  0.1937
17871TIP3   OH275103   3.546   3.366   3.737  0.1365  0.1026 -0.1481
17871TIP3    H175104   3.607   3.318   3.680  0.3135  0.9796 -0.7205
17871TIP3    H275105   3.486   3.299   3.770 -2.0199 -0.1395 -3.9218
17872TIP3   OH275106   2.468   0.157   0.228 -0.0479  0.2232 -0.1784
17872TIP3    H175107   2.531   0.106   0.178 -2.3011 -0.8072 -2.1688
17872TIP3    H275108   2.383   0.122   0.202 -1.5208  2.2615  1.5481
17873TIP3   OH275109   5.571   2.912   2.567 -0.0692 -0.2445 -0.6436
17873TIP3    H175110   5.650   2.927   2.619 -0.4881  0.4125 -0.1815
17873TIP3    H275111   5.524   2.996   2.570 -2.4329 -1.4716  1.9179
17874TIP3   OH275112   4.843   1.133   0.153  0.1680 -0.3452  0.3019
17874TIP3    H175113   4.777   1.197   0.179 -1.0645 -0.4778 -2.2374
17874TIP3    H275114   4.904   1.130   0.227 -1.7463  1.0025  2.0277
17875TIP3   OH275115   0.883   4.651  13.938  0.7223  0.4440 -0.1159
17875TIP3    H175116   0.788   4.649  13.949  0.7198  1.0586  0.0364
17875TIP3    H275117   0.918   4.655  14.027  0.8981  0.1296 -0.1670
17876TIP3   OH275118   3.834   6.011  13.261  0.0335 -0.0909  0.1139
17876TIP3    H175119   3.916   5.985  13.219  0.2248  2.9726 -1.6597
17876TIP3    H275120   3.770   6.012  13.191 -0.5980  1.2990  0.6925
17877TIP3   OH275121   2.748   3.822  15.474 -0.2396  0.1983  0.3695
17877TIP3    H175122   2.809   3.865  15.414 -1.2584  2.8609  1.1094
17877TIP3    H275123   2.689   3.774  15.418  2.4051 -2.5076 -0.3819
17878TIP3   OH275124   3.888   1.782  12.436 -0.2873 -0.2574 -0.1161
17878TIP3    H175125   3.804   1.757  12.476  0.0531 -0.5919  0.4121
17878TIP3    H275126   3.933   1.699  12.422  0.4937 -0.0163  0.8300
17879TIP3   OH275127   0.249   5.108   1.974  0.0995  0.3544 -0.4131
17879TIP3    H175128   0.249   5.197   1.939  0.9814  0.2493 -0.7109
17879TIP3    H275129   0.314   5.061   1.921  1.4057  0.1562  1.2568
17880TIP3   OH275130   3.146   2.439   5.249 -0.3904  0.4227 -0.5358
17880TIP3    H175131   3.075   2.488   5.291 -0.7086 -0.6808  0.2863
17880TIP3    H275132   3.109   2.351   5.236  0.5081  0.1018 -0.9940
17881TIP3   OH275133   1.770   2.362   0.332 -0.0719 -0.0037 -0.0631
17881TIP3    H175134   1.808   2.316   0.407  0.0737 -1.4114 -0.9636
17881TIP3    H275135   1.738   2.292   0.274  1.1623  0.9580 -2.0172
17882TIP3   OH275136   5.987   3.513   2.579  0.2341  0.1017  0.1585
17882TIP3    H175137   6.043   3.550   2.647 -0.7129 -0.2125  1.1419
17882TIP3    H275138   5.980   3.420   2.600  1.8194 -0.5147 -1.7547
17883TIP3   OH275139   6.599   1.636   3.345 -0.7479  0.2456  0.2535
17883TIP3    H175140   6.529   1.647   3.409  0.3074 -0.1639  1.5351
17883TIP3    H275141   6.634   1.724   3.333  0.2996  0.0864  1.7768
17884TIP3   OH275142   4.856   4.051  16.240 -0.1285 -0.6943 -0.1451
17884TIP3    H175143   4.861   4.125  16.301  0.2116 -0.0406 -0.9424
17884TIP3    H275144   4.824   3.978  16.292 -2.3499  0.4929  0.2334
17885TIP3   OH275145   6.067   4.060  11.450 -0.1010 -0.1677 -0.2889
17885TIP3    H175146   6.020   3.977  11.443 -0.7067  0.1147  0.3015
17885TIP3    H275147   6.017   4.110  11.515 -0.5538  1.2011 -1.6426
17886TIP3   OH275148   0.723   6.149  13.205 -0.3062  0.1521 -0.0861
17886TIP3    H175149   0.646   6.097  13.181  0.0118  0.0683 -0.9902
17886TIP3    H275150   0.690   6.215  13.266 -0.9089 -0.4690  0.2812
17887TIP3   OH275151   2.318   6.115  12.576  0.3000 -0.2356  0.4577
17887TIP3    H175152   2.348   6.024  12.581  1.9151  0.3059  1.2041
17887TIP3    H275153   2.304   6.141  12.668  0.3261  0.4291  0.2775
17888TIP3   OH275154   2.053   2.600   5.081 -0.0649  0.0091  0.0787
17888TIP3    H175155   2.140   2.571   5.108 -0.0353 -2.0436 -1.9203
17888TIP3    H275156   1.994   2.536   5.120 -0.8881  1.9742  2.3036
17889TIP3   OH275157   5.774   3.807   6.106  0.1265 -0.2821  0.4156
17889TIP3    H175158   5.776   3.725   6.154 -0.0732 -0.0361  0.8563
17889TIP3    H275159   5.746   3.783   6.018  0.9851 -0.8052  0.2707
17890TIP3   OH275160   2.212   6.474  17.005 -0.5116  0.1314 -0.0789
17890TIP3    H175161   2.190   6.555  17.052 -0.6974  0.7676 -1.2219
17890TIP3    H275162   2.129   6.428  16.996 -0.6419  0.4582 -0.5909
17891TIP3   OH275163   5.986   6.401  13.944  0.0721 -0.1827 -0.0995
17891TIP3    H175164   5.907   6.455  13.950  1.3457  1.7636 -0.0648
17891TIP3    H275165   6.036   6.440  13.872  2.4220  0.6453  1.8468
17892TIP3   OH275166   6.471   4.190   6.100 -0.3330 -0.2125 -0.1659
17892TIP3    H175167   6.514   4.122   6.152  0.2049  0.6706  0.5845
17892TIP3    H275168   6.391   4.149   6.068 -0.6756 -0.8138  1.3535
17893TIP3   OH275169   6.238   6.630  16.278  0.5510  0.4811  0.0909
17893TIP3    H175170   6.202   6.544  16.258 -1.3112  0.8709  1.5171
17893TIP3    H275171   6.332   6.614  16.291  0.5570 -0.9799 -1.4484
17894TIP3   OH275172   6.056   1.733  16.537 -0.2555 -0.0150  0.8027
17894TIP3    H175173   6.009   1.809  16.501  0.1872 -0.8429 -1.6760
17894TIP3    H275174   6.148   1.759  16.534  0.1164 -1.2951 -2.0453
17895TIP3   OH275175   2.026   0.269  15.576  0.5038 -0.9727  0.3005
17895TIP3    H175176   1.943   0.271  15.528  0.1147  0.6596  0.9638
17895TIP3    H275177   2.010   0.212  15.651  0.4955 -1.9140 -0.3931
17896TIP3   OH275178   5.784   1.893  11.634  0.0684 -0.1922 -0.2905
17896TIP3    H175179   5.750   1.941  11.558  0.8540  0.2292 -0.3957
17896TIP3    H275180   5.759   1.947  11.709  0.8798  0.3665 -0.4028
17897TIP3   OH275181   3.097   5.120   1.565 -0.0972 -0.3834 -0.4230
17897TIP3    H175182   3.075   5.037   1.608 -0.9378 -0.1546 -0.3879
17897TIP3    H275183   3.069   5.107   1.474  0.1491 -0.2819 -0.5125
17898TIP3   OH275184   5.177   4.802   1.792 -0.0764 -0.2092 -0.4697
17898TIP3    H175185   5.225   4.823   1.712  2.7251  1.1750  1.4076
17898TIP3    H275186   5.178   4.883   1.843 -1.5901 -1.0845  1.0677
17899TIP3   OH275187   0.795   4.902   6.137  0.5673  0.0805 -0.3941
17899TIP3    H175188   0.788   4.822   6.188  0.6101  0.5497  0.3717
17899TIP3    H275189   0.705   4.925   6.115  0.6248 -0.7415 -1.5286
17900TIP3   OH275190   5.772   6.574  14.930  0.0942 -0.0680 -0.3049
17900TIP3    H175191   5.681   6.572  14.901  0.2940  0.8569 -1.0703
17900TIP3    H275192   5.823   6.576  14.849  0.7914 -0.3881  0.1140
17901TIP3   OH275193   0.901   5.523  13.724 -0.5804 -0.8446 -0.0323
17901TIP3    H175194   0.852   5.594  13.765 -1.3768 -1.3178 -0.1411
17901TIP3    H275195   0.871   5.521  13.633 -0.1483 -0.9569 -0.1744
17902TIP3   OH275196   2.512   5.384   1.172  0.2528 -0.0695  0.3308
17902TIP3    H175197   2.547   5.300   1.204 -0.3086 -0.9635 -1.2757
17902TIP3    H275198   2.418   5.378   1.189  0.2826  0.4735  0.6943
17903TIP3   OH275199   4.292   1.677  14.856 -0.1456 -0.1218  0.1653
17903TIP3    H175200   4.272   1.768  14.875  2.0552  0.4495  0.0764
17903TIP3    H275201   4.326   1.642  14.938 -0.2301 -0.6215 -0.0082
17904TIP3   OH275202   2.108   2.277   3.292 -0.0039 -0.4826 -0.3899
17904TIP3    H175203   2.065   2.206   3.338  2.2131 -0.5852  1.7325
17904TIP3    H275204   2.179   2.305   3.350  1.5925  0.9242 -2.7951
17905TIP3   OH275205   4.295   2.584  13.249 -0.0247 -0.0256  0.2501
17905TIP3    H175206   4.231   2.589  13.321 -1.1660  1.2942 -0.7967
17905TIP3    H275207   4.380   2.579  13.293 -0.8256 -1.9405  1.6867
17906TIP3   OH275208   1.332   1.599   0.225  0.2307  0.3636  0.8875
17906TIP3    H175209   1.359   1.649   0.302  1.0131 -0.0061  0.8594
17906TIP3    H275210   1.397   1.529   0.217 -0.1648  0.0562  0.2222
17907TIP3   OH275211   5.411   2.099   1.203 -0.3174  0.0364 -0.1498
17907TIP3    H175212   5.463   2.046   1.141  0.8821 -1.8430  2.2750
17907TIP3    H275213   5.475   2.159   1.241 -1.3076  2.0609 -1.5199
17908TIP3   OH275214   5.713   4.550   4.721 -0.1967 -0.1511 -0.2597
17908TIP3    H175215   5.675   4.576   4.637  0.0079  0.4770 -0.1673
17908TIP3    H275216   5.795   4.600   4.727 -0.2817 -0.0702  0.3775
17909TIP3   OH275217   6.093   2.623  15.459  0.2849 -0.3271  0.6424
17909TIP3    H175218   6.166   2.563  15.474 -0.2582 -1.1766 -0.0416
17909TIP3    H275219   6.016   2.567  15.449  0.0487  0.3033 -1.9042
17910TIP3   OH275220   1.128   4.334  13.105  0.0437 -0.0492 -0.1434
17910TIP3    H175221   1.219   4.365  13.112 -0.7011  1.9382  1.8676
17910TIP3    H275222   1.107   4.345  13.012  1.1980  1.5663 -0.2612
17911TIP3   OH275223   3.034   0.426   4.083 -0.1204 -0.0815  0.2618
17911TIP3    H175224   3.078   0.352   4.125  1.5493  0.5567 -0.3045
17911TIP3    H275225   3.103   0.488   4.064 -1.2073  0.7968 -1.0488
17912TIP3   OH275226   3.055   1.471  17.129 -0.3778  0.4827 -0.2658
17912TIP3    H175227   3.119   1.520  17.181 -1.3936  2.1484 -0.5120
17912TIP3    H275228   2.982   1.456  17.189 -0.9312  1.1016 -0.7731
17913TIP3   OH275229   1.827   3.407   2.152  0.0772  0.3488  0.4580
17913TIP3    H175230   1.849   3.363   2.071 -0.4718 -0.4639  0.7367
17913TIP3    H275231   1.896   3.382   2.213 -0.0170  0.1954  0.5024
17914TIP3   OH275232   2.044   5.621   2.135 -0.3115 -0.7556  0.0724
17914TIP3    H175233   1.973   5.591   2.192 -2.5621 -0.0548 -2.2087
17914TIP3    H275234   2.069   5.544   2.084 -0.6255 -0.6174 -0.2964
17915TIP3   OH275235   6.609   2.117   1.613  0.1506  0.1384  0.4689
17915TIP3    H175236   6.580   2.200   1.576  1.1587 -0.3637 -1.6146
17915TIP3    H275237   6.700   2.132   1.638  1.2659 -0.9709 -2.4689
17916TIP3   OH275238   5.268   1.119  12.167 -0.0676  0.1753  0.2158
17916TIP3    H175239   5.346   1.072  12.197 -0.4162 -0.4479  0.1456
17916TIP3    H275240   5.205   1.110  12.238 -0.3418  0.0278 -0.0425
17917TIP3   OH275241   1.580   5.945   4.314 -0.0189  0.2549  0.5651
17917TIP3    H175242   1.624   6.012   4.367 -1.9513  0.6468  1.7459
17917TIP3    H275243   1.586   5.865   4.366 -0.8553  0.3593  0.8342
17918TIP3   OH275244   2.838   1.125  13.693 -0.3668 -0.0700  0.0565
17918TIP3    H175245   2.921   1.105  13.737 -1.4402  0.7005  2.6005
17918TIP3    H275246   2.794   1.186  13.752 -0.9469  2.9961 -3.2639
17919TIP3   OH275247   2.614   4.713  10.946  0.1424 -0.2916 -0.1187
17919TIP3    H175248   2.598   4.794  10.993  1.3979 -0.0119 -0.1164
17919TIP3    H275249   2.529   4.687  10.912 -0.5598  0.1726  1.2276
17920TIP3   OH275250   4.163   5.273  13.665  0.0852  0.3192 -0.1526
17920TIP3    H175251   4.075   5.250  13.695 -0.2116  1.4794 -0.0965
17920TIP3    H275252   4.156   5.278  13.570  0.7312 -2.1199 -0.4003
17921TIP3   OH275253   6.803   4.978  10.941  0.2351  0.5986 -0.4064
17921TIP3    H175254   6.835   5.044  10.880  2.0833  0.8927  0.7987
17921TIP3    H275255   6.882   4.945  10.984 -0.6910 -1.8845 -0.4309
17922TIP3   OH275256   6.358   3.052  13.565  0.1695 -0.6752 -0.1420
17922TIP3    H175257   6.329   2.962  13.574 -0.4218 -0.3113  2.5439
17922TIP3    H275258   6.292   3.094  13.510 -0.3684 -1.5387 -0.1675
17923TIP3   OH275259   3.209   4.215  16.561 -0.4823 -0.1113  0.0954
17923TIP3    H175260   3.231   4.267  16.484 -0.6258 -1.6585 -1.0231
17923TIP3    H275261   3.113   4.216  16.563 -0.5566 -1.7427 -0.9750
17924TIP3   OH275262   5.978   3.589   1.369  0.8683 -0.5227 -0.6085
17924TIP3    H175263   5.937   3.571   1.284 -1.3990 -0.7894  0.4764
17924TIP3    H275264   6.029   3.511   1.388 -0.0716 -1.2277 -0.9243
17925TIP3   OH275265   6.036   2.163   4.236 -1.1898 -0.1436  0.3141
17925TIP3    H175266   6.063   2.252   4.259 -1.7306 -0.0039  0.4193
17925TIP3    H275267   6.112   2.108   4.258 -0.7855  0.3111  0.0701
17926TIP3   OH275268   6.685   5.552   3.178 -0.2203  0.0095  0.4272
17926TIP3    H175269   6.746   5.624   3.164 -0.1115 -0.1238  0.2183
17926TIP3    H275270   6.623   5.559   3.106 -0.0344 -0.2887  0.2399
17927TIP3   OH275271   3.432   1.912   5.753  0.2088  0.1114  0.3799
17927TIP3    H175272   3.516   1.918   5.706  0.2517 -0.9598  0.2992
17927TIP3    H275273   3.451   1.946   5.840  0.4262  1.0002 -0.0053
17928TIP3   OH275274   4.933   4.792  11.259  0.2926 -0.0267 -0.4748
17928TIP3    H175275   4.882   4.868  11.285  3.5278  2.1244  0.1765
17928TIP3    H275276   4.994   4.825  11.193  0.0947 -2.7311 -2.1803
17929TIP3   OH275277   2.775   1.576  15.341  0.2475  0.0898 -0.2260
17929TIP3    H175278   2.726   1.494  15.327 -1.0867  1.0225 -1.2516
17929TIP3    H275279   2.794   1.576  15.435 -0.9471 -0.7400  0.0485
17930TIP3   OH275280   3.514   3.355  13.233  0.1482 -0.1353  0.0304
17930TIP3    H175281   3.599   3.312  13.224  0.0629 -0.3189  0.0946
17930TIP3    H275282   3.480   3.362  13.144 -0.6244 -1.8038  0.1631
17931TIP3   OH275283   4.420   0.800  10.811 -0.2135  0.1809  0.3946
17931TIP3    H175284   4.429   0.749  10.891  0.5233 -3.2347 -1.6361
17931TIP3    H275285   4.510   0.825  10.788 -0.2411 -0.1152 -0.0585
17932TIP3   OH275286   2.166   3.045  13.400  0.7525 -0.3607 -0.0789
17932TIP3    H175287   2.193   2.965  13.355 -0.6529 -1.0616  0.2762
17932TIP3    H275288   2.237   3.108  13.382  1.3617 -1.3469 -1.2508
17933TIP3   OH275289   1.019   0.435  16.665  0.1210 -1.0821  0.3562
17933TIP3    H175290   1.054   0.485  16.591 -2.3710 -1.1200 -0.9460
17933TIP3    H275291   1.094   0.422  16.723  1.2737  2.6453 -0.0576
17934TIP3   OH275292   5.775   5.799   2.396  0.2953  0.4192  0.1931
17934TIP3    H175293   5.754   5.706   2.383 -1.3846  0.5616  1.5216
17934TIP3    H275294   5.864   5.798   2.430  0.8642 -0.5817 -1.2143
17935TIP3   OH275295   5.671   0.729   2.293  0.1787  0.4762 -0.4124
17935TIP3    H175296   5.610   0.693   2.357  1.0832  0.8617  0.7110
17935TIP3    H275297   5.639   0.818   2.276  0.5759  0.7835  0.4001
17936TIP3   OH275298   6.778   6.154  16.597  0.1695 -0.1399 -0.4751
17936TIP3    H175299   6.696   6.128  16.639 -1.0586  2.8029 -0.8352
17936TIP3    H275300   6.840   6.163  16.669 -0.1120 -1.2492 -0.0669
17937TIP3   OH275301   0.670   1.003   4.018  0.0870  0.0390  0.0332
17937TIP3    H175302   0.699   1.057   4.091 -0.0717  1.4401 -0.8978
17937TIP3    H275303   0.587   0.965   4.047  0.2989  0.1262  0.7762
17938TIP3   OH275304   3.841   5.693  16.016  0.2657  0.2014 -0.1080
17938TIP3    H175305   3.928   5.684  15.976  0.2941 -0.4208  0.0848
17938TIP3    H275306   3.781   5.659  15.950  0.3063 -0.7618  0.3428
17939TIP3   OH275307   1.450   0.936   1.695 -0.4614  0.5207 -0.0597
17939TIP3    H175308   1.359   0.907   1.706 -0.0019 -0.4938  1.3448
17939TIP3    H275309   1.466   0.994   1.770 -0.0525  1.0204 -0.5202
17940TIP3   OH275310   0.745   5.474   5.400 -0.3061  0.2716 -0.4685
17940TIP3    H175311   0.790   5.446   5.480 -0.6942 -0.2944 -0.4477
17940TIP3    H275312   0.815   5.477   5.334  0.3837  2.4850  0.2686
17941TIP3   OH275313   5.489   5.418   4.118  0.4648  0.5107 -0.2334
17941TIP3    H175314   5.447   5.434   4.203  0.1456 -0.4121 -0.2093
17941TIP3    H275315   5.583   5.417   4.138  0.4330  1.1627 -0.0416
17942TIP3   OH275316   4.377   2.588  15.649  0.4695  0.2889  0.0999
17942TIP3    H175317   4.407   2.506  15.611 -0.6797  0.8375 -2.1263
17942TIP3    H275318   4.424   2.594  15.732  2.5471 -1.3474 -0.8654
17943TIP3   OH275319   2.353   1.407  11.584 -0.2953  0.5462  0.3309
17943TIP3    H175320   2.361   1.362  11.500 -0.1222  2.0884 -0.5092
17943TIP3    H275321   2.280   1.363  11.627 -1.1122  0.4400 -1.0872
17944TIP3   OH275322   2.066   5.265  11.821 -0.2188  0.5874  0.2663
17944TIP3    H175323   2.144   5.213  11.841  0.3175  1.6272  0.9732
17944TIP3    H275324   2.038   5.234  11.734  0.7182 -0.1032  0.1967
17945TIP3   OH275325   1.301   2.801   6.200  0.4201 -0.4434  0.1776
17945TIP3    H175326   1.224   2.805   6.257  0.8792  1.0174  0.7288
17945TIP3    H275327   1.310   2.890   6.166  2.5321 -0.2871  1.0411
17946TIP3   OH275328   6.193   6.810   0.167 -0.0725 -0.9261  0.2389
17946TIP3    H175329   6.258   6.781   0.103  0.7007  2.2793 -0.5986
17946TIP3    H275330   6.244   6.852   0.236 -1.0967  2.6730 -0.9777
17947TIP3   OH275331   1.194   2.653   2.845 -0.2506 -0.2851 -0.5360
17947TIP3    H175332   1.106   2.619   2.830 -0.4529 -0.1437  0.2455
17947TIP3    H275333   1.248   2.576   2.860 -0.2640 -0.3673 -0.9156
17948TIP3   OH275334   1.356   1.601  10.420  0.6106  0.4546 -0.6738
17948TIP3    H175335   1.321   1.686  10.393 -0.0533  0.1738 -0.7140
17948TIP3    H275336   1.447   1.602  10.391  0.4055  0.8701 -1.3318
17949TIP3   OH275337   5.573   1.354  12.616 -0.2630  0.1000 -0.1623
17949TIP3    H175338   5.603   1.441  12.589  0.8247  0.0674  0.8588
17949TIP3    H275339   5.536   1.368  12.703 -3.4412  0.1527 -1.4136
17950TIP3   OH275340   0.673   1.380  12.455  0.1359 -0.2202 -0.2458
17950TIP3    H175341   0.690   1.333  12.373 -0.1365  0.3914 -0.6594
17950TIP3    H275342   0.739   1.347  12.515 -0.2598 -1.3892 -0.4187
17951TIP3   OH275343   5.384   3.082  13.770 -0.4404 -0.5138 -0.1960
17951TIP3    H175344   5.318   3.073  13.838  0.6443  2.5158  1.4498
17951TIP3    H275345   5.467   3.084  13.817  0.3551  1.6285 -1.5410
17952TIP3   OH275346   5.132   0.024   2.315 -0.1655  0.5080 -0.0565
17952TIP3    H175347   5.126   0.119   2.306  2.7426  0.6236 -2.0327
17952TIP3    H275348   5.209   0.009   2.369 -1.4954 -0.8048  1.6245
17953TIP3   OH275349   4.695   3.602   5.858 -0.1507  0.0583 -0.3846
17953TIP3    H175350   4.655   3.673   5.909  2.2850  0.6245  0.8487
17953TIP3    H275351   4.644   3.524   5.883 -1.6119  1.0030 -0.2678
17954TIP3   OH275352   0.115   1.782   4.404  0.7155 -0.0924 -0.1445
17954TIP3    H175353   0.180   1.793   4.334  2.0766  2.4142  1.3508
17954TIP3    H275354   0.095   1.872   4.431 -0.8875 -0.9440  1.7038
17955TIP3   OH275355   0.288   0.630   4.101  0.3519  0.2026  0.2265
17955TIP3    H175356   0.354   0.561   4.097 -0.0175 -0.1243 -2.4378
17955TIP3    H275357   0.216   0.591   4.150 -0.2688 -1.8354 -2.0421
17956TIP3   OH275358   1.870   1.567   4.694  0.0038  0.4412 -0.5204
17956TIP3    H175359   1.845   1.479   4.664 -0.9826  0.3147  0.6216
17956TIP3    H275360   1.857   1.565   4.789  1.7438  1.2596 -0.2293
17957TIP3   OH275361   1.305   1.081   0.250  0.3308  0.2599  0.1190
17957TIP3    H175362   1.304   1.163   0.300 -1.9317  0.4229 -0.0667
17957TIP3    H275363   1.307   1.012   0.316 -0.4786  0.4799  0.3823
17958TIP3   OH275364   6.204   1.972  12.886  0.1592 -0.3306 -0.1265
17958TIP3    H175365   6.197   1.913  12.811  0.2089 -1.5232  0.7911
17958TIP3    H275366   6.149   1.933  12.954  1.9070 -0.5271  1.2477
17959TIP3   OH275367   5.705   1.064  13.359 -0.0744  0.2107  0.2527
17959TIP3    H175368   5.742   1.027  13.439  2.2452  2.3717  0.3042
17959TIP3    H275369   5.754   1.022  13.288 -0.7061 -0.2072  0.0557
17960TIP3   OH275370   4.898   3.733  16.190  0.3587 -0.0056 -0.0945
17960TIP3    H175371   4.952   3.683  16.250  2.2792  1.7962 -0.2211
17960TIP3    H275372   4.854   3.667  16.136  1.7383 -1.5517  0.6230
17961TIP3   OH275373   6.040   3.150   0.712 -0.4510  0.4651 -0.1025
17961TIP3    H175374   6.109   3.190   0.659 -0.8748 -0.5687 -1.4699
17961TIP3    H275375   5.978   3.114   0.649 -0.4981 -1.6417  1.0532
17962TIP3   OH275376   3.845   1.322   4.470  0.1955  0.2877  0.1393
17962TIP3    H175377   3.890   1.238   4.476  0.9440  0.7085  0.6593
17962TIP3    H275378   3.817   1.340   4.560 -1.1749 -0.0454 -0.2055
17963TIP3   OH275379   4.094   3.231  15.348  0.6522  0.4076 -0.7387
17963TIP3    H175380   4.066   3.314  15.310 -0.7261  0.7262  0.8504
17963TIP3    H275381   4.018   3.174  15.341  0.5177  0.3111  0.9432
17964TIP3   OH275382   4.743   6.145   2.075  0.0776 -0.1571 -0.1704
17964TIP3    H175383   4.689   6.224   2.078 -0.7258 -0.7229  0.8245
17964TIP3    H275384   4.806   6.162   2.005 -1.3002  0.5802 -1.2868
17965TIP3   OH275385   1.304   4.488  12.929 -0.0513  0.2675  0.2309
17965TIP3    H175386   1.316   4.557  12.995 -0.7785  0.7537 -0.1344
17965TIP3    H275387   1.217   4.505  12.892 -0.7217 -1.4827  0.8793
17966TIP3   OH275388   3.879   2.419  11.649 -0.4245 -0.2704 -0.3319
17966TIP3    H175389   3.945   2.398  11.715 -0.8235  0.0135  0.1683
17966TIP3    H275390   3.922   2.403  11.565  0.0284 -0.8290  0.0001
17967TIP3   OH275391   2.941   3.788   3.180 -0.2590 -0.4250  0.5083
17967TIP3    H175392   2.935   3.701   3.141 -1.9566 -0.0268 -0.2063
17967TIP3    H275393   3.019   3.784   3.236  0.4570 -1.9722 -0.5329
17968TIP3   OH275394   1.117   5.925   3.441 -0.1367 -0.7042 -0.1880
17968TIP3    H175395   1.206   5.952   3.462 -0.2392 -0.0225 -0.6192
17968TIP3    H275396   1.101   5.958   3.353 -0.5922 -1.3842 -0.3730
17969TIP3   OH275397   1.957   0.910  16.558  0.4363 -0.1557  0.1621
17969TIP3    H175398   1.863   0.917  16.547  0.0362 -0.8159  2.5707
17969TIP3    H275399   1.994   0.959  16.484 -1.7748  2.6640  0.7562
17970TIP3   OH275400   3.978   2.587  11.021  0.1400 -0.6152 -0.2325
17970TIP3    H175401   3.938   2.608  10.936 -0.6525  0.0337  0.2841
17970TIP3    H275402   4.013   2.499  11.010 -0.6237 -0.8371 -1.0068
17971TIP3   OH275403   0.956   5.380   4.735 -0.0239  0.1738 -0.1002
17971TIP3    H175404   0.902   5.419   4.666  0.7195 -0.3212 -0.9818
17971TIP3    H275405   1.022   5.446   4.755  0.4811 -0.1395 -0.7129
17972TIP3   OH275406   4.514   2.434   1.802 -0.4629 -0.4874 -0.5319
17972TIP3    H175407   4.571   2.506   1.776 -1.8639 -0.0093 -2.5666
17972TIP3    H275408   4.491   2.391   1.720 -3.5139 -0.2152  0.0583
17973TIP3   OH275409   1.757   0.382   0.225 -0.3916  0.1017  0.3645
17973TIP3    H175410   1.821   0.367   0.294 -0.3427  0.8623  0.4953
17973TIP3    H275411   1.674   0.354   0.264 -0.4246  0.8786  0.8811
17974TIP3   OH275412   1.025   0.125  11.563  0.0349  0.2048  0.4188
17974TIP3    H175413   1.064   0.040  11.587  1.4345  0.4141 -0.9205
17974TIP3    H275414   0.941   0.102  11.523  0.8316 -0.6623 -0.8387
17975TIP3   OH275415   5.911   5.067  12.153 -0.5374  1.1799  0.1569
17975TIP3    H175416   5.864   5.094  12.231  0.3864 -0.0465  1.1818
17975TIP3    H275417   5.993   5.030  12.185 -0.7191 -0.6513 -1.2646
17976TIP3   OH275418   0.492   6.159   6.625 -0.2084 -0.3946  0.3444
17976TIP3    H175419   0.445   6.142   6.543  0.0212  0.9124 -0.0930
17976TIP3    H275420   0.578   6.191   6.597  0.6029 -1.8128  1.1292
17977TIP3   OH275421   1.125   5.984   6.371  0.2388 -0.0621  0.4267
17977TIP3    H175422   1.041   5.978   6.417 -0.5870  0.3585 -0.9740
17977TIP3    H275423   1.180   5.918   6.413 -1.0925 -1.0203  0.7428
17978TIP3   OH275424   4.965   0.634  15.775 -0.3532 -0.6322 -0.0421
17978TIP3    H175425   4.927   0.646  15.688 -0.4039 -2.8622 -0.3938
17978TIP3    H275426   4.893   0.602  15.829  0.3602 -2.3998 -0.0572
17979TIP3   OH275427   2.528   1.297   3.612 -0.4160  0.5012 -0.7002
17979TIP3    H175428   2.621   1.313   3.625  0.0248 -0.3314 -2.5705
17979TIP3    H275429   2.500   1.364   3.549 -1.8802  2.7467  2.0447
17980TIP3   OH275430   6.564   6.610  12.871  0.1237 -0.2952 -0.1902
17980TIP3    H175431   6.648   6.620  12.826 -0.8170  1.1267 -1.7081
17980TIP3    H275432   6.579   6.648  12.958  0.8666  0.5558 -0.6781
17981TIP3   OH275433   1.209   4.807   1.938 -0.2275  0.6293 -0.0187
17981TIP3    H175434   1.244   4.748   1.871  0.1686  1.2507 -0.3734
17981TIP3    H275435   1.212   4.894   1.897  1.4180  1.2495  1.3023
17982TIP3   OH275436   6.383   2.086   5.209  0.3512 -0.4461  0.4949
17982TIP3    H175437   6.297   2.083   5.251  0.6603  2.1033  1.4735
17982TIP3    H275438   6.368   2.055   5.120 -1.9804  1.6414  0.0762
17983TIP3   OH275439   4.561   3.644   1.110  0.1009 -0.4403  0.3845
17983TIP3    H175440   4.607   3.616   1.032 -0.2858 -0.9618  0.3382
17983TIP3    H275441   4.470   3.616   1.096  0.0418 -0.6008  1.0464
17984TIP3   OH275442   1.313   4.458  16.989  0.1534  0.5736  0.0218
17984TIP3    H175443   1.387   4.399  16.973  1.2474  1.8359  0.2998
17984TIP3    H275444   1.314   4.472  17.084 -0.9587 -0.0240  0.1397
17985TIP3   OH275445   4.974   5.403  15.861  0.1569 -0.7081  0.5735
17985TIP3    H175446   5.067   5.418  15.844 -0.2749  0.3373 -1.0939
17985TIP3    H275447   4.947   5.477  15.915  0.3055 -1.1283  1.2485
17986TIP3   OH275448   2.533   6.103  12.051 -0.0825  0.3752  0.2376
17986TIP3    H175449   2.534   6.164  12.125 -0.6863 -0.2711  0.7938
17986TIP3    H275450   2.487   6.026  12.084  2.4607 -1.2573  0.2332
17987TIP3   OH275451   1.313   5.257  14.680 -0.2030 -0.1959  0.0433
17987TIP3    H175452   1.227   5.285  14.710 -0.4122 -1.4912  0.7112
17987TIP3    H275453   1.298   5.223  14.592  0.0336  1.5739 -0.7276
17988TIP3   OH275454   0.204   5.524   5.806  0.1132 -0.2660 -0.2242
17988TIP3    H175455   0.170   5.502   5.719  0.2278  2.0186 -0.9240
17988TIP3    H275456   0.125   5.538   5.859 -0.0611  1.2006 -0.8024
17989TIP3   OH275457   1.174   6.241  16.872  0.4576 -0.4882  0.2292
17989TIP3    H175458   1.235   6.284  16.812 -0.4323  2.3449  1.2155
17989TIP3    H275459   1.107   6.204  16.815  1.7812 -1.5451 -0.7162
17990TIP3   OH275460   2.691   2.916  12.415  0.5545  0.2856  0.1636
17990TIP3    H175461   2.727   2.836  12.379  1.5115  0.8831 -0.2374
17990TIP3    H275462   2.689   2.901  12.509 -0.1306 -0.5418  0.0319
17991TIP3   OH275463   0.859   6.703   0.185 -0.1151 -0.1429 -0.0945
17991TIP3    H175464   0.860   6.610   0.207 -0.8340 -0.3769 -0.9897
17991TIP3    H275465   0.837   6.747   0.267  1.2820 -0.6609  0.5976
17992TIP3   OH275466   0.800   0.591  13.848 -0.0217 -0.1545 -0.1475
17992TIP3    H175467   0.732   0.529  13.822 -0.0306 -1.7687  3.2235
17992TIP3    H275468   0.753   0.661  13.894  0.3271  0.5770 -0.8658
17993TIP3   OH275469   1.885   0.246  17.051 -0.3115  0.5831 -0.3200
17993TIP3    H175470   1.837   0.267  16.972  0.7579  1.2099 -0.8201
17993TIP3    H275471   1.976   0.236  17.023  0.3297  2.1592  1.0060
17994TIP3   OH275472   5.169   4.974   4.864  0.5532 -0.0318  0.0228
17994TIP3    H175473   5.181   5.039   4.933 -0.1338  2.5445 -2.1660
17994TIP3    H275474   5.076   4.954   4.865  0.1182  1.6820 -1.4829
17995TIP3   OH275475   3.689   3.461   5.219  0.4122 -0.3773 -0.0011
17995TIP3    H175476   3.624   3.530   5.214 -0.5221 -1.1915  0.6360
17995TIP3    H275477   3.710   3.453   5.312  1.2664 -0.2829 -0.1708
17996TIP3   OH275478   3.997   0.770   3.447  0.5711  0.1913 -0.0096
17996TIP3    H175479   3.971   0.850   3.493  0.8510 -0.9854  2.3237
17996TIP3    H275480   4.092   0.767   3.458  0.3372 -1.7982  2.4323
17997TIP3   OH275481   3.971   2.740  13.324  0.8855  0.3729  0.3634
17997TIP3    H175482   3.890   2.709  13.283  0.5932 -0.2469  1.3896
17997TIP3    H275483   3.989   2.823  13.281  0.3791 -0.0741 -0.7535
17998TIP3   OH275484   3.708   0.209  16.040  0.4398  0.0406  0.7667
17998TIP3    H175485   3.640   0.180  16.100 -0.4279  0.2669 -0.0881
17998TIP3    H275486   3.683   0.299  16.017  1.2516  0.2770  0.7620
17999TIP3   OH275487   4.430   0.687  11.755  0.2926  0.2765  0.0848
17999TIP3    H175488   4.470   0.727  11.677  0.0394  1.7497  0.6818
17999TIP3    H275489   4.346   0.731  11.764 -1.6113 -2.7955 -1.1782
18000TIP3   OH275490   4.386   5.029   5.991  0.1540  0.1534 -0.4482
18000TIP3    H175491   4.471   5.066   5.967 -0.4980  2.3755  0.3283
18000TIP3    H275492   4.327   5.104   5.990 -2.5391 -1.7646 -3.8653
18001TIP3   OH275493   5.150   4.302   5.733  0.2022  0.2564  0.1311
18001TIP3    H175494   5.174   4.276   5.822 -3.1293  0.2210  1.1595
18001TIP3    H275495   5.119   4.392   5.741 -1.8000 -0.3121 -0.5647
18002TIP3   OH275496   4.948   6.749   4.792 -0.1108  0.1353 -0.4116
18002TIP3    H175497   4.926   6.676   4.733 -1.3742 -1.4626  1.8872
18002TIP3    H275498   5.041   6.736   4.812 -0.0246 -0.1202 -0.9374
18003TIP3   OH275499   2.900   3.668  10.540  0.0848 -0.4858 -0.0509
18003TIP3    H175500   2.933   3.585  10.574 -1.1328 -0.3933  1.4724
18003TIP3    H275501   2.953   3.734  10.583  0.7794 -0.4300 -0.9526
18004TIP3   OH275502   6.077   0.740   6.521  0.0384  0.3366 -0.1882
18004TIP3    H175503   6.034   0.820   6.493  2.1143  1.1695 -1.2313
18004TIP3    H275504   6.061   0.678   6.450 -0.1051  0.3883 -0.2012
18005TIP3   OH275505   2.699   1.090  12.509  0.0093  0.5110  0.5847
18005TIP3    H175506   2.776   1.033  12.506 -1.7424 -2.0243 -0.4114
18005TIP3    H275507   2.708   1.147  12.433  0.2629 -0.7374 -0.3549
18006TIP3   OH275508   3.239   5.643  16.920  0.4043 -0.6107 -0.6360
18006TIP3    H175509   3.176   5.580  16.885 -1.6199 -0.3497  2.1793
18006TIP3    H275510   3.264   5.606  17.005  1.5026  0.9548 -0.2437
18007TIP3   OH275511   5.026   6.257  12.699 -0.1614  0.2537 -0.5666
18007TIP3    H175512   5.078   6.195  12.750 -0.3754  0.5649  0.0383
18007TIP3    H275513   4.935   6.232  12.717 -0.2387  0.4269 -0.7208
18008TIP3   OH275514   5.906   1.870  12.855 -0.3538 -0.0445 -0.3124
18008TIP3    H175515   5.843   1.798  12.851 -0.7762  0.2692  0.5291
18008TIP3    H275516   5.980   1.835  12.903 -0.7085  0.1752  0.4151
18009TIP3   OH275517   2.292   0.221  15.186 -0.2748  0.9277  0.1289
18009TIP3    H175518   2.348   0.226  15.263  0.9945  0.6007 -0.7442
18009TIP3    H275519   2.213   0.269  15.210  0.4878  1.6318  1.2875
18010TIP3   OH275520   4.855   3.507  12.554  0.0089 -0.0331 -0.4400
18010TIP3    H175521   4.763   3.501  12.580 -0.0606  0.5550 -0.5393
18010TIP3    H275522   4.893   3.572  12.613  0.9858 -2.0358  1.2704
18011TIP3   OH275523   0.709   1.352   3.852  0.2826  0.9121  0.4627
18011TIP3    H175524   0.727   1.357   3.946 -2.8892 -0.7447  1.2775
18011TIP3    H275525   0.744   1.267   3.825 -1.3081  0.1158  0.8305
18012TIP3   OH275526   4.645   3.794   1.608 -0.5386 -0.2644 -0.2054
18012TIP3    H175527   4.562   3.826   1.643 -0.3011 -0.3383  0.4329
18012TIP3    H275528   4.620   3.728   1.543 -0.9693 -0.7830  0.4774
18013TIP3   OH275529   2.890   1.237   1.926 -0.3354  0.0997  0.1135
18013TIP3    H175530   2.880   1.196   1.840 -1.5611 -0.6731  0.6007
18013TIP3    H275531   2.846   1.321   1.919 -0.9109 -0.1971  0.1368
18014TIP3   OH275532   0.368   0.575   4.764  0.0717  0.8608 -0.0365
18014TIP3    H175533   0.328   0.488   4.762  0.3874  0.7211 -1.9160
18014TIP3    H275534   0.410   0.580   4.850  0.6407 -1.1286 -0.1567
18015TIP3   OH275535   3.161   1.854   0.061  0.0682  0.0233  0.1499
18015TIP3    H175536   3.191   1.764   0.073  1.3475  0.5548  1.0384
18015TIP3    H275537   3.119   1.853  -0.025  2.0987 -0.8892 -0.8853
18016TIP3   OH275538   0.206   0.985   3.634 -0.1340 -0.4569  0.1608
18016TIP3    H175539   0.199   0.900   3.592 -2.3032  0.2123 -1.0062
18016TIP3    H275540   0.119   1.025   3.623  0.8183  1.9371  0.5819
18017TIP3   OH275541   4.571   4.769   1.517  0.2909 -0.3238  0.4068
18017TIP3    H175542   4.627   4.846   1.514  0.8282 -0.6519  1.4599
18017TIP3    H275543   4.617   4.704   1.464 -0.1142  0.0318 -0.4007
18018TIP3   OH275544   3.859   2.625  14.313  0.0545  0.3595 -0.3769
18018TIP3    H175545   3.840   2.557  14.377  1.8879  1.3889  1.3636
18018TIP3    H275546   3.785   2.686  14.322 -1.2513 -0.9941 -1.4741
18019TIP3   OH275547   2.235   5.712   3.241 -0.7761  0.1929  0.0259
18019TIP3    H175548   2.252   5.641   3.303 -0.7266  0.9675  0.9259
18019TIP3    H275549   2.274   5.789   3.282 -2.8227  1.2052  0.2039
18020TIP3   OH275550   1.984   1.934   5.712  0.0567  0.3258 -0.1275
18020TIP3    H175551   1.965   2.028   5.717  1.6479  0.6976 -0.4186
18020TIP3    H275552   2.000   1.908   5.802 -1.2009  0.1366  0.0504
18021TIP3   OH275553   6.774   6.558   1.399  0.6862  0.5881  0.6453
18021TIP3    H175554   6.767   6.649   1.370  0.6304  0.1632 -0.7192
18021TIP3    H275555   6.791   6.508   1.319 -0.9913 -0.8124  1.0925
18022TIP3   OH275556   6.263   5.139   6.122 -0.2114  0.2721 -0.0538
18022TIP3    H175557   6.308   5.058   6.099 -1.9272 -0.2222 -1.9395
18022TIP3    H275558   6.332   5.205   6.128  0.9367 -0.8038 -1.0548
18023TIP3   OH275559   4.300   0.485  15.170  0.0376  0.6118  0.4235
18023TIP3    H175560   4.346   0.565  15.194  1.2775  0.2544 -0.6585
18023TIP3    H275561   4.264   0.452  15.253  0.3503  1.7468  1.0336
18024TIP3   OH275562   4.055   2.612  16.449 -0.5549 -0.5736 -0.0237
18024TIP3    H175563   3.999   2.536  16.464 -0.2037 -1.2588 -1.8673
18024TIP3    H275564   4.053   2.625  16.354 -1.8225  2.7177  0.3240
18025TIP3   OH275565   1.642   1.715  15.292 -0.2834 -0.1664  0.4131
18025TIP3    H175566   1.677   1.779  15.230 -1.7139 -0.0834 -0.3512
18025TIP3    H275567   1.551   1.742  15.306 -0.3832 -0.9707  1.5198
18026TIP3   OH275568   0.593   0.694   4.679 -0.4862  0.6901  0.1968
18026TIP3    H175569   0.638   0.658   4.755 -0.6268  1.1835  0.5194
18026TIP3    H275570   0.520   0.634   4.663  0.1696 -0.0184 -0.2208
18027TIP3   OH275571   5.225   5.753  14.802  0.0433 -0.1177 -0.6814
18027TIP3    H175572   5.274   5.813  14.747  0.2126  0.9616  0.5958
18027TIP3    H275573   5.154   5.806  14.839 -0.1834 -0.8636 -0.0189
18028TIP3   OH275574   1.322   2.624  11.357 -0.2001  0.1468  0.0262
18028TIP3    H175575   1.379   2.547  11.364  1.2175  1.0753 -0.7476
18028TIP3    H275576   1.334   2.654  11.267 -0.6963  1.2924  0.3219
18029TIP3   OH275577   4.000   4.529   3.500 -0.6602 -0.3550  0.7294
18029TIP3    H175578   4.028   4.606   3.550 -0.2081  0.9631 -1.4013
18029TIP3    H275579   3.906   4.543   3.486 -0.6051 -0.2358  0.4618
18030TIP3   OH275580   3.279   3.104  13.295  0.5844  0.5039 -0.2187
18030TIP3    H175581   3.248   3.014  13.308 -0.7745  0.8626 -0.7319
18030TIP3    H275582   3.223   3.157  13.351  1.5302  1.0204  0.2538
18031TIP3   OH275583   5.056   5.681   5.248 -0.3776 -0.1553 -0.1164
18031TIP3    H175584   5.098   5.763   5.223 -1.3810  0.1341 -0.9140
18031TIP3    H275585   4.987   5.707   5.309 -0.5000 -0.4370 -0.1342
18032TIP3   OH275586   5.983   2.022  17.151 -0.6185  0.2196  0.1309
18032TIP3    H175587   5.972   2.006  17.057 -0.5187  0.7604  0.0183
18032TIP3    H275588   5.974   2.117  17.159 -1.2875  0.1149  0.7602
18033TIP3   OH275589   4.879   5.950   3.212 -0.2527  0.2642 -0.0749
18033TIP3    H175590   4.818   5.909   3.151 -1.6162 -0.9944  2.0248
18033TIP3    H275591   4.840   6.035   3.232 -0.4623  0.1356  0.0538
18034TIP3   OH275592   1.618   2.132   5.192  0.1031 -0.9377  0.1286
18034TIP3    H175593   1.652   2.044   5.173 -0.2310 -1.0567  0.0740
18034TIP3    H275594   1.641   2.147   5.283 -1.3058 -1.7777  0.6595
18035TIP3   OH275595   4.136   0.382  16.472  0.2967 -0.5746  0.9811
18035TIP3    H175596   4.221   0.400  16.434  0.2815 -0.9821  0.7465
18035TIP3    H275597   4.131   0.287  16.477 -0.6111 -0.6163 -0.1122
18036TIP3   OH275598   5.426   2.609   0.359  0.0619  0.1408  0.0002
18036TIP3    H175599   5.370   2.534   0.377  0.2430  0.1313  0.5516
18036TIP3    H275600   5.488   2.578   0.293 -0.1660 -0.0457 -0.1259
18037TIP3   OH275601   1.214   0.096  16.642 -0.6705 -0.5223  0.6044
18037TIP3    H175602   1.262   0.083  16.560 -0.8543  3.8333 -0.4341
18037TIP3    H275603   1.283   0.097  16.709 -0.0106 -0.1723 -0.0577
18038TIP3   OH275604   0.916   0.406  12.961  0.1435  0.0792 -0.6604
18038TIP3    H175605   0.991   0.463  12.975 -0.5665  0.8909 -0.0530
18038TIP3    H275606   0.856   0.427  13.032 -0.1036 -1.5015 -0.3610
18039TIP3   OH275607   0.500   4.091  15.227 -0.0537 -0.3287 -0.3961
18039TIP3    H175608   0.475   4.127  15.312 -1.5579  0.6779 -1.2097
18039TIP3    H275609   0.442   4.016  15.215 -0.5603  0.1457 -0.9618
18040TIP3   OH275610   3.236   5.214   2.883 -0.3066  0.3866  0.3039
18040TIP3    H175611   3.157   5.182   2.927  0.0162 -0.9602 -0.0784
18040TIP3    H275612   3.230   5.178   2.795 -1.0452  3.2062 -0.9127
18041TIP3   OH275613   2.993   4.894  11.625  0.8584  0.0276  0.2507
18041TIP3    H175614   2.915   4.839  11.631  1.2572 -0.7252 -1.0819
18041TIP3    H275615   3.063   4.842  11.664  1.0406 -0.0010 -0.1121
18042TIP3   OH275616   3.898   3.076  13.107  0.0296  0.3442  0.3919
18042TIP3    H175617   3.916   3.118  13.023  1.1547  1.0054  0.9499
18042TIP3    H275618   3.982   3.041  13.136 -0.4987 -0.5497  0.8975
18043TIP3   OH275619   2.447   3.677   1.779 -0.3847 -0.5602  0.0402
18043TIP3    H175620   2.413   3.747   1.722 -0.7911 -0.6644  0.1509
18043TIP3    H275621   2.542   3.692   1.781 -0.4051 -0.3457 -0.3854
18044TIP3   OH275622   5.601   4.086   4.311 -0.1146  0.4917  0.4461
18044TIP3    H175623   5.530   4.035   4.352 -0.4509  0.3320 -0.3247
18044TIP3    H275624   5.565   4.174   4.301 -0.4595  0.2470 -0.5652
18045TIP3   OH275625   2.260   2.216  16.791  0.1608  0.1992 -0.1104
18045TIP3    H175626   2.187   2.252  16.740 -0.6000  0.3719  1.0375
18045TIP3    H275627   2.289   2.289  16.846  0.6343 -0.1083  0.0583
18046TIP3   OH275628   1.722   6.311   4.697 -0.1876 -0.3385  0.2456
18046TIP3    H175629   1.627   6.327   4.702 -0.0945  0.3674 -0.1062
18046TIP3    H275630   1.760   6.398   4.690  0.2408 -0.6263 -3.5069
18047TIP3   OH275631   1.651   3.997   2.573 -0.5028  0.2338 -0.3401
18047TIP3    H175632   1.578   3.984   2.634  1.5040  0.5054  2.2801
18047TIP3    H275633   1.681   3.909   2.553 -1.3383  0.1318 -1.2077
18048TIP3   OH275634   1.976   6.592   0.023  0.2115 -0.0263 -0.3750
18048TIP3    H175635   2.006   6.619   0.110  0.2857  0.2436 -0.4815
18048TIP3    H275636   1.930   6.669  -0.010  0.8437  0.1443 -0.8821
18049TIP3   OH275637   1.430   5.803  11.469 -0.1188  0.3506 -0.1243
18049TIP3    H175638   1.364   5.802  11.400 -1.6261  1.2958  1.2406
18049TIP3    H275639   1.407   5.878  11.523  1.4655  0.0751  0.9959
18050TIP3   OH275640   5.272   2.457   4.636  0.6171  0.0309 -0.4431
18050TIP3    H175641   5.298   2.546   4.609  0.0713  0.7910  1.3850
18050TIP3    H275642   5.354   2.409   4.643  1.0064  0.6689 -0.5738
18051TIP3   OH275643   6.812   1.397  14.084 -0.3601 -0.1998 -0.2588
18051TIP3    H175644   6.861   1.317  14.067 -0.0097  0.1620 -0.9833
18051TIP3    H275645   6.835   1.455  14.012  0.1157  0.8972  0.7399
18052TIP3   OH275646   2.651   1.545   4.063  0.4679 -0.7221 -0.0084
18052TIP3    H175647   2.581   1.502   4.014 -0.1012  0.5723 -0.3813
18052TIP3    H275648   2.723   1.552   4.000 -0.0478  0.3880 -0.5072
18053TIP3   OH275649   1.006   6.514  11.467 -0.3312 -0.3942 -0.4683
18053TIP3    H175650   0.935   6.561  11.423 -0.1861  0.6913  0.3870
18053TIP3    H275651   1.042   6.579  11.528  0.3604 -1.4189  0.2367
18054TIP3   OH275652   4.569   3.113   5.267 -0.7568  0.8162  0.6098
18054TIP3    H175653   4.597   3.087   5.355 -0.4935  0.0637  0.3133
18054TIP3    H275654   4.650   3.134   5.221 -0.5748 -1.5930 -0.3221
18055TIP3   OH275655   2.912   3.264   4.207 -0.3612  0.2768  0.0837
18055TIP3    H175656   2.979   3.324   4.176 -1.1074  0.7874 -0.5809
18055TIP3    H275657   2.889   3.213   4.129 -2.2551  1.5650 -0.2657
18056TIP3   OH275658   4.563   2.059  12.637  0.7022 -0.8565  0.6485
18056TIP3    H175659   4.477   2.087  12.605  0.7447 -0.3873  0.9375
18056TIP3    H275660   4.548   2.037  12.729  0.6792 -1.7721  0.4418
18057TIP3   OH275661   3.244   4.536  15.830 -0.6109  0.1687 -0.0954
18057TIP3    H175662   3.309   4.483  15.877  1.0886  3.1314  1.1853
18057TIP3    H275663   3.294   4.584  15.765 -1.8814  0.9439 -0.5442
18058TIP3   OH275664   6.502   0.745   4.841 -0.3482  0.1715 -0.2459
18058TIP3    H175665   6.576   0.736   4.902  0.7140  0.1063 -1.5007
18058TIP3    H275666   6.440   0.679   4.869  0.9431 -1.1388 -0.3459
18059TIP3   OH275667   6.352   0.796   0.425 -0.6782  0.3999  0.3768
18059TIP3    H175668   6.312   0.711   0.441  1.4295 -0.6020  0.7137
18059TIP3    H275669   6.372   0.830   0.513 -1.7577  1.4146  0.2614
18060TIP3   OH275670   5.824   1.588  12.751  0.7025  0.0189  0.0489
18060TIP3    H175671   5.760   1.652  12.781  1.0034  0.2261  0.2463
18060TIP3    H275672   5.814   1.588  12.656  0.9395  0.6078  0.0221
18061TIP3   OH275673   1.761   6.451   0.595  0.8240 -0.4658  0.6142
18061TIP3    H175674   1.789   6.458   0.687  1.8267 -0.3819  0.3151
18061TIP3    H275675   1.665   6.446   0.600  0.8823 -0.9604  1.6955
18062TIP3   OH275676   3.014   0.492   5.798  0.8707  0.3619  0.4731
18062TIP3    H175677   3.036   0.542   5.719  0.0396  1.9703  1.2053
18062TIP3    H275678   2.956   0.423   5.768  0.5807  0.9424 -0.3329
18063TIP3   OH275679   2.160   4.804   1.793 -0.2809 -0.3288  0.3481
18063TIP3    H175680   2.138   4.837   1.880 -1.1079  1.8141 -0.5957
18063TIP3    H275681   2.111   4.722   1.785  0.3583 -0.9172  2.1306
18064TIP3   OH275682   5.747   4.237  13.967  0.1073 -0.2648 -0.1953
18064TIP3    H175683   5.711   4.199  13.886 -0.7782 -0.6145  0.3509
18064TIP3    H275684   5.671   4.272  14.013  0.5695 -0.3050  0.6163
18065TIP3   OH275685   2.911   0.177   1.398  0.3587 -0.2869  0.5272
18065TIP3    H175686   2.915   0.135   1.484 -1.5630 -0.1912  0.7046
18065TIP3    H275687   2.943   0.266   1.414  3.2924 -1.1916  0.3837
18066TIP3   OH275688   1.226   5.896   6.030  0.4055 -0.3313  0.2692
18066TIP3    H175689   1.146   5.844   6.027  0.7758 -0.8737 -0.7416
18066TIP3    H275690   1.296   5.835   6.006  0.6968  0.8734 -2.3863
18067TIP3   OH275691   0.949   3.271  14.735 -0.3465 -0.9834  0.5392
18067TIP3    H175692   0.977   3.199  14.678 -0.5211  0.9057 -2.0802
18067TIP3    H275693   1.027   3.294  14.784  0.2325 -1.7054 -0.0203
18068TIP3   OH275694   2.433   3.268  12.208  0.3501  0.2111  0.3131
18068TIP3    H175695   2.361   3.256  12.146  0.9086 -0.2360 -0.2700
18068TIP3    H275696   2.418   3.354  12.245 -1.0842 -0.3003  1.0046
18069TIP3   OH275697   1.060   1.553  10.368 -0.0106  0.0382  0.2014
18069TIP3    H175698   1.106   1.470  10.375 -0.3363 -0.0537  1.5753
18069TIP3    H275699   1.127   1.616  10.343  0.1552 -0.6858 -1.3236
18070TIP3   OH275700   2.987   3.767  11.254  0.4254  0.0127  0.2143
18070TIP3    H175701   2.991   3.839  11.317 -0.3673 -0.7310  1.1452
18070TIP3    H275702   2.894   3.759  11.233  0.2148 -2.0085  1.6754
18071TIP3   OH275703   0.430   3.893  14.094  0.0984  0.0646 -0.8532
18071TIP3    H175704   0.356   3.836  14.070 -0.3130  0.0513  0.3526
18071TIP3    H275705   0.467   3.921  14.011  0.0870 -1.6858 -1.4783
18072TIP3   OH275706   4.351   2.016   1.658  0.3467 -0.3262  0.2883
18072TIP3    H175707   4.434   2.064   1.665  1.2042 -1.4484 -1.4919
18072TIP3    H275708   4.372   1.928   1.689 -0.6049 -0.2276  1.2766
18073TIP3   OH275709   2.671   5.028   5.028  0.4098  0.1969 -0.1200
18073TIP3    H175710   2.602   4.967   5.003 -1.3886  1.8733  0.5703
18073TIP3    H275711   2.637   5.114   5.007  2.6472  1.0629 -0.5210
18074TIP3   OH275712   3.324   2.464  11.673 -0.3131  0.2964 -0.4459
18074TIP3    H175713   3.413   2.489  11.697 -0.0636  1.7327 -2.5694
18074TIP3    H275714   3.300   2.526  11.604 -3.1650  0.2720  0.4017
18075TIP3   OH275715   2.011   0.531  11.110  0.1487  0.2420 -0.4827
18075TIP3    H175716   2.088   0.477  11.127 -0.5890  0.1658  3.6497
18075TIP3    H275717   1.956   0.477  11.053  1.6869 -1.1210 -0.7403
18076TIP3   OH275718   1.308   5.121  16.285 -0.0318 -0.2500 -0.4271
18076TIP3    H175719   1.311   5.217  16.289  2.2839 -0.3092  2.7778
18076TIP3    H275720   1.337   5.100  16.196  0.6322  2.0048 -0.8062
18077TIP3   OH275721   2.239   4.762  10.384 -0.2927  0.0966  0.1132
18077TIP3    H175722   2.283   4.683  10.352  0.7108  0.2405  1.0814
18077TIP3    H275723   2.276   4.776  10.471 -3.3953 -0.6652  1.6618
18078TIP3   OH275724   6.728   2.684  13.823 -0.4461  0.0655 -0.4595
18078TIP3    H175725   6.812   2.722  13.850  1.5405 -3.2306 -1.4796
18078TIP3    H275726   6.732   2.683  13.728 -0.8477 -1.7074 -0.4837
18079TIP3   OH275727   0.051   3.786  16.674  0.2403 -0.7382 -0.1554
18079TIP3    H175728  -0.013   3.858  16.680 -0.7788 -1.3292 -2.5643
18079TIP3    H275729   0.005   3.710  16.708 -0.9646 -1.4342 -2.9875
18080TIP3   OH275730   0.648   0.506  11.916  0.0355  0.5103  0.5710
18080TIP3    H175731   0.706   0.521  11.842  1.7622  0.8000  1.9303
18080TIP3    H275732   0.563   0.486  11.876  1.0580  0.0054 -1.4736
18081TIP3   OH275733   5.843   1.577  16.934  0.0639 -0.3839 -0.4067
18081TIP3    H175734   5.864   1.566  17.026 -0.8628  0.5150 -0.0774
18081TIP3    H275735   5.749   1.559  16.928 -0.4417  1.9982 -0.7133
18082TIP3   OH275736   5.972   3.982   4.772 -0.1642  0.1892 -0.3614
18082TIP3    H175737   5.947   4.063   4.817  0.0776 -0.3728  0.8270
18082TIP3    H275738   6.007   3.926   4.841 -0.3831 -0.9618 -1.1508
18083TIP3   OH275739   5.204   5.662   1.179  0.0352  0.4392 -0.3134
18083TIP3    H175740   5.256   5.741   1.191  0.8829 -0.2343  0.7209
18083TIP3    H275741   5.181   5.635   1.268  0.0936 -0.6760 -0.6166
18084TIP3   OH275742   6.498   3.551   1.017  0.1609 -0.2600  0.5189
18084TIP3    H175743   6.534   3.494   0.949 -0.2260 -0.4799  0.4924
18084TIP3    H275744   6.547   3.528   1.096  2.3711  1.7213 -0.1549
18085TIP3   OH275745   4.905   4.505   0.962 -0.5713  0.3032 -0.0579
18085TIP3    H175746   4.911   4.416   0.927 -3.0869 -0.8083  1.9900
18085TIP3    H275747   4.818   4.535   0.937 -0.3489  1.5965  0.6114
18086TIP3   OH275748   6.218   4.754  10.703  0.0847  0.0609 -0.6113
18086TIP3    H175749   6.268   4.673  10.712 -1.2212 -0.8987 -1.5535
18086TIP3    H275750   6.202   4.762  10.609  0.8060  1.8265 -0.6076
18087TIP3   OH275751   1.893   4.936  12.412  0.0568 -0.1850  0.9524
18087TIP3    H175752   1.887   4.843  12.430  1.5370 -0.4864  0.0303
18087TIP3    H275753   1.823   4.953  12.349 -1.0061 -0.4044  2.0498
18088TIP3   OH275754   6.361   4.232  14.826 -0.1675  0.6180  0.3676
18088TIP3    H175755   6.326   4.193  14.906  1.4841 -1.6820  0.0648
18088TIP3    H275756   6.450   4.259  14.849  0.5299 -0.5642 -0.7542
18089TIP3   OH275757   0.193   5.889   1.678  0.3906  0.3991  0.1484
18089TIP3    H175758   0.206   5.923   1.590  0.7221 -0.0600  0.0218
18089TIP3    H275759   0.164   5.966   1.729  0.3255  0.6894 -0.3236
18090TIP3   OH275760   1.799   2.604  15.920 -0.6234 -0.2473 -0.2408
18090TIP3    H175761   1.751   2.540  15.973  0.8306  1.0949  2.9790
18090TIP3    H275762   1.886   2.566  15.909 -0.1542  0.5669  0.5582
18091TIP3   OH275763   0.637   2.796   6.237 -0.0194 -0.5973 -0.3590
18091TIP3    H175764   0.640   2.843   6.320 -1.1856  0.5736 -0.9293
18091TIP3    H275765   0.694   2.846   6.178  0.7446 -1.3767 -0.2973
18092TIP3   OH275766   4.606   6.713   2.056  0.0763  0.3149  0.3810
18092TIP3    H175767   4.515   6.730   2.083  0.2124  0.0655  1.0046
18092TIP3    H275768   4.633   6.638   2.108  0.9884  1.0268  0.9715
18093TIP3   OH275769   4.997   6.506   3.915 -0.4774 -0.2899 -0.0822
18093TIP3    H175770   5.076   6.508   3.969 -0.9899 -1.7994  0.7851
18093TIP3    H275771   4.940   6.572   3.955  1.0502  2.3967 -2.0067
18094TIP3   OH275772   4.888   4.726   4.840  0.6517 -0.0916  0.4701
18094TIP3    H175773   4.863   4.819   4.834 -2.6921 -0.9339 -2.3429
18094TIP3    H275774   4.810   4.683   4.875  0.4245 -2.2283 -2.2891
18095TIP3   OH275775   6.422   2.969  12.587 -0.0477  0.2368  0.6663
18095TIP3    H175776   6.484   3.027  12.543  0.4309  0.5937  1.7681
18095TIP3    H275777   6.444   2.976  12.680 -1.4921  0.0766  1.0542
18096TIP3   OH275778   2.919   0.603   1.528 -0.3288  0.4008  0.1199
18096TIP3    H175779   2.983   0.592   1.598  0.5598 -1.0110 -0.8682
18096TIP3    H275780   2.834   0.597   1.572  0.1677  2.0283  1.4161
18097TIP3   OH275781   2.093   6.408  15.820  0.4244 -0.6414  0.6973
18097TIP3    H175782   2.042   6.345  15.872  0.3975 -0.9222  0.3292
18097TIP3    H275783   2.098   6.486  15.876 -1.8548  0.0094  0.0952
18098TIP3   OH275784   1.029   3.079   0.730  0.2040 -0.4437 -0.4151
18098TIP3    H175785   1.090   3.008   0.752 -0.4373 -0.8466  0.1011
18098TIP3    H275786   0.944   3.037   0.724 -0.1552  0.2488 -0.3020
18099TIP3   OH275787   3.887   3.228  16.808 -0.3211  0.3717  0.2167
18099TIP3    H175788   3.804   3.234  16.855 -0.0939  0.3474  0.6238
18099TIP3    H275789   3.866   3.176  16.730 -0.7748  0.7044  0.1121
18100TIP3   OH275790   1.569   3.939  10.811  0.6420  0.1086  0.2702
18100TIP3    H175791   1.494   3.985  10.772  1.2970  0.4039 -0.6911
18100TIP3    H275792   1.582   3.982  10.895  1.6576  2.1964 -0.8802
18101TIP3   OH275793   2.263   4.268   0.345  0.3158  0.1451 -0.8344
18101TIP3    H175794   2.354   4.279   0.317 -0.0804  0.5392 -2.0218
18101TIP3    H275795   2.212   4.274   0.264 -0.9414  2.0642  0.0321
18102TIP3   OH275796   4.373   4.236  12.664 -0.3926 -0.7914  1.2626
18102TIP3    H175797   4.341   4.309  12.611 -1.7979 -1.8453  0.5921
18102TIP3    H275798   4.415   4.278  12.739 -0.0245  0.7105  0.2782
18103TIP3   OH275799   6.743   3.583  16.803  0.0882  0.1122 -0.2151
18103TIP3    H175800   6.799   3.534  16.863  0.1465 -1.6564 -1.6315
18103TIP3    H275801   6.658   3.539  16.808 -1.2377  2.6559  1.7754
18104TIP3   OH275802   3.989   1.084  15.338 -0.0394 -0.3047 -0.0526
18104TIP3    H175803   3.944   1.043  15.264  0.7593 -1.3854  0.0427
18104TIP3    H275804   3.934   1.063  15.414 -0.0755 -0.4595 -0.1223
18105TIP3   OH275805   0.418   4.151  11.236  0.4158  0.4558  0.0989
18105TIP3    H175806   0.457   4.064  11.220 -2.2465 -0.7692 -0.2339
18105TIP3    H275807   0.371   4.171  11.156  0.7973  2.1598  0.2637
18106TIP3   OH275808   2.661   1.154  11.573  0.0572 -0.2521  0.0282
18106TIP3    H175809   2.678   1.106  11.492  0.9948 -3.1570  1.8215
18106TIP3    H275810   2.566   1.152  11.584 -0.2430  1.5870 -1.7289
18107TIP3   OH275811   3.698   2.397  13.401 -0.3150 -0.3324  0.3356
18107TIP3    H175812   3.684   2.337  13.474  0.0692 -0.8404 -0.0067
18107TIP3    H275813   3.774   2.363  13.356  0.1184  0.6116  0.3330
18108TIP3   OH275814   5.871   5.751  15.917 -0.1982 -0.2074 -0.8049
18108TIP3    H175815   5.941   5.807  15.950 -0.4724 -0.2463 -0.1593
18108TIP3    H275816   5.800   5.812  15.895  0.0800 -0.1534 -1.5943
18109TIP3   OH275817   6.510   5.548  14.756 -0.1558  0.4285 -0.2691
18109TIP3    H175818   6.556   5.467  14.777 -0.1602 -0.5654 -3.5501
18109TIP3    H275819   6.417   5.527  14.765 -0.2601 -0.6935 -3.0761
18110TIP3   OH275820   5.311   4.761   5.343  0.0899 -0.3070  1.0391
18110TIP3    H175821   5.317   4.804   5.428  0.3577  0.6269  0.5647
18110TIP3    H275822   5.401   4.758   5.311 -0.1830  0.8452  0.0828
18111TIP3   OH275823   0.306   1.750  12.667  1.0910 -0.2040  0.6663
18111TIP3    H175824   0.261   1.677  12.625  0.8436 -0.0440  0.6483
18111TIP3    H275825   0.356   1.791  12.596  1.1875 -0.3225  0.6650
18112TIP3   OH275826   6.581   4.329  14.963  0.2767 -0.6944  0.3907
18112TIP3    H175827   6.592   4.422  14.982  0.0126 -0.3596 -0.9960
18112TIP3    H275828   6.610   4.284  15.043 -1.0524  0.6168  1.6711
18113TIP3   OH275829   3.943   3.955  16.946  0.5807  0.3652  0.0377
18113TIP3    H175830   3.962   3.884  16.884 -0.2398  0.8571 -0.8087
18113TIP3    H275831   4.025   3.968  16.993  1.4941  0.5365 -1.5194
18114TIP3   OH275832   5.457   2.006  15.331  0.0009  0.1988 -0.6657
18114TIP3    H175833   5.461   2.017  15.426 -0.3884  1.7224 -0.7931
18114TIP3    H275834   5.440   1.913  15.317 -1.6995  0.2523  0.8099
18115TIP3   OH275835   3.044   3.854   2.229  0.6474  0.3129 -0.1059
18115TIP3    H175836   3.006   3.870   2.142  0.2903 -0.8960 -0.1829
18115TIP3    H275837   3.112   3.921   2.238  0.3130  0.8024 -1.0839
18116TIP3   OH275838   2.602   6.288  14.430 -0.2598 -0.1015 -0.4884
18116TIP3    H175839   2.520   6.324  14.396  0.6931  0.5545 -2.1955
18116TIP3    H275840   2.632   6.352  14.495 -0.2778  0.4903 -1.0566
18117TIP3   OH275841   6.322   0.037   0.414  0.4618 -0.1501 -0.2073
18117TIP3    H175842   6.373  -0.033   0.456  0.5759 -0.0296 -0.1464
18117TIP3    H275843   6.329   0.111   0.474 -2.3751 -1.0574  1.4198
18118TIP3   OH275844   6.262   1.658  17.058  0.2793  0.0214 -0.1634
18118TIP3    H175845   6.179   1.676  17.013 -0.4612  0.4804  1.3265
18118TIP3    H275846   6.272   1.563  17.052 -0.9961 -0.1936  0.6748
18119TIP3   OH275847   4.050   0.338   1.760 -0.0855  0.1213 -0.0336
18119TIP3    H175848   3.984   0.402   1.733 -2.3564 -2.2912 -0.5289
18119TIP3    H275849   4.003   0.277   1.817  1.7452 -1.6379 -0.2973
18120TIP3   OH275850   5.218   1.543  15.731  0.1940 -0.1655 -0.1189
18120TIP3    H175851   5.231   1.472  15.794  2.0617 -1.0573 -1.4058
18120TIP3    H275852   5.127   1.569  15.742  0.3906 -0.4272  2.7576
18121TIP3   OH275853   4.900   2.542   1.494 -0.3283  0.5775  0.3516
18121TIP3    H175854   4.949   2.488   1.432  0.6932  0.6359  1.0657
18121TIP3    H275855   4.809   2.531   1.470 -0.0039 -0.0366 -0.6450
18122TIP3   OH275856   3.508   4.317  15.806  0.3464 -0.0541  0.0702
18122TIP3    H175857   3.456   4.258  15.752  2.2955 -2.4289  0.6083
18122TIP3    H275858   3.500   4.282  15.895  0.7007  1.1737  0.6211
18123TIP3   OH275859   4.639   4.008  16.020 -0.4055  0.1894 -0.1091
18123TIP3    H175860   4.726   3.992  16.056 -0.0696  0.1164 -0.9146
18123TIP3    H275861   4.610   4.090  16.060  0.3537  0.6065 -0.3873
18124TIP3   OH275862   2.723   0.028  14.940  0.1550  0.4066  0.3237
18124TIP3    H175863   2.758   0.065  15.021  1.2626 -0.4076  0.2413
18124TIP3    H275864   2.683   0.103  14.895  1.2376  1.2525  0.7323
18125TIP3   OH275865   2.941   2.983  15.988 -0.2653 -0.1595 -0.0738
18125TIP3    H175866   2.991   2.902  15.996  2.5206  1.3343 -1.2686
18125TIP3    H275867   2.849   2.954  15.986  0.5223 -3.1051  1.1779
18126TIP3   OH275868   0.387   4.581   2.173 -0.1150  0.7532 -0.2872
18126TIP3    H175869   0.432   4.497   2.167 -0.9664  0.1159  1.4851
18126TIP3    H275870   0.438   4.630   2.238 -1.0642  0.6053  0.5862
18127TIP3   OH275871   3.219   3.789   4.170  0.5716  0.0603  0.8465
18127TIP3    H175872   3.191   3.794   4.261  0.8153  0.9137  0.8825
18127TIP3    H275873   3.150   3.740   4.126  1.5617 -2.4653  1.9240
18128TIP3   OH275874   3.498   0.719   6.222  0.9466  0.1760  0.3552
18128TIP3    H175875   3.447   0.730   6.142  0.2004 -2.0824  0.4649
18128TIP3    H275876   3.572   0.664   6.197  0.7700 -0.4625  1.1872
18129TIP3   OH275877   1.091   1.105   0.674  0.0953  0.1556 -0.3627
18129TIP3    H175878   1.072   1.067   0.588  0.4706  1.1728 -0.9090
18129TIP3    H275879   1.020   1.075   0.730 -0.2988 -0.2963 -1.0916
18130TIP3   OH275880   6.567   2.159  14.657  0.1407 -0.2030  0.4672
18130TIP3    H175881   6.513   2.192  14.730 -0.8924 -0.8725  0.0266
18130TIP3    H275882   6.650   2.135  14.698  0.0004  0.5458  1.2222
18131TIP3   OH275883   4.545   4.291   3.649 -0.4096  0.0354 -0.1389
18131TIP3    H175884   4.501   4.369   3.616 -0.0481  0.3912  0.2136
18131TIP3    H275885   4.479   4.247   3.702 -0.1854  0.8567  0.8453
18132TIP3   OH275886   1.032   2.119  16.986  0.4568  0.3274 -0.1844
18132TIP3    H175887   1.067   2.143  17.072 -1.0219  0.7238  0.3517
18132TIP3    H275888   1.001   2.202  16.950  0.1753  0.0180 -0.6650
18133TIP3   OH275889   4.975   3.371  15.643 -0.4438  0.2467  0.2791
18133TIP3    H175890   5.024   3.446  15.678 -2.3030  0.8612  1.6986
18133TIP3    H275891   5.030   3.295  15.663  0.8299  1.0613  0.0452
18134TIP3   OH275892   4.781   1.425  13.886 -0.3508  0.2001 -1.1384
18134TIP3    H175893   4.846   1.492  13.908 -1.1041  0.0417  2.0310
18134TIP3    H275894   4.701   1.474  13.868 -0.9297  0.2920  1.2834
18135TIP3   OH275895   0.316   5.478   3.480  0.1310 -0.0484  0.3917
18135TIP3    H175896   0.306   5.384   3.462  0.5241 -0.0591  0.2301
18135TIP3    H275897   0.291   5.487   3.572 -0.1674 -0.2678  0.3373
18136TIP3   OH275898   1.159   4.528   0.276 -0.2072 -0.2302  0.9828
18136TIP3    H175899   1.176   4.446   0.231  1.5125  0.3042  0.5576
18136TIP3    H275900   1.082   4.511   0.330 -0.1268 -1.9872  0.6000
18137TIP3   OH275901   4.982   0.482   3.227  0.1427  0.6247 -0.1665
18137TIP3    H175902   4.903   0.520   3.189  0.1014  1.5756  0.8269
18137TIP3    H275903   4.994   0.529   3.310  0.8647 -0.5968  0.4495
18138TIP3   OH275904   5.672   2.344  15.560  0.2675  0.0756 -0.2683
18138TIP3    H175905   5.665   2.307  15.648 -0.3798 -1.3218 -0.8721
18138TIP3    H275906   5.586   2.329  15.520  0.4349  1.0199 -1.0244
18139TIP3   OH275907   5.554   1.119  15.346  0.0116 -0.6603 -0.6314
18139TIP3    H175908   5.541   1.088  15.436 -0.4028 -0.5064 -0.6376
18139TIP3    H275909   5.590   1.207  15.356  0.6722 -0.9199 -0.6178
18140TIP3   OH275910   6.674   6.375  14.431 -0.4441  0.2650 -0.1414
18140TIP3    H175911   6.630   6.298  14.468  0.1202  0.3097  0.6223
18140TIP3    H275912   6.718   6.342  14.352 -1.5701  0.1553 -0.7512
18141TIP3   OH275913   4.277   2.248  13.149  0.1067  0.6443  0.2594
18141TIP3    H175914   4.367   2.231  13.118  0.5218  2.1510  0.5450
18141TIP3    H275915   4.286   2.254  13.244  0.1323  2.9031  0.1618
18142TIP3   OH275916   2.288   2.641  15.598  0.2886 -0.2361 -0.8472
18142TIP3    H175917   2.209   2.694  15.613  1.0356  0.7266 -0.1667
18142TIP3    H275918   2.255   2.553  15.583 -0.8748 -0.0726  0.5364
18143TIP3   OH275919   3.887   3.838  15.453  0.2821 -0.0967 -0.7615
18143TIP3    H175920   3.839   3.919  15.435  1.5554  0.7025 -0.6571
18143TIP3    H275921   3.818   3.775  15.474 -0.7310  1.0113 -0.5917
18144TIP3   OH275922   0.828   0.225  14.309  0.5754  0.2203  0.2257
18144TIP3    H175923   0.890   0.185  14.369  0.5510  0.0229  0.1219
18144TIP3    H275924   0.849   0.318  14.311  0.4002  0.2497  0.7372
18145TIP3   OH275925   5.315   4.160  16.860  0.2283 -0.6385 -0.1805
18145TIP3    H175926   5.265   4.211  16.924 -0.8840  0.1262 -1.6142
18145TIP3    H275927   5.364   4.226  16.810 -1.1259 -0.9176 -1.9694
18146TIP3   OH275928   2.334   0.910  14.211 -0.1648  0.0343 -0.1037
18146TIP3    H175929   2.308   0.938  14.298  2.4314 -0.7570  1.0362
18146TIP3    H275930   2.292   0.973  14.152 -1.0908  1.2658  1.7717
18147TIP3   OH275931   6.003   4.977   4.685  0.2381  0.5329  0.1652
18147TIP3    H175932   5.910   5.000   4.694  0.3878  1.3849 -0.2538
18147TIP3    H275933   6.038   5.044   4.626  1.9518  2.5411  3.1877
18148TIP3   OH275934   2.244   6.759  12.865 -0.8016  0.3433  0.5437
18148TIP3    H175935   2.276   6.849  12.855  2.3028 -0.8036 -1.4159
18148TIP3    H275936   2.191   6.744  12.787  0.5791 -0.1423 -0.3462
18149TIP3   OH275937   4.623   2.972  15.295 -1.0143 -0.6433  0.0190
18149TIP3    H175938   4.585   3.060  15.299  0.3431  0.0354 -1.2263
18149TIP3    H275939   4.571   2.927  15.229  0.4425  0.4001 -1.9566
18150TIP3   OH275940   1.686   1.084  12.428  0.1308 -0.5461 -0.1525
18150TIP3    H175941   1.670   1.106  12.336  1.1300  0.2239 -0.1579
18150TIP3    H275942   1.779   1.065  12.432  0.8004  2.4280  1.2364
18151TIP3   OH275943   0.146   5.921  13.742 -0.4440  0.1263  0.0666
18151TIP3    H175944   0.184   5.908  13.829  1.1324  2.0655 -0.2628
18151TIP3    H275945   0.079   5.988  13.755 -0.6769 -0.0751 -0.0976
18152TIP3   OH275946   3.095   0.723  15.955 -0.0804  0.3373 -0.1494
18152TIP3    H175947   3.098   0.744  15.862  0.1723 -1.7071 -0.6583
18152TIP3    H275948   3.118   0.630  15.959  0.9231  0.6219  2.0566
18153TIP3   OH275949   6.096   0.741   0.004 -0.3420  0.2054  0.1471
18153TIP3    H175950   6.079   0.830   0.034  0.9069  0.3004  0.6075
18153TIP3    H275951   6.167   0.710   0.060  0.7809 -0.2756 -1.4958
18154TIP3   OH275952   3.760   4.935  14.814 -0.2597  0.0031 -0.2629
18154TIP3    H175953   3.725   4.974  14.894 -1.1570 -1.4775  0.1040
18154TIP3    H275954   3.758   4.840  14.830 -1.1013 -0.3815 -2.2685
18155TIP3   OH275955   5.978   5.072   3.519  0.4649  0.2644  0.2407
18155TIP3    H175956   5.941   5.160   3.518 -1.0143 -0.3203 -0.7669
18155TIP3    H275957   6.003   5.057   3.611  1.2808  1.9044  0.3262
18156TIP3   OH275958   2.276   6.187   2.274 -0.5102 -0.2814  0.4129
18156TIP3    H175959   2.263   6.282   2.279 -0.8493 -0.3335  0.5510
18156TIP3    H275960   2.191   6.153   2.245 -0.2991 -0.5158  0.0525
18157TIP3   OH275961   6.625   5.883   5.030 -0.1638 -0.0378 -0.1095
18157TIP3    H175962   6.630   5.854   5.121 -3.6722 -2.5564 -0.5390
18157TIP3    H275963   6.609   5.802   4.980  0.6967  1.3844 -2.9017
18158TIP3   OH275964   5.856   4.169   4.963  0.0601  0.0547 -0.3703
18158TIP3    H175965   5.843   4.136   5.052 -2.8222  0.3672 -0.5623
18158TIP3    H275966   5.776   4.219   4.945  0.8672  0.5681 -2.8980
18159TIP3   OH275967   2.169   1.584   5.180  0.4523 -0.1102  0.2563
18159TIP3    H175968   2.108   1.550   5.115  0.1562  0.1411  0.4052
18159TIP3    H275969   2.166   1.520   5.251  1.1527 -0.6532 -0.1852
18160TIP3   OH275970   0.877   5.434  13.269  0.4481  0.0184  0.3440
18160TIP3    H175971   0.894   5.405  13.359  0.2768  0.9790  0.7042
18160TIP3    H275972   0.957   5.478  13.242  0.6212 -0.5665 -0.1032
18161TIP3   OH275973   6.521   3.896   3.666 -0.3676 -0.2975  0.0935
18161TIP3    H175974   6.536   3.959   3.737 -1.9829 -0.5603  0.7063
18161TIP3    H275975   6.463   3.942   3.606  0.9119 -0.1179 -1.0462
18162TIP3   OH275976   4.432   1.534   5.749  0.8081 -0.1952  0.1342
18162TIP3    H175977   4.347   1.492   5.734  0.1103  0.9726  0.6995
18162TIP3    H275978   4.432   1.559   5.841  0.4649  2.5015 -0.5003
18163TIP3   OH275979   2.682   5.347   5.174  0.0088  0.4594  0.4120
18163TIP3    H175980   2.619   5.394   5.230 -0.3819 -1.0083  1.2589
18163TIP3    H275981   2.764   5.353   5.222  0.4333  1.8908 -0.4230
18164TIP3   OH275982   3.508   0.055   3.978  0.0937 -0.1858  0.1855
18164TIP3    H175983   3.465   0.136   4.007 -1.1971 -0.6604 -0.3297
18164TIP3    H275984   3.586   0.048   4.034 -1.5810 -0.3727  2.6804
18165TIP3   OH275985   4.052   0.373   2.754 -0.2776  0.2555  0.3618
18165TIP3    H175986   4.103   0.433   2.699  0.2748  1.0289  1.6561
18165TIP3    H275987   3.964   0.377   2.719 -0.0542  1.1655 -0.1283
18166TIP3   OH275988   3.261   2.431  11.929 -0.7710  0.9958  0.1071
18166TIP3    H175989   3.351   2.443  11.961  0.5989 -1.1667 -2.4754
18166TIP3    H275990   3.265   2.455  11.836 -1.4683 -3.5414 -1.3662
18167TIP3   OH275991   2.496   5.046  13.670  0.0221  1.1770  0.0251
18167TIP3    H175992   2.536   5.133  13.662  0.8892  0.7426 -0.6293
18167TIP3    H275993   2.461   5.028  13.582  0.6688  0.5004 -0.1107
18168TIP3   OH275994   2.623   2.859  11.873 -0.1030 -0.3605  0.1721
18168TIP3    H175995   2.591   2.769  11.863 -3.1777  0.7858 -2.0233
18168TIP3    H275996   2.717   2.853  11.860 -0.3347 -3.1491 -0.9415
18169TIP3   OH275997   5.190   5.397  11.116  0.1693 -0.2574 -0.0841
18169TIP3    H175998   5.248   5.448  11.058  0.5265  0.6257  1.0126
18169TIP3    H275999   5.224   5.308  11.110  0.0108 -0.2609 -1.4462
18170TIP3   OH276000   1.587   4.662   3.258  0.0044 -0.0882  0.0409
18170TIP3    H176001   1.670   4.686   3.299 -0.4723  3.3118 -0.7128
18170TIP3    H276002   1.613   4.604   3.186  1.4883 -0.5427  0.8811
18171TIP3   OH276003   1.796   2.060  13.425  0.2643  0.0628  0.3467
18171TIP3    H176004   1.710   2.051  13.383  0.6340 -1.5064 -0.1602
18171TIP3    H276005   1.802   1.984  13.484  0.2011  1.6291  2.5092
18172TIP3   OH276006   4.636   2.315   6.449  0.8754 -0.0610 -0.1618
18172TIP3    H176007   4.693   2.388   6.475  0.4505  0.5147 -0.8074
18172TIP3    H276008   4.641   2.254   6.522  2.0007  0.1676 -0.0224
18173TIP3   OH276009   5.769   3.402  13.675 -0.5707 -0.3966 -0.0283
18173TIP3    H176010   5.755   3.471  13.741 -1.0013  0.4459 -0.9668
18173TIP3    H276011   5.683   3.392  13.634 -0.0338 -0.0438 -1.2698
18174TIP3   OH276012   3.940   5.369  12.022 -1.0838 -0.4431  0.0446
18174TIP3    H176013   4.000   5.298  12.042 -1.2072 -0.4618  0.3456
18174TIP3    H276014   3.908   5.399  12.107 -1.6658 -0.5764 -0.1226
18175TIP3   OH276015   5.563   1.641  14.510 -0.0828 -0.4417 -0.3312
18175TIP3    H176016   5.651   1.676  14.509 -0.5206  0.6717 -1.2115
18175TIP3    H276017   5.547   1.618  14.602  1.4959 -1.7064 -0.3365
18176TIP3   OH276018   3.598   1.584  11.285 -0.1610 -0.3005  0.1012
18176TIP3    H176019   3.519   1.607  11.335  0.6706 -0.4177  1.5134
18176TIP3    H276020   3.594   1.489  11.274  0.5476 -0.5231  1.5655
18177TIP3   OH276021   4.576   4.560   5.594 -0.3885  0.3148 -0.1388
18177TIP3    H176022   4.643   4.501   5.559  0.3374  0.4168  1.0488
18177TIP3    H276023   4.527   4.589   5.516 -1.4723 -2.6563 -0.6728
18178TIP3   OH276024   1.924   6.124  10.730  0.1749  0.7434  0.4474
18178TIP3    H176025   1.988   6.054  10.715  1.0438  1.2331  1.6445
18178TIP3    H276026   1.974   6.192  10.776 -0.9699  1.5800  0.4920
18179TIP3   OH276027   4.536   0.066  13.498 -0.3572 -0.1900 -0.1608
18179TIP3    H176028   4.537  -0.022  13.458  3.6334 -0.4830  0.2228
18179TIP3    H276029   4.509   0.051  13.588 -1.2031 -0.7681 -0.4980
18180TIP3   OH276030   1.507   1.308  15.188  0.0697  0.7964  0.4218
18180TIP3    H176031   1.421   1.343  15.164  0.2369  0.4588 -0.7740
18180TIP3    H276032   1.494   1.213  15.191 -0.1701  0.8449  2.7577
18181TIP3   OH276033   3.217   3.223  16.623  0.1376  0.3357  0.9146
18181TIP3    H176034   3.126   3.234  16.652 -0.3533 -0.6227 -0.1788
18181TIP3    H276035   3.212   3.158  16.553  1.3862  1.7704 -0.6058
18182TIP3   OH276036   4.881   5.947  15.559  0.0892  0.0364  0.1508
18182TIP3    H176037   4.898   5.859  15.591  2.2960  0.1683 -0.5324
18182TIP3    H276038   4.877   6.001  15.639 -0.7995 -0.5659  0.5370
18183TIP3   OH276039   2.435   1.267  16.585  0.0714 -0.1297 -0.4693
18183TIP3    H176040   2.460   1.190  16.636  1.2968  0.4190 -0.2083
18183TIP3    H276041   2.340   1.269  16.591 -0.0413 -1.9335 -0.9470
18184TIP3   OH276042   5.929   2.507   0.499  0.2827  0.1839 -0.1058
18184TIP3    H176043   5.906   2.555   0.419  0.9934  2.5887  1.0306
18184TIP3    H276044   6.022   2.487   0.489  0.4481  0.7590  0.2150
18185TIP3   OH276045   1.031   1.160   5.313  0.1724 -0.1851 -0.4501
18185TIP3    H176046   1.012   1.184   5.403  0.8246  2.1432 -0.8707
18185TIP3    H276047   0.946   1.164   5.268  0.0359 -0.1758 -0.1897
18186TIP3   OH276048   2.550   2.104   3.952 -0.0092 -0.1092 -0.3433
18186TIP3    H176049   2.512   2.050   4.021  0.8878 -0.8141 -0.3833
18186TIP3    H276050   2.638   2.068   3.939  0.7279  1.5483 -0.1579
18187TIP3   OH276051   4.436   2.624   4.633  0.5678 -0.7340  0.7233
18187TIP3    H176052   4.391   2.581   4.706  0.3422 -0.0583  0.9961
18187TIP3    H276053   4.527   2.596   4.642  1.1711  1.5319  3.0358
18188TIP3   OH276054   3.016   1.203   0.668 -0.2907  1.2033 -0.0727
18188TIP3    H176055   3.106   1.173   0.658 -0.2547  1.1387  0.4266
18188TIP3    H276056   2.974   1.180   0.585  0.0687  0.9527 -0.1880
18189TIP3   OH276057   4.998   4.443  13.751 -0.4495  0.1024 -0.1823
18189TIP3    H176058   4.937   4.497  13.701 -1.0091 -0.3194  0.0378
18189TIP3    H276059   5.000   4.482  13.838  0.3193  0.6744 -0.4456
18190TIP3   OH276060   6.459   3.729   5.582 -0.1027  0.0469 -0.0950
18190TIP3    H176061   6.522   3.670   5.624 -2.8434 -3.0337  0.1680
18190TIP3    H276062   6.415   3.773   5.655 -0.5433 -0.4469 -0.0539
18191TIP3   OH276063   3.083   5.318  13.109  0.3302  0.5734  0.1509
18191TIP3    H176064   3.171   5.319  13.145  0.1524  1.0586  0.5787
18191TIP3    H276065   3.034   5.379  13.163 -0.4336 -0.1708  0.3180
18192TIP3   OH276066   3.031   5.241  14.404  0.1520 -0.2934  0.2408
18192TIP3    H176067   3.003   5.230  14.495 -0.7771 -2.1856 -0.2372
18192TIP3    H276068   2.991   5.168  14.357 -0.3404  1.2714 -1.9263
18193TIP3   OH276069   2.866   0.925   4.852  0.2931 -0.0819 -0.2751
18193TIP3    H176070   2.822   0.843   4.875 -1.4463  1.2945  1.6823
18193TIP3    H276071   2.929   0.939   4.923  2.4231 -0.8962 -1.8986
18194TIP3   OH276072   3.484   6.451  13.017  0.0665 -0.2240  0.1239
18194TIP3    H176073   3.420   6.496  12.962 -0.1262 -0.0380  0.5050
18194TIP3    H276074   3.547   6.415  12.954 -0.8704 -1.1399 -0.3144
18195TIP3   OH276075   5.697   3.596   6.705 -0.0675  0.5741  0.2144
18195TIP3    H176076   5.697   3.515   6.655 -0.4399  0.6037  0.1646
18195TIP3    H276077   5.777   3.641   6.678  1.5011 -0.9076  2.1141
18196TIP3   OH276078   2.163   4.570  12.625 -0.2933 -0.2094 -0.1036
18196TIP3    H176079   2.074   4.539  12.640 -0.2080 -0.5554 -0.3105
18196TIP3    H276080   2.186   4.617  12.706 -0.6456 -0.1558 -0.0347
18197TIP3   OH276081   6.389   6.229   4.439 -0.3439 -0.0669 -0.3821
18197TIP3    H176082   6.481   6.232   4.413 -0.3957  0.3326 -0.5284
18197TIP3    H276083   6.362   6.321   4.445 -1.0647 -0.1801 -1.5266
18198TIP3   OH276084   1.249   3.284  14.616 -0.3504  0.6421 -0.1068
18198TIP3    H176085   1.196   3.363  14.630 -1.3938 -0.0440 -0.0590
18198TIP3    H276086   1.230   3.229  14.692  2.0730  1.2133  0.9983
18199TIP3   OH276087   6.268   4.416  15.136  0.1438  0.1356 -0.8348
18199TIP3    H176088   6.179   4.445  15.114  0.8613  0.5233 -3.5618
18199TIP3    H276089   6.259   4.321  15.149 -0.8318  0.3255  0.0112
18200TIP3   OH276090   0.894   4.998  12.121 -0.6419  0.0626  0.0213
18200TIP3    H176091   0.973   5.030  12.164 -0.6536  0.3462 -0.1645
18200TIP3    H276092   0.923   4.920  12.073 -0.5090  0.0703  0.0878
18201TIP3   OH276093   6.545   0.648  12.585 -0.2309  0.0257  0.3890
18201TIP3    H176094   6.487   0.587  12.541  0.1956  1.7024 -2.8751
18201TIP3    H276095   6.616   0.662  12.522  1.5175  1.1881  2.4904
18202TIP3   OH276096   5.335   3.513   2.177  0.4077 -0.4752 -0.4067
18202TIP3    H176097   5.392   3.442   2.148  1.7249  0.6449 -0.6750
18202TIP3    H276098   5.379   3.593   2.147 -0.2219  0.5369  1.2568
18203TIP3   OH276099   1.821   4.441  12.825  0.2760  0.3030 -0.0475
18203TIP3    H176100   1.824   4.525  12.779  1.0000 -0.1612 -0.8860
18203TIP3    H276101   1.757   4.390  12.777  0.9885 -0.1633 -0.5191
18204TIP3   OH276102   5.809   5.298   4.355  0.0660  0.6121 -0.2903
18204TIP3    H176103   5.798   5.374   4.297 -1.7203  0.1875 -0.5654
18204TIP3    H276104   5.722   5.285   4.394  0.2878 -1.3727 -0.3729
18205TIP3   OH276105   5.956   0.822  13.198 -0.0401  0.8184 -0.0794
18205TIP3    H176106   5.950   0.761  13.124 -2.7826 -0.1784  0.8102
18205TIP3    H276107   6.045   0.856  13.195  0.3800 -0.2915 -2.9451
18206TIP3   OH276108   6.071   1.562   4.456  0.0353 -0.0599  0.0845
18206TIP3    H176109   6.086   1.485   4.401 -1.7384 -0.2283 -0.2066
18206TIP3    H276110   6.110   1.540   4.540 -2.1080 -2.1110  0.6284
18207TIP3   OH276111   3.090   3.351  14.530  0.2520  0.7813 -0.0738
18207TIP3    H176112   3.130   3.404  14.461 -0.6215  3.9465  1.6716
18207TIP3    H276113   2.999   3.341  14.503  0.0737  1.4436  0.2555
18208TIP3   OH276114   4.388   3.514   0.754 -0.1609  0.2896  0.0844
18208TIP3    H176115   4.389   3.583   0.821  2.0243 -1.0499  1.5808
18208TIP3    H276116   4.368   3.434   0.803 -1.4297 -0.3674 -1.4168
18209TIP3   OH276117   6.663   6.550  11.929 -0.3913 -0.0268  0.1507
18209TIP3    H176118   6.670   6.615  11.859 -1.2383  0.1814  0.2464
18209TIP3    H276119   6.571   6.524  11.928 -0.3810 -0.1227  1.0995
18210TIP3   OH276120   1.684   4.248   0.284 -0.4660 -0.5189  0.3405
18210TIP3    H176121   1.684   4.291   0.199 -1.3081  2.0904  1.5797
18210TIP3    H276122   1.776   4.228   0.301  0.0159  1.1124 -0.1669
18211TIP3   OH276123   6.353   2.594   5.319  0.4799  0.1450  0.3984
18211TIP3    H176124   6.396   2.654   5.258  2.0456  0.5277  1.7985
18211TIP3    H276125   6.266   2.579   5.282  1.2349  0.6721 -1.6897
18212TIP3   OH276126   0.394   4.756   5.249 -0.3812 -0.7280 -0.0368
18212TIP3    H176127   0.490   4.748   5.254 -0.3260  0.0882  0.3968
18212TIP3    H276128   0.372   4.726   5.161  0.1621 -1.8922  0.1936
18213TIP3   OH276129   0.918   3.760   5.865  0.3248 -0.1947 -0.1191
18213TIP3    H176130   0.971   3.778   5.787  1.9592 -1.7296  0.5565
18213TIP3    H276131   0.970   3.796   5.938 -1.4872  1.8236  0.2867
18214TIP3   OH276132   0.529   4.937   2.569 -0.6566  0.7884  0.3770
18214TIP3    H176133   0.573   5.022   2.572 -1.3918  1.1600  0.9784
18214TIP3    H276134   0.440   4.955   2.600 -0.0260 -0.6910  3.4153
18215TIP3   OH276135   4.053   6.264  16.858 -0.2748  0.1256 -0.2633
18215TIP3    H176136   4.009   6.285  16.941 -1.9582  0.3414 -1.1684
18215TIP3    H276137   4.072   6.170  16.865 -2.6694 -0.4537 -0.5745
18216TIP3   OH276138   5.797   2.431  12.543 -0.1670  0.1773 -1.0158
18216TIP3    H176139   5.741   2.506  12.524  0.7206  0.6467 -1.8973
18216TIP3    H276140   5.860   2.464  12.608 -0.2402 -0.0232 -0.8419
18217TIP3   OH276141   2.807   4.081  12.476 -0.4312 -0.1095 -0.4163
18217TIP3    H176142   2.831   4.051  12.563 -0.3664 -0.1598 -0.4521
18217TIP3    H276143   2.888   4.114  12.438 -0.2283 -1.1329 -0.8862
18218TIP3   OH276144   4.467   6.779   0.332 -0.4476 -0.1207 -0.1701
18218TIP3    H176145   4.501   6.843   0.395  0.5223 -0.3782 -0.4242
18218TIP3    H276146   4.523   6.702   0.343 -1.4948 -0.8898  0.0124
18219TIP3   OH276147   0.745   5.642   0.662  0.2765  0.2926 -0.3103
18219TIP3    H176148   0.689   5.646   0.740  1.1370  0.3379  0.3237
18219TIP3    H276149   0.739   5.551   0.633  0.8242 -0.0062  0.4818
18220TIP3   OH276150   3.668   2.560   3.283  0.5646  0.8113 -0.1807
18220TIP3    H176151   3.633   2.583   3.369  1.1389 -1.6281  0.8187
18220TIP3    H276152   3.763   2.556   3.297  0.5712 -1.0946 -0.4283
18221TIP3   OH276153   1.127   6.684   4.646  0.0254 -0.2918 -0.6524
18221TIP3    H176154   1.081   6.671   4.729 -1.3741  0.7879 -1.2109
18221TIP3    H276155   1.062   6.726   4.589  1.3109  0.0570 -1.9229
18222TIP3   OH276156   1.717   0.594   2.390 -0.0559  0.4122  0.7238
18222TIP3    H176157   1.726   0.596   2.295  0.9931 -1.4017  0.7204
18222TIP3    H276158   1.804   0.618   2.422  0.3620 -1.4250  1.1173
18223TIP3   OH276159   3.500   5.871  13.320  0.3586  0.2674 -0.0900
18223TIP3    H176160   3.580   5.869  13.373 -0.1033  0.3133  0.6183
18223TIP3    H276161   3.435   5.825  13.373 -0.3395  1.0724 -0.2346
18224TIP3   OH276162   4.705   2.894   2.313 -0.1884 -0.1208 -0.9160
18224TIP3    H176163   4.752   2.948   2.249  0.4352 -0.3037 -0.6190
18224TIP3    H276164   4.745   2.916   2.397  0.3248 -1.3058 -0.8311
18225TIP3   OH276165   6.047   4.906   2.089  0.2676  0.5584  0.4468
18225TIP3    H176166   6.055   4.811   2.102 -1.1636  0.3905  0.2236
18225TIP3    H276167   6.131   4.932   2.051 -0.0033 -0.9319 -1.2944
18226TIP3   OH276168   0.783   4.127  14.597  0.2383 -0.3896 -0.5431
18226TIP3    H176169   0.825   4.069  14.660  0.7321  0.4985 -0.0462
18226TIP3    H276170   0.690   4.103  14.601  0.5831 -2.0021 -1.2661
18227TIP3   OH276171   4.539   2.568  15.373 -0.1632  0.3043 -0.1588
18227TIP3    H176172   4.447   2.565  15.346 -0.4396  0.2554  0.7606
18227TIP3    H276173   4.547   2.499  15.439  0.2482  1.0947  0.6262
18228TIP3   OH276174   2.439   1.238  13.049  0.4920 -0.4537 -0.3791
18228TIP3    H176175   2.377   1.296  13.005  1.2424 -0.0942 -0.9874
18228TIP3    H276176   2.459   1.281  13.132  0.4521 -0.2273 -0.4881
18229TIP3   OH276177   5.658   0.518   3.583  0.3163  0.4007 -0.1905
18229TIP3    H176178   5.569   0.494   3.608  0.1616  0.9157 -0.2367
18229TIP3    H276179   5.666   0.610   3.608  0.6568  0.5066 -0.6677
18230TIP3   OH276180   6.390   1.089   5.444  0.2475 -0.0210  0.6210
18230TIP3    H176181   6.309   1.136   5.421  0.5030  0.0352 -0.2108
18230TIP3    H276182   6.382   1.004   5.400 -1.2580 -1.7902  3.9547
18231TIP3   OH276183   0.477   2.468  11.304 -0.1428  0.1146  0.2870
18231TIP3    H176184   0.444   2.426  11.224  1.6680 -4.4833  1.6287
18231TIP3    H276185   0.553   2.517  11.276 -1.7017  1.8199 -1.2314
18232TIP3   OH276186   6.331   6.608   2.408  0.7918 -0.2180  0.7048
18232TIP3    H176187   6.291   6.521   2.398 -3.7378  1.7121 -0.6587
18232TIP3    H276188   6.340   6.620   2.502 -1.0422 -1.2091  1.0528
18233TIP3   OH276189   2.856   4.048   0.177 -0.1581  0.3852  0.4872
18233TIP3    H176190   2.794   4.072   0.246  0.3445 -0.4293  1.2433
18233TIP3    H276191   2.871   4.129   0.128 -1.3848  0.7101  0.6381
18234TIP3   OH276192   2.337   6.771  10.671  0.1199 -0.4302 -0.0051
18234TIP3    H176193   2.415   6.719  10.651  1.0641  1.0929 -0.4829
18234TIP3    H276194   2.363   6.824  10.746 -0.1430  0.7179 -0.7053
18235TIP3   OH276195   4.425   1.732   3.189 -0.2030 -0.1894 -0.0647
18235TIP3    H176196   4.391   1.751   3.102  0.4229 -1.9725 -0.7649
18235TIP3    H276197   4.504   1.785   3.197  0.4806 -0.9978 -1.1724
18236TIP3   OH276198   3.216   4.430  12.078  0.1115  0.2291  0.1450
18236TIP3    H176199   3.241   4.497  12.015  1.1809 -0.5013 -0.2378
18236TIP3    H276200   3.199   4.352  12.025  1.2693 -0.4683  0.7632
18237TIP3   OH276201   1.311   0.522   1.166 -0.3934 -0.4897 -0.2418
18237TIP3    H176202   1.257   0.598   1.142  0.7440 -0.2007 -2.0243
18237TIP3    H276203   1.271   0.490   1.247 -1.3311  1.5756  0.1867
18238TIP3   OH276204   2.777   3.975  14.384 -0.4773  0.2007 -0.5108
18238TIP3    H176205   2.786   3.919  14.307  0.3599 -0.4825  0.0735
18238TIP3    H276206   2.855   4.029  14.385  0.0886 -0.5893  0.4684
18239TIP3   OH276207   2.738   6.519   1.403  0.0261 -0.2161 -0.0528
18239TIP3    H176208   2.833   6.518   1.398  0.0949  2.0272 -0.2664
18239TIP3    H276209   2.713   6.609   1.380 -2.1545 -0.7697 -0.1453
18240TIP3   OH276210   3.310   1.819   6.531  0.0030 -0.0765  0.1105
18240TIP3    H176211   3.313   1.744   6.470 -1.2784  0.4729 -0.6783
18240TIP3    H276212   3.281   1.780   6.613 -3.8806 -0.1232 -1.0661
18241TIP3   OH276213   5.064   4.348  11.463 -0.5627  0.0372 -0.4154
18241TIP3    H176214   5.058   4.417  11.397 -0.8865 -0.4833 -0.9385
18241TIP3    H276215   5.157   4.327  11.468 -0.3755  0.9474  0.2136
18242TIP3   OH276216   6.101   2.492  16.375  0.3548 -0.6399 -0.2341
18242TIP3    H176217   6.176   2.436  16.398  0.0437 -1.1536 -0.4741
18242TIP3    H276218   6.050   2.497  16.456 -0.3748 -1.8860 -0.5929
18243TIP3   OH276219   1.842   0.393   5.328 -0.3655 -0.6929 -0.3468
18243TIP3    H176220   1.878   0.322   5.381  0.2018 -0.8181 -0.8948
18243TIP3    H276221   1.755   0.363   5.304 -0.5126 -0.7654  0.2613
18244TIP3   OH276222   5.227   4.897   5.585  0.5969  0.1808  0.2401
18244TIP3    H176223   5.155   4.887   5.647 -1.3605 -1.3290 -2.0426
18244TIP3    H276224   5.242   4.991   5.580  0.7921  0.3635  2.8302
18245TIP3   OH276225   6.340   3.870   6.096  0.4146  0.0278  0.2877
18245TIP3    H176226   6.429   3.858   6.129 -0.3527  0.1621  2.5704
18245TIP3    H276227   6.308   3.948   6.141 -0.9919 -0.2427 -0.1938
18246TIP3   OH276228   5.799   3.362   0.056  0.1345 -0.1597 -0.2310
18246TIP3    H176229   5.738   3.339   0.126  0.7688 -1.0919  0.0358
18246TIP3    H276230   5.883   3.323   0.083  0.1903 -1.2701 -1.9056
18247TIP3   OH276231   2.581   5.918  15.098 -0.4533  0.0121 -0.6143
18247TIP3    H176232   2.547   6.007  15.088 -1.0396 -0.2163 -0.7518
18247TIP3    H276233   2.519   5.876  15.158  0.4443  0.0208  0.3414
18248TIP3   OH276234   2.097   1.613  13.852  0.1071 -0.5280 -0.4699
18248TIP3    H176235   2.077   1.525  13.820  1.6496 -0.8459 -0.6660
18248TIP3    H276236   2.193   1.617  13.853  0.0845  0.7636  0.6055
18249TIP3   OH276237   5.684   4.013   2.067  0.6616  0.3793 -0.2239
18249TIP3    H176238   5.673   4.102   2.099  0.8314 -0.1557  1.4395
18249TIP3    H276239   5.777   4.007   2.045  1.2612 -0.1013  2.1599
18250TIP3   OH276240   3.753   1.901   2.500 -0.4114  0.1084  0.0971
18250TIP3    H176241   3.848   1.901   2.485 -0.5065 -1.4393 -0.6480
18250TIP3    H276242   3.718   1.840   2.435 -2.1767  2.2587 -1.1038
18251TIP3   OH276243   3.575   6.362  14.860  0.0381  0.6036 -0.0503
18251TIP3    H176244   3.511   6.303  14.819  0.2426  1.1349 -1.1695
18251TIP3    H276245   3.660   6.323  14.839  0.1059 -0.6345  2.2557
18252TIP3   OH276246   4.544   3.764   6.040  0.0584 -0.6777 -0.5092
18252TIP3    H176247   4.494   3.746   6.120 -0.3232  1.1835 -0.2811
18252TIP3    H276248   4.575   3.854   6.052  1.1849 -0.8659 -1.8525
18253TIP3   OH276249   2.992   0.483  12.479 -0.3252  0.3079 -0.1629
18253TIP3    H176250   3.053   0.555  12.491 -0.8857  0.5238  1.6620
18253TIP3    H276251   3.040   0.405  12.506 -0.6262  0.3920  0.6393
18254TIP3   OH276252   3.364   1.972   1.948 -0.0345  0.2170 -0.3870
18254TIP3    H176253   3.316   1.892   1.971  0.0577  0.4503  0.6641
18254TIP3    H276254   3.412   1.995   2.027  0.0350  1.2513 -0.7148
18255TIP3   OH276255   3.229   1.730   2.037 -0.4151  0.3802  0.1534
18255TIP3    H176256   3.146   1.696   2.004  0.1342  0.0780 -0.9403
18255TIP3    H276257   3.217   1.733   2.132 -1.1057 -1.2012  0.1472
18256TIP3   OH276258   5.004   0.862  15.199 -0.3623 -0.1405  0.1869
18256TIP3    H176259   5.015   0.773  15.235  0.6595 -0.6390 -1.2796
18256TIP3    H276260   5.093   0.891  15.181 -0.7883  0.5980 -0.7519
18257TIP3   OH276261   5.402   0.389  15.513  0.4377 -0.6021 -0.1489
18257TIP3    H176262   5.423   0.419  15.602 -2.3828  0.6405  0.1725
18257TIP3    H276263   5.477   0.418  15.461  0.7365  1.4703  1.2777
18258TIP3   OH276264   4.457   2.869   1.213 -0.0498  1.1896  0.0233
18258TIP3    H176265   4.540   2.863   1.165 -0.9396 -0.8845 -1.3556
18258TIP3    H276266   4.477   2.832   1.299  0.1952 -0.4494 -0.7105
18259TIP3   OH276267   2.687   2.793   3.202  0.5177 -0.3978 -0.1131
18259TIP3    H176268   2.778   2.813   3.227 -0.5323  1.0575  3.1823
18259TIP3    H276269   2.667   2.711   3.248 -0.0831 -0.2245 -0.0556
18260TIP3   OH276270   2.637   2.193   0.666 -0.2195 -0.2125  0.3270
18260TIP3    H176271   2.636   2.191   0.762 -0.0035 -0.2347  0.3287
18260TIP3    H276272   2.681   2.274   0.643 -0.1590 -0.2680  0.2458
18261TIP3   OH276273   3.454   0.513  15.257 -0.1556 -0.4665 -0.5994
18261TIP3    H176274   3.543   0.539  15.281 -0.8184 -0.2561  1.8083
18261TIP3    H276275   3.433   0.569  15.182  0.7297  1.5096  0.5431
18262TIP3   OH276276   2.871   2.484  12.521 -0.1545 -0.1105 -0.3892
18262TIP3    H176277   2.790   2.495  12.471  0.1589  0.5899 -0.7657
18262TIP3    H276278   2.848   2.425  12.592 -0.8347 -0.4236 -0.8593
18263TIP3   OH276279   0.915   1.992  11.393  0.4730  0.4546  0.9110
18263TIP3    H176280   0.959   2.048  11.328  0.4886 -0.5972 -0.0170
18263TIP3    H276281   0.976   1.920  11.408 -0.3219 -0.2967  0.6541
18264TIP3   OH276282   3.247   0.946  17.220  0.1824  0.1674  0.6260
18264TIP3    H176283   3.195   0.866  17.228 -0.7204  0.6241 -0.3773
18264TIP3    H276284   3.335   0.915  17.196 -0.3037 -0.5184 -0.3475
18265TIP3   OH276285   1.916   5.818   5.862 -0.1907  0.2367  0.2586
18265TIP3    H176286   1.836   5.789   5.907  0.2776 -1.2525  0.1708
18265TIP3    H276287   1.980   5.828   5.932 -0.2028  0.5442  0.2252
18266TIP3   OH276288   2.583   3.941   1.920  0.0310  0.3606  0.2572
18266TIP3    H176289   2.663   3.988   1.898  0.7176 -1.0285 -0.3357
18266TIP3    H276290   2.550   3.908   1.836 -0.7526  0.2899  0.5847
18267TIP3   OH276291   3.185   6.028   1.164 -0.6897 -0.0357 -0.7364
18267TIP3    H176292   3.125   6.042   1.237 -0.0808  1.2873 -0.4535
18267TIP3    H276293   3.253   6.095   1.176  0.1667 -0.6889 -1.7419
18268TIP3   OH276294   1.704   2.555  11.998  0.1026 -0.1602 -0.2373
18268TIP3    H176295   1.681   2.614  11.926  2.2262 -0.1279 -0.9659
18268TIP3    H276296   1.782   2.509  11.966  0.8894 -0.4102  1.9151
18269TIP3   OH276297   1.789   4.362   1.126  0.7365  0.4380 -0.2387
18269TIP3    H176298   1.868   4.361   1.072  0.1621  2.4519 -1.1908
18269TIP3    H276299   1.717   4.353   1.063  0.1384 -0.1208  0.5026
18270TIP3   OH276300   6.451   1.453  15.321  0.1471 -0.3381 -0.1792
18270TIP3    H176301   6.370   1.416  15.357  0.6081 -0.2729  0.9932
18270TIP3    H276302   6.433   1.547  15.314  0.0911 -0.3307  0.0343
18271TIP3   OH276303   5.873   5.063  13.348 -0.3372  0.4315  0.0446
18271TIP3    H176304   5.842   4.992  13.291 -1.5945  0.7434  0.3070
18271TIP3    H276305   5.832   5.142  13.311  0.4767  0.9248  0.1822
18272TIP3   OH276306   4.163   4.565   0.577 -0.7782 -0.2307 -0.5789
18272TIP3    H176307   4.139   4.578   0.669  1.2842 -0.7781  0.0931
18272TIP3    H276308   4.110   4.490   0.549  0.6334 -1.9646  1.0955
18273TIP3   OH276309   4.729   1.263   4.294 -0.2404 -0.3062 -0.1343
18273TIP3    H176310   4.770   1.253   4.380  0.2241  1.1588 -0.1574
18273TIP3    H276311   4.768   1.194   4.241  1.8765  0.7123 -0.0083
18274TIP3   OH276312   2.351   5.483   4.298  0.4352 -0.4276  0.3290
18274TIP3    H176313   2.282   5.428   4.262  1.2994 -0.7580 -0.9029
18274TIP3    H276314   2.407   5.503   4.222  1.5023  0.0868  1.2273
18275TIP3   OH276315   5.119   2.480   0.444  0.1198  0.0417  0.1217
18275TIP3    H176316   5.081   2.552   0.394 -0.6620  1.6470  2.8576
18275TIP3    H276317   5.049   2.454   0.504  1.5346 -0.6929  1.4960
18276TIP3   OH276318   5.320   6.364  14.806  0.4448 -0.4121 -0.5425
18276TIP3    H176319   5.353   6.286  14.851  0.1655  0.6390  1.5673
18276TIP3    H276320   5.384   6.380  14.737  1.6568 -1.2654  0.3497
18277TIP3   OH276321   3.362   6.580   5.314  0.3247  0.0472  0.2359
18277TIP3    H176322   3.354   6.503   5.371  0.1925  0.2020  0.4295
18277TIP3    H276323   3.296   6.567   5.247  0.8587 -0.4149 -0.2175
18278TIP3   OH276324   4.583   2.031   3.725  0.3445 -0.0220  0.9210
18278TIP3    H176325   4.608   2.083   3.649  0.1816 -1.0208  0.1705
18278TIP3    H276326   4.564   2.096   3.793  0.7151  0.8745  0.1899
18279TIP3   OH276327   4.686   5.819   0.509 -0.3757 -0.2395  0.6577
18279TIP3    H176328   4.752   5.885   0.532 -0.6500  0.5349 -0.6621
18279TIP3    H276329   4.619   5.828   0.577  0.5834 -0.6244  1.6724
18280TIP3   OH276330   0.708   2.563   2.876  0.0417 -0.2937 -0.3480
18280TIP3    H176331   0.645   2.630   2.850 -0.2147 -0.3580  0.1121
18280TIP3    H276332   0.673   2.526   2.957  1.4983  0.8023  0.8369
18281TIP3   OH276333   3.327   4.862   1.505  0.5322  0.0663 -0.6377
18281TIP3    H176334   3.345   4.835   1.594  0.9741 -0.6988 -0.9552
18281TIP3    H276335   3.308   4.956   1.512 -0.8107 -0.2530  0.4351
18282TIP3   OH276336   5.279   2.222  11.538 -0.0627 -0.9614  0.6690
18282TIP3    H176337   5.184   2.229  11.526  0.2824  0.5341 -2.4858
18282TIP3    H276338   5.297   2.128  11.540 -1.5010 -1.2975 -0.5798
18283TIP3   OH276339   3.922   1.312   5.853  0.2036 -0.3873  0.5131
18283TIP3    H176340   3.948   1.398   5.819 -0.4746 -0.3091  0.1822
18283TIP3    H276341   3.924   1.321   5.948 -4.0053  1.3388  0.6401
18284TIP3   OH276342   3.685   3.779  11.349  0.5735  0.4319 -0.3825
18284TIP3    H176343   3.620   3.713  11.373  1.5924 -0.3240  0.3886
18284TIP3    H276344   3.685   3.778  11.253 -0.2479  0.1490 -0.3886
18285TIP3   OH276345   1.220   5.215  13.401  0.1621 -0.8715 -0.4901
18285TIP3    H176346   1.296   5.177  13.446  0.8628  2.7330  1.8413
18285TIP3    H276347   1.252   5.235  13.313  1.9103  0.2300  0.3352
18286TIP3   OH276348   0.196   5.608   0.854  0.1638  0.7224 -0.0084
18286TIP3    H176349   0.174   5.627   0.946  2.7274  0.6566  0.6868
18286TIP3    H276350   0.259   5.536   0.859  0.3413  0.7103 -1.8440
18287TIP3   OH276351   2.784   5.815   4.221 -0.5865 -0.1860  0.1282
18287TIP3    H176352   2.762   5.795   4.312  1.9699  1.1217  1.1245
18287TIP3    H276353   2.809   5.730   4.184  0.8139 -0.4092  1.4507
18288TIP3   OH276354   0.951   3.123   2.682 -0.2587 -0.1753 -0.1571
18288TIP3    H176355   1.020   3.183   2.709  0.7618 -0.5204 -1.8758
18288TIP3    H276356   0.951   3.055   2.750  1.6206 -0.5568 -0.4823
18289TIP3   OH276357   0.170   5.073  14.944 -0.2701 -0.1578 -0.5967
18289TIP3    H176358   0.133   5.041  14.861  0.8884 -3.6988  0.0684
18289TIP3    H276359   0.263   5.086  14.924 -0.3348  0.8594 -0.2825
18290TIP3   OH276360   5.413   0.037   2.320 -0.3811  0.4312 -0.2739
18290TIP3    H176361   5.483   0.074   2.374  2.0605 -0.2068 -2.7687
18290TIP3    H276362   5.394   0.105   2.256 -1.2349  0.1579 -0.3145
18291TIP3   OH276363   3.614   2.412   0.250  0.1106  0.6886  0.5136
18291TIP3    H176364   3.590   2.324   0.221 -0.5657  1.2375 -0.6786
18291TIP3    H276365   3.532   2.462   0.244 -0.2681  0.7356  4.0420
18292TIP3   OH276366   0.366   0.224  13.123  0.2180  0.2220 -0.2629
18292TIP3    H176367   0.419   0.221  13.203  2.1349 -0.2476 -1.4571
18292TIP3    H276368   0.394   0.304  13.078 -1.6750  1.0889  0.0397
18293TIP3   OH276369   5.463   4.964   0.665 -0.7284 -0.1062 -0.0998
18293TIP3    H176370   5.525   4.965   0.737  0.7546  1.5636 -1.3104
18293TIP3    H276371   5.420   5.050   0.669 -2.5037 -0.9608  0.2897
18294TIP3   OH276372   3.098   3.003   3.361 -0.2438 -0.0787 -0.0861
18294TIP3    H176373   3.193   3.006   3.377 -0.2315  0.8126 -0.2881
18294TIP3    H276374   3.061   2.986   3.448  0.0291  1.0776  0.2773
18295TIP3   OH276375   4.690   6.556   1.143 -0.5091  0.1671 -0.2841
18295TIP3    H176376   4.776   6.549   1.102 -0.2090  0.0642  0.3618
18295TIP3    H276377   4.660   6.644   1.122 -0.1057  0.3172 -0.2203
18296TIP3   OH276378   1.715   2.549  12.288  0.5638 -0.2001  0.3428
18296TIP3    H176379   1.725   2.527  12.195  0.7558  1.9860 -0.2256
18296TIP3    H276380   1.804   2.564  12.319  0.4505 -0.2588  0.7006
18297TIP3   OH276381   2.155   2.088  11.628 -0.5593 -0.7611 -0.2458
18297TIP3    H176382   2.204   2.010  11.602 -0.1415 -0.4622 -0.3550
18297TIP3    H276383   2.194   2.159  11.578 -2.3514 -0.8086 -1.8471
18298TIP3   OH276384   6.500   0.972   2.662  0.5553  0.1193  0.6060
18298TIP3    H176385   6.486   0.894   2.715  0.6975 -0.1123  0.3080
18298TIP3    H276386   6.592   0.994   2.674  0.5558  0.1445  0.5587
18299TIP3   OH276387   5.007   0.195  11.827  0.2011 -0.0246  0.6733
18299TIP3    H176388   5.008   0.227  11.737 -2.0909  1.7502  1.1762
18299TIP3    H276389   5.098   0.204  11.856  1.1828 -1.4563 -1.6554
18300TIP3   OH276390   5.620   5.621  15.629 -0.2368 -0.0433 -0.4596
18300TIP3    H176391   5.552   5.623  15.561 -3.2611 -0.6537  2.3243
18300TIP3    H276392   5.614   5.533  15.666  3.1360 -0.6319 -0.9021
18301TIP3   OH276393   3.938   4.448  13.508 -0.0642 -0.3745  0.4382
18301TIP3    H176394   3.996   4.390  13.558  1.8381 -0.8457 -2.1254
18301TIP3    H276395   3.927   4.405  13.423 -0.9089  1.6697 -0.5636
18302TIP3   OH276396   3.014   0.704  13.424  0.0765 -0.3782 -0.3677
18302TIP3    H176397   2.983   0.717  13.513  1.7317 -0.6234  0.2746
18302TIP3    H276398   3.055   0.787  13.399 -0.9814 -0.0740 -1.1837
18303TIP3   OH276399   5.585   1.248   2.724  0.3224  0.0206 -0.2632
18303TIP3    H176400   5.506   1.259   2.671 -1.2544 -1.1440  1.7178
18303TIP3    H276401   5.554   1.243   2.814  2.8400  1.2922  0.7943
18304TIP3   OH276402   1.987   2.052  16.892  0.3579  0.7731 -0.2288
18304TIP3    H176403   1.992   1.960  16.868  1.5108  0.5394  0.8531
18304TIP3    H276404   2.014   2.099  16.813 -0.9791  0.2440 -1.0374
18305TIP3   OH276405   3.680   1.836  11.749 -0.2530 -0.0648 -0.1872
18305TIP3    H176406   3.603   1.831  11.805 -0.3242 -0.3931 -0.3154
18305TIP3    H276407   3.709   1.927  11.758 -1.5139  0.4755 -1.2847
18306TIP3   OH276408   1.838   4.625   1.531 -0.0308  0.3740 -0.0124
18306TIP3    H176409   1.776   4.622   1.603 -0.0889 -0.8485 -0.0839
18306TIP3    H276410   1.785   4.610   1.453  0.3609 -1.0396 -0.0426
18307TIP3   OH276411   5.198   2.414  15.159  0.0397  0.1081  0.1554
18307TIP3    H176412   5.114   2.427  15.116 -1.6395  1.3771  3.4981
18307TIP3    H276413   5.250   2.491  15.134 -1.1212  1.1346  0.8104
18308TIP3   OH276414   5.413   2.682   4.579  0.7483 -0.9195 -0.0946
18308TIP3    H176415   5.442   2.639   4.499 -0.6576 -0.1775 -1.0563
18308TIP3    H276416   5.484   2.743   4.600 -0.2316  1.3796 -2.7919
18309TIP3   OH276417   4.409   5.311  14.204 -0.0218 -0.5644  0.2623
18309TIP3    H176418   4.367   5.226  14.197  0.2995 -0.7340  0.3776
18309TIP3    H276419   4.394   5.339  14.294  0.2420 -0.6965  0.3497
18310TIP3   OH276420   4.123   1.098  16.570 -0.5078  0.1788  0.1962
18310TIP3    H176421   4.203   1.150  16.579 -1.1883  1.5039 -1.0752
18310TIP3    H276422   4.123   1.069  16.479 -1.0345 -0.5764  0.4294
18311TIP3   OH276423   3.676   1.384  11.008 -0.3668 -0.0839  0.1186
18311TIP3    H176424   3.600   1.376  11.067  0.0145 -0.0979  0.6170
18311TIP3    H276425   3.646   1.443  10.939 -0.6519  0.3677  0.6160
18312TIP3   OH276426   3.128   5.189  10.909 -0.0404  0.2680  0.3981
18312TIP3    H176427   3.095   5.278  10.923 -0.6793 -0.0247  0.8570
18312TIP3    H276428   3.117   5.173  10.815  2.2214  1.4773 -0.1358
18313TIP3   OH276429   1.550   3.512  10.358  0.3363  0.7455 -0.0874
18313TIP3    H176430   1.589   3.525  10.271  0.1223 -0.9331 -0.4688
18313TIP3    H276431   1.547   3.417  10.369 -3.9455  0.6528 -0.2568
18314TIP3   OH276432   6.255   4.263  13.163  0.6950  0.2952  0.2000
18314TIP3    H176433   6.225   4.345  13.123 -0.0557 -0.2812 -0.4670
18314TIP3    H276434   6.209   4.259  13.247 -1.9257 -0.9961 -1.1749
18315TIP3   OH276435   2.616   4.781   5.809  0.0039  0.9788  1.2895
18315TIP3    H176436   2.686   4.716   5.813 -0.4595  0.2811 -0.7873
18315TIP3    H276437   2.627   4.833   5.889  0.8717 -1.1420  2.6271
18316TIP3   OH276438   1.144   1.966  12.518  0.1692  0.3698 -0.7250
18316TIP3    H176439   1.101   1.883  12.539 -2.2132  1.8224  0.7322
18316TIP3    H276440   1.203   1.981  12.592 -0.4202  0.5673 -0.2787
18317TIP3   OH276441   5.667   3.621  12.803  0.8291  0.8129  0.4060
18317TIP3    H176442   5.683   3.709  12.769 -1.2277  1.0362 -0.1571
18317TIP3    H276443   5.689   3.627  12.896  2.2646  1.4426  0.0604
18318TIP3   OH276444   2.621   6.046   5.625 -0.6355 -0.0890  0.7305
18318TIP3    H176445   2.600   6.066   5.534  0.1234 -0.7280  0.4028
18318TIP3    H276446   2.552   5.986   5.653 -0.0215 -1.1617  0.0594
18319TIP3   OH276447   3.640   5.781  14.883  0.6316 -0.3403  0.1742
18319TIP3    H176448   3.725   5.827  14.881  1.1727 -1.2613  1.0815
18319TIP3    H276449   3.646   5.723  14.958 -0.6110 -0.8346 -0.0857
18320TIP3   OH276450   0.766   3.403   1.310 -0.0194 -0.0246 -0.3627
18320TIP3    H176451   0.856   3.408   1.340 -0.2902  4.2709  0.3627
18320TIP3    H276452   0.725   3.339   1.368  2.2501 -1.3634 -0.0991
18321TIP3   OH276453   5.523   1.524  16.620  0.3417 -0.3102  0.0264
18321TIP3    H176454   5.559   1.459  16.681  1.4247 -0.4526 -0.7217
18321TIP3    H276455   5.477   1.586  16.675 -0.8448 -1.7711  0.7542
18322TIP3   OH276456   2.325   5.176  14.873  0.2905 -0.3516  0.5907
18322TIP3    H176457   2.281   5.092  14.889  0.3064 -0.4483  0.1206
18322TIP3    H276458   2.418   5.157  14.884  0.2291 -0.1565  1.5443
18323TIP3   OH276459   1.783   4.792   4.748 -0.0444  0.4178  0.0014
18323TIP3    H176460   1.791   4.728   4.819  0.1724  0.6544  0.1910
18323TIP3    H276461   1.711   4.759   4.694 -0.9493  0.7917  0.9286
18324TIP3   OH276462   0.982   2.273  12.901 -0.3045  0.1605 -0.4647
18324TIP3    H176463   1.027   2.234  12.975 -0.1823  3.0265  1.1177
18324TIP3    H276464   1.039   2.254  12.826  0.8972 -0.6362  0.6057
18325TIP3   OH276465   5.097   2.365   3.183 -0.0943 -0.2731 -0.0295
18325TIP3    H176466   5.080   2.403   3.269  1.3427 -0.3958  0.3364
18325TIP3    H276467   5.075   2.273   3.193 -1.3838 -0.0151 -0.2589
18326TIP3   OH276468   0.693   4.272   4.774  0.5476  0.2649 -0.3973
18326TIP3    H176469   0.717   4.190   4.732  0.1200 -0.6000  0.9800
18326TIP3    H276470   0.765   4.292   4.833  0.4697  0.6656 -0.4330
18327TIP3   OH276471   0.014   6.809  11.560 -0.1613  0.1181 -0.3093
18327TIP3    H176472   0.033   6.786  11.469  1.2829  0.6899 -0.1886
18327TIP3    H276473  -0.075   6.844  11.559 -0.8574 -1.5788 -1.1702
18328TIP3   OH276474   1.308   2.444   0.223 -0.2179 -0.1330  0.4704
18328TIP3    H176475   1.401   2.461   0.211 -0.6476  1.6700 -0.6539
18328TIP3    H276476   1.290   2.367   0.169  0.4323  0.0990 -0.0777
18329TIP3   OH276477   0.831   0.853   3.832 -0.3137 -0.0098  0.0035
18329TIP3    H176478   0.805   0.900   3.911  1.0409  1.3759 -0.3272
18329TIP3    H276479   0.891   0.785   3.863  2.8519  2.5473  0.0111
18330TIP3   OH276480   1.407   2.941   0.828  0.1915  0.3596 -0.4606
18330TIP3    H176481   1.413   2.886   0.750 -0.7515 -0.0033 -0.2957
18330TIP3    H276482   1.373   3.024   0.796 -1.2199 -0.1368 -0.3040
18331TIP3   OH276483   0.237   3.127  12.704  0.3062 -0.1245  0.1336
18331TIP3    H176484   0.202   3.215  12.693  1.4707  0.5530  1.5666
18331TIP3    H276485   0.175   3.083  12.763 -0.3282 -0.3263 -0.6606
18332TIP3   OH276486   0.376   2.042  11.093  0.1522  0.1855 -0.5370
18332TIP3    H176487   0.377   2.031  11.188 -0.8236 -0.3133 -0.5718
18332TIP3    H276488   0.290   2.010  11.066  0.5955 -0.1381 -1.6441
18333TIP3   OH276489   4.255   0.186  14.118 -0.3568 -0.3132  0.0149
18333TIP3    H176490   4.276   0.181  14.211 -1.1118 -0.1324  0.2023
18333TIP3    H276491   4.340   0.193  14.074 -0.0453  1.9296  0.8434
18334TIP3   OH276492   4.668   5.176  12.976  0.0728  0.3779 -0.5872
18334TIP3    H176493   4.608   5.146  13.045  0.4940  0.1965 -0.2960
18334TIP3    H276494   4.623   5.152  12.894 -0.5538  0.8409 -0.3864
18335TIP3   OH276495   1.216   2.935   4.598 -0.3294 -0.4025 -0.1722
18335TIP3    H176496   1.237   2.962   4.688  0.7806  0.8255 -0.7541
18335TIP3    H276497   1.170   2.852   4.608  2.0319 -1.6652  1.4304
18336TIP3   OH276498   3.939   2.466   4.418  0.4721  0.0062 -0.0439
18336TIP3    H176499   3.963   2.387   4.467 -1.5189 -1.0025 -0.5949
18336TIP3    H276500   4.021   2.516   4.411  1.1050 -0.3878  3.1665
18337TIP3   OH276501   5.167   1.909  13.813 -0.6747  0.7906  0.4879
18337TIP3    H176502   5.202   1.826  13.845  1.4228  2.0838  1.7381
18337TIP3    H276503   5.131   1.888  13.727  0.5241 -1.2446  0.4155
18338TIP3   OH276504   0.442   3.753  10.952 -0.9217 -0.2165 -0.4453
18338TIP3    H176505   0.506   3.698  10.998 -2.0056 -2.5169 -1.4935
18338TIP3    H276506   0.442   3.719  10.862  0.5574  3.5888 -2.0680
18339TIP3   OH276507   1.830   6.386  14.591 -0.7146  0.6540  0.5318
18339TIP3    H176508   1.747   6.341  14.585 -0.8389  0.9055  0.3504
18339TIP3    H276509   1.896   6.319  14.574 -0.8135  0.1799  1.8927
18340TIP3   OH276510   3.270   1.760  12.086  0.1333 -0.4033 -0.6109
18340TIP3    H176511   3.314   1.676  12.103 -0.8674 -1.3522 -2.3521
18340TIP3    H276512   3.201   1.765  12.152  0.5025 -0.7359 -0.1948
18341TIP3   OH276513   4.425   3.526  12.102  0.7320  0.0380 -0.0723
18341TIP3    H176514   4.497   3.475  12.140  1.7180  0.8403 -0.7887
18341TIP3    H276515   4.365   3.542  12.175  1.2433 -0.7178  0.5271
18342TIP3   OH276516   3.072   5.807   3.986  0.8962 -0.4873  0.6716
18342TIP3    H176517   3.036   5.726   4.022  2.1324 -0.4079  2.1833
18342TIP3    H276518   3.028   5.817   3.901 -1.3369 -1.2490  1.6617
18343TIP3   OH276519   5.800   0.423   1.358  0.3231  0.3710  0.1449
18343TIP3    H176520   5.758   0.371   1.289 -3.6100  2.0286  1.0125
18343TIP3    H276521   5.787   0.373   1.438 -1.3684  1.4925  0.6239
18344TIP3   OH276522   5.003   0.464  13.511 -0.2725  0.6141  0.0899
18344TIP3    H176523   5.091   0.428  13.521 -1.0513 -1.5720 -0.4882
18344TIP3    H276524   4.986   0.507  13.595  0.9623  0.2190  0.5746
18345TIP3   OH276525   3.080   6.758   3.273  0.1614 -0.1158  0.1309
18345TIP3    H176526   3.006   6.763   3.212 -0.6183 -0.0173  1.0562
18345TIP3    H276527   3.044   6.788   3.357  1.5903  1.2638  0.3176
18346TIP3   OH276528   5.825   1.162  15.431  0.1395 -0.6119  0.6599
18346TIP3    H176529   5.812   1.085  15.486 -0.6849 -0.7835  0.2378
18346TIP3    H276530   5.778   1.232  15.475 -1.6618 -1.0520 -0.4624
18347TIP3   OH276531   5.779   1.273  12.193  0.4327 -0.2662  0.0387
18347TIP3    H176532   5.799   1.213  12.121  2.0492 -1.9738  1.7674
18347TIP3    H276533   5.727   1.221  12.254  2.2818 -0.1565  1.8105
18348TIP3   OH276534   4.385   3.760   0.451 -0.0743  0.0120 -0.4869
18348TIP3    H176535   4.387   3.790   0.360  1.0790  0.3452 -0.3645
18348TIP3    H276536   4.360   3.668   0.445 -1.1614  0.3141 -1.0451
18349TIP3   OH276537   4.322   6.062  13.295 -0.3712 -0.2716  0.4581
18349TIP3    H176538   4.352   6.120  13.365  1.5888 -0.0174 -0.5417
18349TIP3    H276539   4.290   6.121  13.227 -2.4243 -0.5239  1.1358
18350TIP3   OH276540   4.447   0.088   6.641  0.2038  0.0722 -0.5458
18350TIP3    H176541   4.457   0.131   6.556 -0.5614  1.9294  0.2538
18350TIP3    H276542   4.509   0.015   6.639  2.3395  1.8097 -1.6011
18351TIP3   OH276543   6.158   4.879   1.496  0.6438  0.4751  0.2657
18351TIP3    H176544   6.240   4.894   1.542  2.1240  0.3173 -2.1522
18351TIP3    H276545   6.110   4.961   1.504  0.9178  0.5114  1.8514
18352TIP3   OH276546   5.575   5.457  12.623 -0.1211 -0.9422  0.0245
18352TIP3    H176547   5.644   5.427  12.682  0.9139 -1.1136 -1.2306
18352TIP3    H276548   5.621   5.512  12.559 -0.9334 -2.0882 -1.5799
18353TIP3   OH276549   6.414   3.722  15.768 -0.0275  0.0099  0.8665
18353TIP3    H176550   6.507   3.708  15.749  0.0165  0.6027  0.6210
18353TIP3    H276551   6.411   3.736  15.863  0.4542  2.2852  0.6047
18354TIP3   OH276552   6.708   3.482   3.983 -0.8334  0.4539  0.2677
18354TIP3    H176553   6.677   3.561   3.938 -0.6651  1.6510  2.1643
18354TIP3    H276554   6.632   3.451   4.032 -0.6858 -0.1621  0.1179
18355TIP3   OH276555   4.457   5.787   1.576  0.2724  0.3016  0.0419
18355TIP3    H176556   4.547   5.755   1.566  0.6724  0.6471  2.1135
18355TIP3    H276557   4.451   5.862   1.518  1.4385  0.4840  0.1389
18356TIP3   OH276558   2.046   2.612  16.145 -0.1386  0.4216 -0.2386
18356TIP3    H176559   2.011   2.527  16.119  0.7560  0.0254 -0.1950
18356TIP3    H276560   2.032   2.616  16.240  0.4187  0.0260 -0.1355
18357TIP3   OH276561   0.161   3.137   5.228 -0.0066  0.0083 -0.0302
18357TIP3    H176562   0.227   3.193   5.269  0.4544 -1.5287  1.4497
18357TIP3    H276563   0.082   3.191   5.224  0.6329  1.0233  0.5912
18358TIP3   OH276564   2.556   0.145   5.606  0.3048  0.1666  0.0766
18358TIP3    H176565   2.628   0.126   5.665  0.7183  0.0198 -0.4716
18358TIP3    H276566   2.597   0.181   5.528  0.1782 -3.1008 -1.6895
18359TIP3   OH276567   2.298   4.343  14.521 -0.6626  0.4554  0.3619
18359TIP3    H176568   2.294   4.354  14.615  2.3505  0.2999  0.6156
18359TIP3    H276569   2.285   4.430  14.485  0.3128  0.9107  1.0744
18360TIP3   OH276570   0.340   3.520   2.949  0.1033  0.1315  0.3783
18360TIP3    H176571   0.435   3.523   2.938  0.2406 -0.2360  1.3580
18360TIP3    H276572   0.306   3.585   2.887  0.9054 -0.5765 -0.8362
18361TIP3   OH276573   0.333   0.717   4.426 -0.6746  0.1604 -0.7905
18361TIP3    H176574   0.363   0.637   4.468 -1.2960  0.7890  0.9496
18361TIP3    H276575   0.395   0.731   4.354  0.4271 -0.9937 -0.1133
18362TIP3   OH276576   5.315   1.675   1.268 -0.2928 -0.0719  0.5487
18362TIP3    H176577   5.355   1.606   1.321 -0.8552 -0.2626  0.7309
18362TIP3    H276578   5.337   1.756   1.313  1.7506  0.0310 -0.5278
18363TIP3   OH276579   0.150   4.547  15.952  0.5068  0.1809  0.4395
18363TIP3    H176580   0.154   4.637  15.918  1.5508  0.9168  2.3247
18363TIP3    H276581   0.222   4.543  16.015 -1.5268 -0.9316  2.8281
18364TIP3   OH276582   2.584   3.321   0.117  0.4467 -0.6168 -0.7684
18364TIP3    H176583   2.608   3.357   0.032  3.1021  0.2060  0.2305
18364TIP3    H276584   2.595   3.226   0.107  1.1480 -0.4946 -1.2409
18365TIP3   OH276585   6.264   4.193  16.675  0.1853 -0.2008  0.1722
18365TIP3    H176586   6.287   4.188  16.768  0.9456 -0.7169 -0.0395
18365TIP3    H276587   6.218   4.110  16.658  1.3996 -0.8147 -0.2610
18366TIP3   OH276588   2.700   1.158   4.740 -0.0062 -0.3850  0.3477
18366TIP3    H176589   2.614   1.190   4.769  0.9130  0.6233  2.1885
18366TIP3    H276590   2.723   1.091   4.805  0.9516 -0.0447  0.3684
18367TIP3   OH276591   5.799   4.500  13.961 -0.1164  0.2848 -0.3109
18367TIP3    H176592   5.803   4.405  13.963  0.5632  0.3063 -0.4825
18367TIP3    H276593   5.873   4.528  14.015  1.0956  0.7181 -2.1103
18368TIP3   OH276594   3.909   3.272   3.435  0.1114  0.2019 -0.6509
18368TIP3    H176595   3.983   3.248   3.380  0.7054  0.8540 -0.1565
18368TIP3    H276596   3.947   3.323   3.506 -0.9530  1.5445 -1.0031
18369TIP3   OH276597   6.286   6.716  15.720  0.6477 -0.1701 -0.3185
18369TIP3    H176598   6.309   6.808  15.707 -0.2346  0.2959  1.1154
18369TIP3    H276599   6.335   6.689  15.798  1.0093 -0.9533 -0.8132
18370TIP3   OH276600   4.103   3.317   2.371  0.3472 -0.4201  0.2917
18370TIP3    H176601   4.119   3.233   2.327  0.3981 -0.2667  0.0136
18370TIP3    H276602   4.177   3.328   2.430  1.8022  0.7134 -1.6325
18371TIP3   OH276603   5.253   3.275  10.599  0.1238 -0.6850 -0.0889
18371TIP3    H176604   5.265   3.224  10.679 -1.2921 -0.5766  0.2345
18371TIP3    H276605   5.158   3.288  10.594  0.3905  1.5273 -0.3883
18372TIP3   OH276606   0.361   3.748  16.140 -0.0504 -0.3022 -0.0058
18372TIP3    H176607   0.391   3.832  16.173 -1.2025  0.8481 -1.7235
18372TIP3    H276608   0.266   3.750  16.150 -0.0639 -1.5871  0.3105
18373TIP3   OH276609   6.366   2.695  10.647 -0.1121 -0.0460  0.1319
18373TIP3    H176610   6.441   2.753  10.637 -0.8637  0.9644  0.1910
18373TIP3    H276611   6.398   2.610  10.618  0.8830  0.4886 -0.4082
18374TIP3   OH276612   0.090   4.088   4.103 -0.7987 -0.4620  0.2083
18374TIP3    H176613   0.140   4.007   4.096  0.0599  0.0567  0.1149
18374TIP3    H276614   0.151   4.156   4.072 -2.1970 -0.0211 -1.7881
18375TIP3   OH276615   2.177   0.885   0.286 -0.6173 -0.8613 -0.1246
18375TIP3    H176616   2.173   0.975   0.320  1.4002 -0.5292 -0.6708
18375TIP3    H276617   2.087   0.867   0.259 -1.0195  1.1095 -0.2837
18376TIP3   OH276618   6.369   3.887   4.652 -0.1831  0.6031  0.2834
18376TIP3    H176619   6.413   3.967   4.680 -3.3759  2.2586  0.9308
18376TIP3    H276620   6.319   3.913   4.575  0.7465 -1.4977 -1.1222
18377TIP3   OH276621   1.173   3.645   2.870 -0.6141 -0.0458  0.3458
18377TIP3    H176622   1.189   3.733   2.837 -1.9362  0.7848  1.7784
18377TIP3    H276623   1.224   3.588   2.813  0.1004  1.6196 -0.7486
18378TIP3   OH276624   3.749   1.294   1.534  0.7130  0.5252 -0.3959
18378TIP3    H176625   3.669   1.305   1.587  1.0103 -0.0952  0.2017
18378TIP3    H276626   3.770   1.382   1.505 -0.8133  0.5734 -1.5116
18379TIP3   OH276627   4.746   5.711   1.618 -0.1003  0.3366  0.3856
18379TIP3    H176628   4.767   5.791   1.569 -0.5797  0.7468  0.8337
18379TIP3    H276629   4.827   5.691   1.665 -0.7686  2.2341  2.5432
18380TIP3   OH276630   3.673   4.797   0.972 -0.0652  0.5816 -0.8377
18380TIP3    H176631   3.641   4.828   0.887 -0.0819  1.7846 -0.4118
18380TIP3    H276632   3.768   4.800   0.964 -0.0355 -0.7653 -1.3081
18381TIP3   OH276633   0.323   0.876  15.292  0.0557 -0.7027 -0.4479
18381TIP3    H176634   0.279   0.852  15.210 -0.4132 -1.5114  0.0181
18381TIP3    H276635   0.397   0.816  15.297  1.4260  0.8357 -1.3607
18382TIP3   OH276636   0.265   6.576   1.825  0.5654 -0.2514  0.5262
18382TIP3    H176637   0.242   6.528   1.746  0.0316  1.7877 -0.6309
18382TIP3    H276638   0.250   6.668   1.802  2.6966  0.5969  2.1969
18383TIP3   OH276639   3.883   5.473  11.749 -0.0959  0.0694 -0.3751
18383TIP3    H176640   3.788   5.482  11.739  0.0209  0.0896 -1.5265
18383TIP3    H276641   3.895   5.452  11.842 -1.1608  0.8721 -0.0351
18384TIP3   OH276642   0.542   3.185   2.875 -0.1745 -0.0454  0.0911
18384TIP3    H176643   0.565   3.116   2.813 -0.3252 -0.5157  0.5485
18384TIP3    H276644   0.446   3.185   2.876 -0.1748 -0.5967  0.9228
18385TIP3   OH276645   5.062   0.164  13.309  0.0591  0.1478 -0.5916
18385TIP3    H176646   5.111   0.082  13.300  0.5945  0.4397 -0.3756
18385TIP3    H276647   5.022   0.158  13.396 -1.4349 -0.6931 -1.2957
18386TIP3   OH276648   4.661   4.331   2.455 -0.8740  0.3533 -0.1604
18386TIP3    H176649   4.590   4.268   2.458 -1.0200  0.3498 -2.2879
18386TIP3    H276650   4.723   4.295   2.391  0.6987  0.7350  1.0564
18387TIP3   OH276651   6.792   0.562   6.421 -0.1374  1.1419  0.8216
18387TIP3    H176652   6.818   0.470   6.422  1.9558  1.6698  0.4045
18387TIP3    H276653   6.697   0.560   6.432  0.0274 -0.9712  2.8125
18388TIP3   OH276654   2.774   0.157   2.692  0.1981 -0.0212  0.3824
18388TIP3    H176655   2.815   0.106   2.622  0.6645  0.0906  0.5698
18388TIP3    H276656   2.715   0.095   2.735  0.2583 -0.2179  0.1846
18389TIP3   OH276657   4.615   0.923  15.701 -0.3926  0.6501  0.2655
18389TIP3    H176658   4.606   0.847  15.759  1.0913 -0.1955 -0.5222
18389TIP3    H276659   4.584   0.892  15.616  2.3005  0.0890 -0.6263
18390TIP3   OH276660   1.272   6.665  11.170  0.2045 -0.2985 -0.1876
18390TIP3    H176661   1.208   6.733  11.192  1.3945  0.3842  1.3405
18390TIP3    H276662   1.225   6.582  11.187 -0.2387  0.1842  1.0578
18391TIP3   OH276663   5.336   1.497   3.906 -0.1835  0.0496 -0.2666
18391TIP3    H176664   5.267   1.496   3.840 -0.5313 -0.9029  0.0982
18391TIP3    H276665   5.358   1.405   3.920  1.8139  0.3527 -1.0402
18392TIP3   OH276666   5.616   4.761   5.269 -0.1390 -0.4842  0.4749
18392TIP3    H176667   5.597   4.697   5.200  0.0149 -0.5185  0.4632
18392TIP3    H276668   5.653   4.836   5.223  1.9292 -1.2871  0.6732
18393TIP3   OH276669   2.097   5.181  16.636 -0.1215  0.2705 -0.2261
18393TIP3    H176670   2.187   5.198  16.609  0.0048 -0.4300 -0.2644
18393TIP3    H276671   2.067   5.112  16.577 -0.1611 -0.5954  0.7808
18394TIP3   OH276672   4.307   4.813  12.468  0.0708  0.7044 -0.3074
18394TIP3    H176673   4.233   4.752  12.474  0.5971  0.2073  2.3896
18394TIP3    H276674   4.269   4.893  12.430 -1.1676 -0.4723 -1.6408
18395TIP3   OH276675   3.423   0.573   1.802  0.1974  0.2605  0.4930
18395TIP3    H176676   3.461   0.642   1.857 -0.3131  1.4600 -0.6018
18395TIP3    H276677   3.447   0.597   1.713  1.3000 -1.8424  0.1687
18396TIP3   OH276678   5.375   0.059  15.691  0.6713 -0.4623  0.2581
18396TIP3    H176679   5.323   0.139  15.687  1.2186 -0.0910  0.5336
18396TIP3    H276680   5.316  -0.005  15.731  0.3490 -0.1057  0.3620
18397TIP3   OH276681   4.785   0.661  16.086  0.1182 -1.0626  0.0781
18397TIP3    H176682   4.726   0.649  16.011  0.1329 -1.7194  0.1616
18397TIP3    H276683   4.793   0.756  16.095  1.7344 -0.9265 -2.0238
18398TIP3   OH276684   4.260   5.003  16.085 -0.6172  0.4223  0.0164
18398TIP3    H176685   4.249   5.085  16.036  1.4192  1.0013  0.4240
18398TIP3    H276686   4.280   4.938  16.017  0.3875  0.8475 -0.1211
18399TIP3   OH276687   0.730   5.654   4.835  0.1018  0.0267  0.0630
18399TIP3    H176688   0.707   5.577   4.783 -0.9189  0.0573  0.4441
18399TIP3    H276689   0.733   5.623   4.925 -0.7508  0.5123  0.2679
18400TIP3   OH276690   2.159   4.031   2.729  0.0342 -0.2360  0.7546
18400TIP3    H176691   2.170   3.982   2.647  0.9249 -0.8436  1.2122
18400TIP3    H276692   2.073   4.072   2.721 -0.9268 -2.1587  0.4782
18401TIP3   OH276693   3.975   4.929   2.702  0.2960  0.2766 -0.1899
18401TIP3    H176694   4.052   4.932   2.645  1.2010  0.2243  1.0059
18401TIP3    H276695   4.009   4.907   2.789 -0.7361  2.5813  0.8962
18402TIP3   OH276696   2.542   6.005   5.982  0.2318  0.2288 -0.1579
18402TIP3    H176697   2.516   6.095   6.000  0.3242  0.0374  1.0468
18402TIP3    H276698   2.465   5.953   6.003  0.1289  0.0290 -0.9932
18403TIP3   OH276699   3.608   0.586  12.769  0.0316  0.5156  0.2449
18403TIP3    H176700   3.536   0.522  12.768 -1.0062  1.6414 -0.7390
18403TIP3    H276701   3.681   0.541  12.727 -0.5929 -0.1350 -0.1678
18404TIP3   OH276702   4.873   3.742   2.162 -0.0823  0.0947 -0.7167
18404TIP3    H176703   4.957   3.701   2.144 -0.1149 -0.2359 -0.1270
18404TIP3    H276704   4.867   3.743   2.257  0.1608  1.9468 -0.6825
18405TIP3   OH276705   3.470   6.394   1.853  0.0365 -0.1221 -0.2719
18405TIP3    H176706   3.390   6.389   1.801  0.2076 -0.5425 -0.5033
18405TIP3    H276707   3.445   6.355   1.937 -0.0077 -0.2421 -0.3394
18406TIP3   OH276708   5.109   3.583   3.936 -0.1922  0.4294  0.2723
18406TIP3    H176709   5.156   3.564   4.018 -1.0828  0.6761  0.8612
18406TIP3    H276710   5.141   3.669   3.909 -0.2214  0.5462  0.6069
18407TIP3   OH276711   2.317   1.443   0.266  0.0945  0.3031 -0.2590
18407TIP3    H176712   2.256   1.391   0.215  1.0729 -1.7347  0.5593
18407TIP3    H276713   2.399   1.439   0.216  0.5197 -0.0380  0.4591
18408TIP3   OH276714   3.579   2.678   4.395 -0.1280 -0.1648  0.5701
18408TIP3    H176715   3.622   2.647   4.475  1.4530 -0.6129 -0.4233
18408TIP3    H276716   3.569   2.599   4.342 -0.2285  0.2967 -0.1043
18409TIP3   OH276717   5.603   4.204  17.113 -0.3194  0.6156 -0.2208
18409TIP3    H176718   5.695   4.213  17.137 -0.3180 -0.0269  0.0396
18409TIP3    H276719   5.598   4.118  17.070 -1.3752 -0.9195  2.7032
18410TIP3   OH276720   3.149   5.098   3.219  0.9388 -0.4432  0.6978
18410TIP3    H176721   3.223   5.143   3.261  0.1377  0.6253  1.0129
18410TIP3    H276722   3.076   5.112   3.279 -0.1340  0.7777 -0.8428
18411TIP3   OH276723   6.435   5.948  12.697  0.2952 -0.0539  0.4796
18411TIP3    H176724   6.449   5.886  12.625  2.0662  0.9669 -0.1280
18411TIP3    H276725   6.415   6.031  12.653 -2.3629 -0.1813  1.2840
18412TIP3   OH276726   0.629   0.344  16.660 -0.3092 -0.2352  0.5683
18412TIP3    H176727   0.625   0.434  16.627  0.4258 -0.5391 -0.3855
18412TIP3    H276728   0.718   0.335  16.695 -0.0625 -0.8637 -0.1866
18413TIP3   OH276729   0.247   5.865  13.987  0.0006 -0.2987  0.1861
18413TIP3    H176730   0.229   5.875  14.080  0.3267 -1.9848  0.4632
18413TIP3    H276731   0.330   5.909  13.973  0.9843 -1.7853  1.1434
18414TIP3   OH276732   4.369   0.386   1.182 -0.6638 -0.0736  0.4281
18414TIP3    H176733   4.295   0.447   1.174 -1.1637 -0.7743 -0.4165
18414TIP3    H276734   4.343   0.327   1.253 -1.5849 -1.1926 -0.7860
18415TIP3   OH276735   2.030   2.036  16.091 -0.0581  0.7539  0.6073
18415TIP3    H176736   1.946   2.075  16.065  0.8299  1.6644 -1.0429
18415TIP3    H276737   2.031   2.044  16.186 -2.5702 -0.8317  0.8573
18416TIP3   OH276738   2.393   5.741   3.475  0.5536 -0.3650 -0.4483
18416TIP3    H176739   2.473   5.752   3.526 -0.6657  0.9389  1.3102
18416TIP3    H276740   2.324   5.733   3.541 -0.9563  0.1012 -1.9119
18417TIP3   OH276741   5.647   0.846  12.690  0.3405  0.1217 -0.6365
18417TIP3    H176742   5.571   0.903  12.700  0.8761  0.6941  0.3705
18417TIP3    H276743   5.668   0.818  12.779  1.4155  0.1224 -0.8751
18418TIP3   OH276744   3.030   4.515  16.859 -0.0959  0.3269 -0.2794
18418TIP3    H176745   2.982   4.458  16.919  0.8021 -0.5209 -0.3187
18418TIP3    H276746   3.102   4.459  16.827  0.7546  1.4619 -0.4017
18419TIP3   OH276747   3.671   6.663  16.007  0.0274 -0.2516  0.4259
18419TIP3    H176748   3.711   6.749  15.998 -2.1884  0.6693 -2.0708
18419TIP3    H276749   3.717   6.609  15.942 -0.1627 -0.2863  0.3209
18420TIP3   OH276750   4.794   6.706   3.937  0.6133  0.2013  0.4469
18420TIP3    H176751   4.774   6.720   4.029 -1.8490  1.1289 -0.1395
18420TIP3    H276752   4.710   6.682   3.897  1.4889  0.3422 -1.6367
18421TIP3   OH276753   4.327   3.897   3.841  0.1309 -0.3889  0.6662
18421TIP3    H176754   4.323   3.971   3.901 -0.3211 -0.1022  0.2863
18421TIP3    H276755   4.344   3.821   3.898 -1.8181 -0.3585  1.3712
18422TIP3   OH276756   4.456   3.811   1.874 -0.5522 -0.4965 -0.2567
18422TIP3    H176757   4.447   3.881   1.811  1.2285 -0.4221 -0.4813
18422TIP3    H276758   4.380   3.755   1.859 -1.9605  1.2978 -0.1257
18423TIP3   OH276759   2.981   5.037   0.022  0.1639 -1.0375 -0.0345
18423TIP3    H176760   2.956   5.075  -0.063 -0.8162 -0.2480  0.5893
18423TIP3    H276761   2.943   4.950   0.021  0.1533 -1.0329 -0.4057
18424TIP3   OH276762   4.129   0.114   6.871  0.2681  0.3284 -0.4114
18424TIP3    H176763   4.035   0.127   6.874  0.1448 -0.6231  0.4106
18424TIP3    H276764   4.141   0.041   6.810  0.1959 -1.4608  1.5796
18425TIP3   OH276765   4.533   3.413   3.699  0.0938 -0.4212  0.3057
18425TIP3    H176766   4.526   3.436   3.792 -0.8935 -0.3193  0.2134
18425TIP3    H276767   4.454   3.362   3.681 -0.7800  1.3104 -0.9821
18426TIP3   OH276768   6.127   5.702  15.073 -0.0292  0.4020 -0.0317
18426TIP3    H176769   6.203   5.761  15.068  0.7072 -0.6053 -1.2749
18426TIP3    H276770   6.060   5.745  15.021 -0.0727  0.9431  0.4601
18427TIP3   OH276771   5.393   3.289  13.371  0.3581  0.2212 -0.3257
18427TIP3    H176772   5.401   3.299  13.466  0.1974 -0.2099 -0.2642
18427TIP3    H276773   5.483   3.286  13.339  0.4138  0.1569 -0.1632
18428TIP3   OH276774   6.663   0.837   2.015 -0.1704 -0.1276 -0.4771
18428TIP3    H176775   6.670   0.752   1.973 -1.0740 -0.5211  0.1431
18428TIP3    H276776   6.706   0.826   2.100  0.2608  0.2158 -0.6464
18429TIP3   OH276777   6.121   2.532   2.261  0.1963  0.2678 -0.8032
18429TIP3    H176778   6.204   2.574   2.240  2.3652 -3.0580  0.2112
18429TIP3    H276779   6.146   2.448   2.300 -3.6224 -2.2356 -3.0812
18430TIP3   OH276780   5.078   6.445  16.973  0.0317 -0.1643  0.4721
18430TIP3    H176781   4.991   6.469  16.939 -0.0200 -0.8707  0.0773
18430TIP3    H276782   5.060   6.400  17.055 -0.0194 -0.7832  0.1294
18431TIP3   OH276783   0.001   3.502   4.327  0.0591  0.1050  0.3398
18431TIP3    H176784   0.040   3.419   4.301  0.2500  0.1598  0.4568
18431TIP3    H276785  -0.078   3.509   4.272  1.7823  1.4468 -2.1432
18432TIP3   OH276786   1.893   0.638  12.455 -0.7779  0.0900 -0.4528
18432TIP3    H176787   1.949   0.700  12.501  1.1136 -1.0715 -1.0751
18432TIP3    H276788   1.952   0.567  12.430 -3.0411 -2.6059  1.3101
18433TIP3   OH276789   6.809   2.241   5.663  0.0696  0.0376  0.3013
18433TIP3    H176790   6.715   2.234   5.651 -0.0316  2.0726 -0.4842
18433TIP3    H276791   6.838   2.304   5.596  2.1746 -1.4269 -0.2736
18434TIP3   OH276792   1.889   1.651   2.994  0.3665  0.1918  0.1614
18434TIP3    H176793   1.968   1.702   3.010 -0.1502  1.0821 -0.0454
18434TIP3    H276794   1.819   1.716   2.987  0.1115 -0.2794 -3.0603
18435TIP3   OH276795   5.057   4.652   3.681 -0.2727  0.1845 -0.3569
18435TIP3    H176796   4.981   4.596   3.697 -0.5555  0.5319 -0.4737
18435TIP3    H276797   5.037   4.734   3.726  0.1712  0.1689 -0.1264
18436TIP3   OH276798   5.721   1.003   0.016  0.1521 -0.2322 -0.1661
18436TIP3    H176799   5.735   1.025   0.108 -1.7855  1.5520 -0.2215
18436TIP3    H276800   5.795   1.043  -0.030  1.2626 -1.3484  0.6151
18437TIP3   OH276801   4.932   4.940  14.662 -0.5430 -0.1212  0.2081
18437TIP3    H176802   4.921   4.851  14.628 -0.0242 -0.9157  2.0163
18437TIP3    H276803   4.847   4.961  14.702 -0.3299 -0.2326  0.7231
18438TIP3   OH276804   0.252   2.039   0.475  0.6966  0.3214 -0.0143
18438TIP3    H176805   0.325   2.068   0.420  1.2705 -0.2574  0.4400
18438TIP3    H276806   0.220   2.120   0.516  0.1298  0.8055 -1.3200
18439TIP3   OH276807   3.454   5.119  12.136  0.2175  0.5067  0.4330
18439TIP3    H176808   3.396   5.134  12.211  2.1769  0.6703  1.9799
18439TIP3    H276809   3.542   5.121  12.173  1.1920 -0.9741 -1.6404
18440TIP3   OH276810   2.851   2.099  11.911 -0.2779 -0.5678  0.7593
18440TIP3    H176811   2.926   2.153  11.888 -0.4618  0.2169  1.8777
18440TIP3    H276812   2.808   2.079  11.828  0.2114  0.4145  0.2530
18441TIP3   OH276813   4.296   2.287  14.148 -0.6256  0.0763  0.0191
18441TIP3    H176814   4.333   2.319  14.066 -0.3732 -1.2883 -0.4242
18441TIP3    H276815   4.216   2.338  14.160 -0.3213  0.7493 -0.7159
18442TIP3   OH276816   0.767   1.472   3.592 -0.2711  0.1025 -0.1370
18442TIP3    H176817   0.821   1.548   3.613 -0.4131  0.1953 -0.1047
18442TIP3    H276818   0.747   1.433   3.677  1.1993 -0.9500 -0.2446
18443TIP3   OH276819   4.398   4.518   3.812 -0.2342 -0.2666  0.5489
18443TIP3    H176820   4.402   4.522   3.716  0.0308 -1.3176  0.5061
18443TIP3    H276821   4.482   4.552   3.842 -0.8032  1.3323  0.4809
18444TIP3   OH276822   0.144   5.899   5.017  0.0642  0.1868 -0.3916
18444TIP3    H176823   0.090   5.821   5.011  1.1481 -0.4779 -3.4292
18444TIP3    H276824   0.229   5.867   5.048 -0.1120  0.5501  0.4862
18445TIP3   OH276825   2.817   4.570   5.845 -0.4143  0.1198  0.3253
18445TIP3    H176826   2.889   4.630   5.865  0.3753 -0.5592 -0.4183
18445TIP3    H276827   2.819   4.506   5.915 -0.2364  0.0555  0.2630
18446TIP3   OH276828   2.094   2.022  15.695 -0.4883  0.1406 -0.3743
18446TIP3    H176829   2.003   2.031  15.723 -0.2855 -0.6345  0.6168
18446TIP3    H276830   2.088   1.993  15.604 -1.4042 -3.5727  0.6956
18447TIP3   OH276831   6.813   4.797  17.189  0.8134 -0.6359  0.1469
18447TIP3    H176832   6.839   4.789  17.097  1.2799 -2.0845  0.3861
18447TIP3    H276833   6.852   4.722  17.232 -0.2343 -0.5242  1.3573
18448TIP3   OH276834   6.643   3.573   5.877  0.1177 -0.0866  0.0066
18448TIP3    H176835   6.577   3.515   5.838 -2.1180  1.3715  1.4303
18448TIP3    H276836   6.670   3.527   5.957 -0.5582  0.1424  0.3730
18449TIP3   OH276837   4.500   1.379   4.412  0.0551 -0.6914  0.0042
18449TIP3    H176838   4.445   1.374   4.333 -0.7615 -0.0928  0.5189
18449TIP3    H276839   4.569   1.314   4.397 -0.5257 -1.1326 -0.8675
18450TIP3   OH276840   1.102   1.959  13.964  0.6179 -0.2159  0.0023
18450TIP3    H176841   1.159   2.028  13.929  0.8001 -0.4277 -0.1233
18450TIP3    H276842   1.158   1.912  14.026  0.4512 -0.1650  0.1907
18451TIP3   OH276843   2.796   6.310  11.647 -0.3454  0.3104 -0.4003
18451TIP3    H176844   2.749   6.240  11.692  2.7608 -1.1895  0.8044
18451TIP3    H276845   2.839   6.267  11.573  2.2863  0.6708  0.8230
18452TIP3   OH276846   6.670   6.054   5.537 -0.2250 -0.0059 -0.0372
18452TIP3    H176847   6.740   6.068   5.601 -0.0883  0.0228 -0.1912
18452TIP3    H276848   6.589   6.058   5.588 -0.0786 -0.8389  0.2745
18453TIP3   OH276849   1.291   0.810   3.455  0.3511 -0.2865  1.0197
18453TIP3    H176850   1.312   0.833   3.546  2.4461 -1.6967  0.9696
18453TIP3    H276851   1.243   0.728   3.461  1.2111 -0.8199  0.8646
18454TIP3   OH276852   2.430   4.732   1.821 -0.2358 -0.1410 -0.1235
18454TIP3    H176853   2.336   4.747   1.816 -0.1219  0.3387 -1.1040
18454TIP3    H276854   2.468   4.820   1.815  0.3023 -0.4107 -0.7036
18455TIP3   OH276855   6.428   1.552  12.148 -0.4439 -0.0298 -0.0528
18455TIP3    H176856   6.476   1.596  12.078 -1.6113  1.1298 -0.1772
18455TIP3    H276857   6.410   1.622  12.212  0.0320 -0.9247  1.0882
18456TIP3   OH276858   5.162   5.611   1.431 -0.0228  0.4571  0.4073
18456TIP3    H176859   5.114   5.528   1.438  0.2235  0.3103  0.3667
18456TIP3    H276860   5.189   5.630   1.521  0.5314  0.1263  0.3181
18457TIP3   OH276861   5.387   5.687  16.496 -0.3009 -0.0134 -0.0735
18457TIP3    H176862   5.331   5.613  16.474  0.4664 -0.8964  0.8416
18457TIP3    H276863   5.458   5.683  16.433 -1.3266  1.2497 -1.3888
18458TIP3   OH276864   0.773   0.491   4.170 -0.2636  0.0732  0.6606
18458TIP3    H176865   0.746   0.504   4.261 -0.5770 -0.0326  0.5827
18458TIP3    H276866   0.811   0.403   4.170  1.1441  0.6517  1.0191
18459TIP3   OH276867   4.012   4.761   7.808  0.2862  0.2391 -0.2401
18459TIP3    H176868   3.992   4.750   7.901  1.9126  0.3112  0.1584
18459TIP3    H276869   4.097   4.718   7.798  1.2027  2.1789 -1.2029
18460TIP3   OH276870   6.632   5.089  13.411  0.7651  0.0921 -0.0091
18460TIP3    H176871   6.597   5.008  13.446  0.2049  0.2641 -0.1587
18460TIP3    H276872   6.555   5.138  13.382  1.0546  0.8634  0.4863
18461TIP3   OH276873   4.180   0.759   5.098 -0.3962 -0.0448  0.5816
18461TIP3    H176874   4.110   0.699   5.070 -0.6799  0.3816  0.3737
18461TIP3    H276875   4.135   0.841   5.115  0.1456  0.4129 -0.1544
18462TIP3   OH276876   6.767   1.616   2.396 -0.1920 -0.4127 -0.1229
18462TIP3    H176877   6.799   1.619   2.487  0.7211  0.3360 -0.4549
18462TIP3    H276878   6.700   1.684   2.393 -2.2770 -2.3185  0.7078
18463TIP3   OH276879   1.441   4.369  13.678  0.1812 -0.0131  0.2527
18463TIP3    H176880   1.519   4.315  13.688 -0.3080 -1.4312 -2.5319
18463TIP3    H276881   1.375   4.325  13.732  0.6633 -0.2651  0.6452
18464TIP3   OH276882   0.245   5.236  11.368  0.0515  0.2556 -0.2233
18464TIP3    H176883   0.218   5.289  11.443 -0.4056 -0.9178  0.4796
18464TIP3    H276884   0.204   5.277  11.293 -1.1042  0.3475  0.4344
18465TIP3   OH276885   2.741   5.421  12.574 -0.6025  0.2167 -0.0068
18465TIP3    H176886   2.776   5.344  12.528 -0.5187 -0.0081  0.4280
18465TIP3    H276887   2.704   5.475  12.505 -1.9641 -0.8834 -0.1799
18466TIP3   OH276888   0.134   4.755   2.095 -0.7395  1.1381 -0.9179
18466TIP3    H176889   0.076   4.696   2.046  2.0739  0.1329 -3.3424
18466TIP3    H276890   0.206   4.699   2.123 -0.1456  2.6181  0.6859
18467TIP3   OH276891   5.652   6.026  12.953  0.1247  0.7495 -0.5318
18467TIP3    H176892   5.727   5.966  12.948 -0.3863 -0.3305  2.4777
18467TIP3    H276893   5.615   6.025  12.865  0.4946 -2.9619 -0.8138
18468TIP3   OH276894   5.733   4.365  12.510 -0.2976  0.1486  0.3628
18468TIP3    H176895   5.787   4.287  12.497  0.3985  0.5774  0.6365
18468TIP3    H276896   5.656   4.333  12.556  0.0997 -0.3372  0.6978
18469TIP3   OH276897   2.158   3.943   2.474 -0.0078  0.4033  0.3393
18469TIP3    H176898   2.240   3.965   2.429 -1.0402  2.2717 -0.7412
18469TIP3    H276899   2.103   3.903   2.407 -0.3336  0.0430  0.8123
18470TIP3   OH276900   2.311   6.776   3.367  0.2913 -0.3408 -0.6636
18470TIP3    H176901   2.235   6.821   3.328 -1.1012 -1.4702  0.6304
18470TIP3    H276902   2.296   6.782   3.461  1.0011 -1.9203 -0.4198
18471TIP3   OH276903   5.482   1.025  16.917  0.2582 -0.4081 -0.0839
18471TIP3    H176904   5.390   1.049  16.930  0.5888  0.7884  0.2237
18471TIP3    H276905   5.487   0.932  16.940 -0.6972 -0.2509  0.8384
18472TIP3   OH276906   0.981   2.471   2.826 -0.0780 -0.2829  0.3977
18472TIP3    H176907   0.886   2.475   2.841 -0.1452 -0.2084 -0.0404
18472TIP3    H276908   1.005   2.382   2.849 -0.0350  0.0637  1.7601
18473TIP3   OH276909   6.109   6.142  14.246  0.1306  0.0273 -0.2344
18473TIP3    H176910   6.013   6.136  14.252  0.1944  0.2519  1.6678
18473TIP3    H276911   6.132   6.214  14.305  1.5945 -1.3803  1.0030
18474TIP3   OH276912   6.468   5.771   2.118  0.4665  0.1943  0.8876
18474TIP3    H176913   6.459   5.761   2.213 -0.8950  1.8347  0.9704
18474TIP3    H276914   6.560   5.796   2.106  0.6351  0.0373  1.7756
18475TIP3   OH276915   2.718   0.245   3.533 -0.1945 -0.1495 -0.2395
18475TIP3    H176916   2.813   0.242   3.533  0.0005  1.8774  2.4198
18475TIP3    H276917   2.691   0.162   3.492  2.6601 -0.9225 -0.7765
18476TIP3   OH276918   6.355   2.612  15.192  0.4897  0.2102  0.5559
18476TIP3    H176919   6.437   2.626  15.238  1.1688  0.1937 -0.6133
18476TIP3    H276920   6.296   2.680  15.227  0.9294  0.1107  1.5248
18477TIP3   OH276921   0.757   1.368   2.481  0.2680  0.7702  0.6447
18477TIP3    H176922   0.743   1.454   2.520  1.4664  0.1082  2.6661
18477TIP3    H276923   0.724   1.306   2.546  3.5515 -0.4271  1.3488
18478TIP3   OH276924   5.020   1.157   3.618 -0.0312 -0.5992 -0.0014
18478TIP3    H176925   4.948   1.126   3.674 -0.2467  0.5922  0.4129
18478TIP3    H276926   4.995   1.130   3.530 -0.7544 -0.6181  0.1992
18479TIP3   OH276927   0.740   0.896   1.547 -0.3030  0.6277 -0.5630
18479TIP3    H176928   0.819   0.849   1.520 -1.2234 -1.1638 -0.3304
18479TIP3    H276929   0.752   0.911   1.641 -0.1020  0.6307 -0.5887
18480TIP3   OH276930   3.621   3.206  13.924 -0.4381  0.1116  0.1799
18480TIP3    H176931   3.545   3.183  13.870 -0.1076  1.3796 -0.9001
18480TIP3    H276932   3.588   3.208  14.014 -1.0936 -1.6975  0.0029
18481TIP3   OH276933   3.552   1.092  14.567 -0.0947  0.3440  0.3091
18481TIP3    H176934   3.542   1.010  14.614  1.2977 -0.4108 -0.6632
18481TIP3    H276935   3.642   1.118  14.582  0.1514  0.4899 -1.2622
18482TIP3   OH276936   2.944   2.599   5.365  0.0012  0.1335  0.1258
18482TIP3    H176937   2.891   2.622   5.289  1.6863 -0.8450 -1.4367
18482TIP3    H276938   3.012   2.666   5.368 -1.2222  1.3778  2.1045
18483TIP3   OH276939   4.393   6.205   4.312 -0.5632  0.2835  0.0281
18483TIP3    H176940   4.453   6.153   4.258  0.8719  0.8946  0.9849
18483TIP3    H276941   4.370   6.148   4.385 -1.8031 -0.2256 -0.7259
18484TIP3   OH276942   2.802   3.011  14.198 -0.3309  0.3421 -0.0506
18484TIP3    H176943   2.832   2.942  14.138  0.8976  1.0019 -0.2077
18484TIP3    H276944   2.806   3.091  14.147  0.8969  0.9454  0.9509
18485TIP3   OH276945   1.905   0.040  12.359 -0.1817 -0.1356  0.1199
18485TIP3    H176946   1.918   0.003  12.272 -0.0951  0.8686 -0.3031
18485TIP3    H276947   1.824  -0.001  12.390  0.1132 -0.9642 -0.1654
18486TIP3   OH276948   0.620   0.155  14.503 -0.2444 -0.0452 -0.5481
18486TIP3    H176949   0.618   0.081  14.443 -1.4566  0.3207 -0.9811
18486TIP3    H276950   0.692   0.210  14.471  0.1329 -0.6229 -0.7062
18487TIP3   OH276951   3.399   3.868   0.566 -0.0641  0.5167 -0.2048
18487TIP3    H176952   3.397   3.892   0.659  0.3431  1.9373 -0.5329
18487TIP3    H276953   3.311   3.890   0.534 -0.1379  0.2255 -0.2022
18488TIP3   OH276954   4.204   4.094  11.675  0.2000  0.3313  0.0535
18488TIP3    H176955   4.173   4.104  11.765  0.4450 -0.7509  0.2744
18488TIP3    H276956   4.126   4.103  11.621 -1.0193 -3.9947  0.6789
18489TIP3   OH276957   4.965   2.137   5.075 -1.0832  0.0955 -0.2820
18489TIP3    H176958   4.923   2.186   5.146 -0.1196  0.1811  0.2518
18489TIP3    H276959   4.913   2.058   5.066 -0.7482 -0.3052  1.1028
18490TIP3   OH276960   6.778   0.566  10.423 -0.7354 -0.5151 -0.9626
18490TIP3    H176961   6.743   0.653  10.401 -1.4256 -0.7354 -0.7562
18490TIP3    H276962   6.823   0.538  10.343  1.9761  1.1996 -0.1877
18491TIP3   OH276963   3.586   3.574  14.487  0.3659  0.3633 -0.8622
18491TIP3    H176964   3.517   3.639  14.500  1.1716  1.4170 -1.6159
18491TIP3    H276965   3.561   3.527  14.408 -0.2530 -0.3249 -0.2785
18492TIP3   OH276966   1.780   4.767  13.175 -0.4783  0.0952  0.0468
18492TIP3    H176967   1.825   4.727  13.249 -0.2839  3.1930  1.7351
18492TIP3    H276968   1.689   4.738  13.185 -0.3934  0.1985  1.3422
18493TIP3   OH276969   6.032   4.902   2.989  0.5404 -0.7966  0.1268
18493TIP3    H176970   6.126   4.910   2.971  0.3904 -1.1417 -0.8865
18493TIP3    H276971   6.028   4.866   3.077  1.3781 -1.2960 -0.0221
18494TIP3   OH276972   0.614   0.414   1.852 -0.3426  0.4648 -0.5225
18494TIP3    H176973   0.523   0.431   1.874 -0.3014  0.9637 -0.7123
18494TIP3    H276974   0.660   0.493   1.878 -0.4516  1.5690 -3.3095
18495TIP3   OH276975   1.347   0.960  17.226  0.3799  0.3653  0.0637
18495TIP3    H176976   1.289   0.996  17.294 -0.4640 -1.1325  0.1835
18495TIP3    H276977   1.341   1.023  17.154  0.4593  1.4377  0.9738
18496TIP3   OH276978   1.011   1.751   4.452 -0.6186 -0.0994 -0.7022
18496TIP3    H176979   0.928   1.707   4.469 -0.4554 -0.4573 -0.8129
18496TIP3    H276980   0.996   1.842   4.478 -0.3073 -0.6564  1.6116
18497TIP3   OH276981   5.369   2.733   2.636  0.4678 -0.1803  0.1228
18497TIP3    H176982   5.411   2.655   2.597  0.8044  0.0414  0.0380
18497TIP3    H276983   5.425   2.806   2.610  1.3859 -0.1471  2.0112
18498TIP3   OH276984   5.245   2.884   6.071 -0.0808  0.1295 -0.6261
18498TIP3    H176985   5.243   2.980   6.067  1.2656  0.2733  0.8071
18498TIP3    H276986   5.303   2.858   6.000  1.4211  0.5927  0.3627
18499TIP3   OH276987   5.141   2.298  15.878 -0.3426  0.2913 -0.6089
18499TIP3    H176988   5.175   2.387  15.872  0.5229  0.3992  3.2747
18499TIP3    H276989   5.048   2.310  15.899 -0.6760  0.1694 -1.9089
18500TIP3   OH276990   1.628   6.781   2.800 -0.2054  0.1626  0.1091
18500TIP3    H176991   1.552   6.741   2.841 -0.6026  2.1446  1.4635
18500TIP3    H276992   1.593   6.855   2.751  0.6289 -0.2626 -1.1715
18501TIP3   OH276993   0.441   3.255  12.308  0.3587  0.2058 -0.0814
18501TIP3    H176994   0.480   3.287  12.390 -0.1096 -1.4136  0.8095
18501TIP3    H276995   0.356   3.298  12.305 -0.1137 -0.5954  0.9200
18502TIP3   OH276996   2.597   6.065   1.365 -0.5083 -0.5367  0.6744
18502TIP3    H176997   2.568   6.081   1.455  1.3572 -0.5765  1.3267
18502TIP3    H276998   2.637   6.147   1.338  1.3872 -1.3266  0.9117
18503TIP3   OH276999   0.151   2.601   0.675 -0.3538 -0.3472  0.2108
18503TIP3    H177000   0.094   2.663   0.720 -0.1690  0.8222 -1.0930
18503TIP3    H277001   0.165   2.530   0.738 -0.4533  1.0036  1.8068
18504TIP3   OH277002   1.676   4.185  10.386  0.0144  0.3018 -0.5572
18504TIP3    H177003   1.704   4.232  10.465 -0.7131  1.0559 -0.7379
18504TIP3    H277004   1.650   4.099  10.418 -0.1734  0.5621  0.0176
18505TIP3   OH277005   2.052   6.431  14.265 -0.0464  0.2922  0.1248
18505TIP3    H177006   1.985   6.415  14.198 -1.5192  1.8366  1.1401
18505TIP3    H277007   2.010   6.408  14.347  1.0389  0.3396  0.7058
18506TIP3   OH277008   0.341   1.824   1.620  0.3195 -0.2222 -0.9369
18506TIP3    H177009   0.358   1.914   1.591  0.7421 -0.0564 -0.2169
18506TIP3    H277010   0.253   1.827   1.657  0.8145  0.2273  0.2757
18507TIP3   OH277011   4.452   4.020  11.566  0.3115 -0.1225 -0.3118
18507TIP3    H177012   4.369   4.065  11.549  0.8585  0.7349 -0.8445
18507TIP3    H277013   4.436   3.967  11.644 -0.1326  1.6614  0.8648
18508TIP3   OH277014   1.263   5.716   6.408 -0.1403 -0.0801  0.1147
18508TIP3    H177015   1.320   5.643   6.384 -1.5311 -0.5583 -1.9825
18508TIP3    H277016   1.181   5.675   6.437  0.0168  0.6318  1.7032
18509TIP3   OH277017   0.774   5.967  10.984  0.1924  0.0026 -0.3060
18509TIP3    H177018   0.787   5.872  10.981  0.8193  0.0672 -0.0158
18509TIP3    H277019   0.731   5.989  10.901  2.1729 -0.2442 -1.4646
18510TIP3   OH277020   2.015   6.106   3.276 -0.4239  0.0495  0.0723
18510TIP3    H177021   2.101   6.064   3.270 -0.8265 -0.9954  1.1982
18510TIP3    H277022   1.953   6.033   3.287 -1.7492  0.6058 -2.8259
18511TIP3   OH277023   0.177   3.518   6.574  0.2401  0.0684 -0.1886
18511TIP3    H177024   0.253   3.569   6.546  0.6811 -0.9349 -0.8707
18511TIP3    H277025   0.137   3.487   6.493 -1.0475  0.7495  0.1427
18512TIP3   OH277026   3.710   0.744  13.196 -0.6262  0.1708  0.1125
18512TIP3    H177027   3.699   0.653  13.221 -3.1037  0.2242 -0.4710
18512TIP3    H277028   3.752   0.740  13.110 -2.0689 -0.5512 -0.6039
18513TIP3   OH277029   1.883   6.692   3.212 -0.6078  0.6235 -0.1596
18513TIP3    H177030   1.975   6.665   3.209 -0.8547 -0.2703  0.1634
18513TIP3    H277031   1.840   6.626   3.266 -1.2556  1.6040  0.5577
18514TIP3   OH277032   0.670   5.080  12.237 -0.2916 -0.1139 -0.1643
18514TIP3    H177033   0.743   5.029  12.201  0.5486  1.2342 -0.4641
18514TIP3    H277034   0.601   5.072  12.172  0.4452  0.5114 -1.0603
18515TIP3   OH277035   6.755   6.064  11.958  0.4038 -0.0553  0.4963
18515TIP3    H177036   6.779   6.144  11.912 -0.4467  0.2978  0.6428
18515TIP3    H277037   6.824   6.002  11.935  0.2971  0.2713 -0.7965
18516TIP3   OH277038   1.754   3.799  12.711  0.2796  0.2109 -0.0370
18516TIP3    H177039   1.765   3.798  12.615  0.4611 -0.5750 -0.0148
18516TIP3    H277040   1.670   3.755  12.726  1.0436 -1.2198  0.2430
18517TIP3   OH277041   4.012   4.422  13.082 -0.5829  0.7324 -0.3134
18517TIP3    H177042   4.054   4.467  13.009  0.2956 -1.9103 -1.5288
18517TIP3    H277043   4.080   4.417  13.150 -0.2403  0.0947 -0.6950
18518TIP3   OH277044   6.107   5.806   0.487 -0.3563  0.1875  0.5859
18518TIP3    H177045   6.144   5.875   0.431  2.8366 -1.6922  0.1570
18518TIP3    H277046   6.148   5.820   0.572  0.2286 -1.0879  0.5297
18519TIP3   OH277047   2.671   5.486   5.768 -0.1139 -0.0066 -0.5459
18519TIP3    H177048   2.631   5.476   5.854 -1.9167 -0.9073 -1.4405
18519TIP3    H277049   2.736   5.555   5.780 -2.7040  2.4273  0.7567
18520TIP3   OH277050   3.262   4.368  16.772 -0.6474 -0.4511  0.1399
18520TIP3    H177051   3.321   4.438  16.746 -0.4590 -0.5235  0.3708
18520TIP3    H277052   3.254   4.313  16.694 -0.3524 -0.4814  0.1297
18521TIP3   OH277053   1.878   4.529  13.438  0.5339 -0.0834  0.0009
18521TIP3    H177054   1.783   4.524  13.428  0.3156  0.3783  1.5434
18521TIP3    H277055   1.893   4.515  13.532  1.8100  1.9928  0.1635
18522TIP3   OH277056   5.019   4.467   6.177  0.1945 -0.2997 -0.0026
18522TIP3    H177057   5.080   4.427   6.239  0.8429  2.4191  1.2828
18522TIP3    H277058   5.075   4.502   6.108 -0.1902 -0.2722 -0.3001
18523TIP3   OH277059   5.790   1.154  12.734 -0.2974 -0.5637  0.6648
18523TIP3    H177060   5.807   1.221  12.667  1.2293 -1.0711  0.4992
18523TIP3    H277061   5.866   1.158  12.792 -2.3398  0.9887  3.4199
18524TIP3   OH277062   6.404   5.253   2.164 -0.1933  0.1679 -0.1922
18524TIP3    H177063   6.379   5.308   2.090 -0.6589  0.1625 -0.0407
18524TIP3    H277064   6.462   5.309   2.216 -0.9075  0.6350  0.1230
18525TIP3   OH277065   6.798   3.914   1.830 -0.1146  0.3039 -0.3083
18525TIP3    H177066   6.883   3.889   1.792 -0.2156  0.5942 -0.7296
18525TIP3    H277067   6.821   3.969   1.905  0.0655  0.5054 -0.5118
18526TIP3   OH277068   6.284   5.657  14.115 -0.2474  0.3404 -0.5973
18526TIP3    H177069   6.288   5.744  14.155 -0.3531  0.4364 -0.7901
18526TIP3    H277070   6.218   5.610  14.167 -0.3893  0.4669 -0.6604
18527TIP3   OH277071   5.811   5.540   6.141  0.2184 -0.2459 -0.3543
18527TIP3    H177072   5.839   5.605   6.076 -0.0004 -0.6242 -0.8267
18527TIP3    H277073   5.848   5.572   6.223 -1.1571  1.3271 -0.2794
18528TIP3   OH277074   0.340   4.941   1.138 -0.1829  0.6555  0.9807
18528TIP3    H177075   0.386   4.873   1.089  0.3620  0.4234  1.7892
18528TIP3    H277076   0.409   5.003   1.163 -0.1757 -0.0017  2.7214
18529TIP3   OH277077   3.055   6.403  12.655 -0.7525  0.2282 -0.6497
18529TIP3    H177078   2.966   6.380  12.681 -0.3828  0.4700  0.9748
18529TIP3    H277079   3.046   6.485  12.606 -1.5331 -0.4206 -1.6109
18530TIP3   OH277080   5.152   3.114   3.546 -0.0618 -0.0035 -0.4880
18530TIP3    H177081   5.134   3.116   3.640  3.6161 -1.2764  0.4349
18530TIP3    H277082   5.109   3.035   3.514  1.5164 -1.5209  0.9585
18531TIP3   OH277083   5.968   2.120  13.520  0.3335  0.0764  0.7188
18531TIP3    H177084   5.914   2.086  13.592  0.7043 -0.7362  0.6192
18531TIP3    H277085   5.908   2.173  13.468 -0.5855 -1.5282  0.1147
18532TIP3   OH277086   1.112   6.470  11.855 -0.6843 -0.7366  0.2760
18532TIP3    H177087   1.046   6.402  11.858 -0.2976 -1.2027 -1.0042
18532TIP3    H277088   1.128   6.493  11.946 -1.3393 -1.8500  0.6820
18533TIP3   OH277089   0.795   0.856  12.819  0.0837 -0.3050 -0.3766
18533TIP3    H177090   0.783   0.936  12.869  1.7110 -0.2896  0.0523
18533TIP3    H277091   0.715   0.806  12.833  0.0729  0.1548  1.4212
18534TIP3   OH277092   0.356   4.036  15.578 -0.1143 -0.1272 -0.0564
18534TIP3    H177093   0.425   4.087  15.535  0.4360 -1.0709 -0.3279
18534TIP3    H277094   0.385   4.027  15.669  0.6043 -1.2977 -0.3792
18535TIP3   OH277095   2.053   3.352   5.956 -0.0651 -0.1732  0.1143
18535TIP3    H177096   2.068   3.414   6.028 -1.3445  0.8045 -0.4270
18535TIP3    H277097   2.086   3.397   5.879  0.5523 -0.8837 -0.0396
18536TIP3   OH277098   5.371   4.582  16.635 -0.1640  0.1332  0.3768
18536TIP3    H177099   5.313   4.614  16.567 -1.8714 -0.4812  1.4844
18536TIP3    H277100   5.400   4.661  16.681 -0.3926  0.4264  0.0169
18537TIP3   OH277101   4.616   3.341   5.545  0.0106 -0.4375 -0.6571
18537TIP3    H177102   4.667   3.261   5.538 -0.9102 -1.0643 -0.3933
18537TIP3    H277103   4.680   3.412   5.534  1.3691 -1.1206  2.1640
18538TIP3   OH277104   0.971   1.589   0.754  0.1309 -0.7106 -0.0940
18538TIP3    H177105   0.984   1.573   0.660 -0.6718 -0.1504 -0.3109
18538TIP3    H277106   1.049   1.637   0.782 -0.7660  1.4158 -1.0564
18539TIP3   OH277107   0.475   2.174  15.291  0.0748  0.0324 -0.0272
18539TIP3    H177108   0.413   2.213  15.229 -1.2549 -0.7161  0.7938
18539TIP3    H277109   0.420   2.130  15.355  1.4913 -1.2519  0.3512
18540TIP3   OH277110   5.534   1.789   2.166  0.0250  0.0814  0.1554
18540TIP3    H177111   5.581   1.834   2.096 -0.1700 -0.1337 -0.1123
18540TIP3    H277112   5.588   1.802   2.243 -0.6696  1.9544  0.3863
18541TIP3   OH277113   0.619   2.654   1.582 -0.1779  0.4752 -0.6746
18541TIP3    H177114   0.591   2.734   1.626 -0.9758 -0.2517  0.1611
18541TIP3    H277115   0.563   2.649   1.504  0.2268  0.9785 -1.0124
18542TIP3   OH277116   1.277   3.394  17.184  0.1634 -0.7201  0.5405
18542TIP3    H177117   1.286   3.468  17.124 -0.7502 -2.2253 -1.5792
18542TIP3    H277118   1.360   3.393  17.233  0.3300  1.4545  0.3801
18543TIP3   OH277119   6.771   6.198   4.514 -0.2746  0.0612  0.1908
18543TIP3    H177120   6.748   6.251   4.438 -0.3167  0.9618  0.8136
18543TIP3    H277121   6.818   6.258   4.572  0.0304 -0.6885  0.7442
18544TIP3   OH277122   0.449   5.914   3.798 -0.3641  0.2499  0.0708
18544TIP3    H177123   0.465   5.822   3.777 -0.4679 -0.1645  1.6766
18544TIP3    H277124   0.521   5.961   3.756  0.5393 -0.7287  0.4813
18545TIP3   OH277125   5.155   5.767  16.614 -0.2434  0.4656  0.3015
18545TIP3    H177126   5.150   5.723  16.698  1.3151  0.3008  0.3466
18545TIP3    H277127   5.249   5.770  16.594 -0.5485  0.8144 -1.2577
18546TIP3   OH277128   1.659   2.324   2.580 -0.0134 -0.2113 -0.5969
18546TIP3    H177129   1.666   2.322   2.484 -1.0095  1.2730 -0.7381
18546TIP3    H277130   1.646   2.417   2.601  1.3786 -0.3392  1.0927
18547TIP3   OH277131   3.999   2.620  16.180 -0.2672 -0.1789 -0.2566
18547TIP3    H177132   4.037   2.693  16.131 -0.8796  0.2889 -0.0425
18547TIP3    H277133   3.922   2.595  16.130 -0.4878 -0.1787  0.0855
18548TIP3   OH277134   6.665   5.947   3.534  0.2538 -0.5519 -0.4336
18548TIP3    H177135   6.569   5.943   3.533  0.2319 -0.1512 -0.0976
18548TIP3    H277136   6.692   5.860   3.564  0.0072 -0.7863 -0.8835
18549TIP3   OH277137   5.626   4.868  17.134 -0.8261  0.1872 -0.6246
18549TIP3    H177138   5.581   4.945  17.168  0.8167  0.2434  1.7139
18549TIP3    H277139   5.559   4.800  17.132 -1.5587  0.8173  0.6282
18550TIP3   OH277140   5.167   5.317   3.613 -0.0655 -0.3964 -0.2846
18550TIP3    H177141   5.135   5.397   3.573 -1.5546 -1.4948 -1.4375
18550TIP3    H277142   5.204   5.267   3.540  0.5729 -0.8880  0.3623
18551TIP3   OH277143   6.699   4.514  15.277 -0.5520 -0.2010  0.0944
18551TIP3    H177144   6.678   4.542  15.188 -0.3699 -0.5852 -0.0750
18551TIP3    H277145   6.723   4.422  15.267 -0.5038 -0.2369  0.5390
18552TIP3   OH277146   1.954   3.584  12.754 -0.0740  0.5916  0.2302
18552TIP3    H177147   1.892   3.657  12.745 -1.5582 -0.8133 -1.7628
18552TIP3    H277148   1.899   3.506  12.761  1.4753 -0.4210  2.3270
18553TIP3   OH277149   2.796   6.767   0.741  0.3130 -0.0227  0.2017
18553TIP3    H177150   2.819   6.826   0.814  2.2434 -2.2981  1.5958
18553TIP3    H277151   2.716   6.723   0.770 -0.9384  1.5423 -0.6946
18554TIP3   OH277152   1.782   1.545   4.976  0.2190  0.3776 -0.0220
18554TIP3    H177153   1.794   1.548   5.071  1.0290  0.9117 -0.1337
18554TIP3    H277154   1.722   1.617   4.958  0.1486  0.3438  0.0757
18555TIP3   OH277155   2.687   2.076   3.373  0.1662  0.0682 -0.2732
18555TIP3    H177156   2.664   2.105   3.285  1.3569  0.7122 -0.3918
18555TIP3    H277157   2.755   2.010   3.360  0.7038  0.5309  0.1839
18556TIP3   OH277158   4.938   0.894  17.218  0.1582  0.3215 -0.6746
18556TIP3    H177159   4.989   0.961  17.263  0.2495  0.2742 -0.7081
18556TIP3    H277160   4.847   0.913  17.242  0.3566 -1.1399  1.4692
18557TIP3   OH277161   5.790   5.825  11.628  0.1688  0.1056  0.2821
18557TIP3    H177162   5.834   5.888  11.571  0.1081 -0.0762  0.0335
18557TIP3    H277163   5.798   5.741  11.582 -1.8898  0.3247 -0.6081
18558TIP3   OH277164   0.026   3.175  13.126 -0.0530 -0.4810 -0.2400
18558TIP3    H177165   0.118   3.182  13.099  0.3577 -0.1481  1.1352
18558TIP3    H277166   0.026   3.105  13.192 -1.2707 -2.3204 -2.0747
18559TIP3   OH277167   2.449   1.214   0.133  0.1867  0.4805  0.4976
18559TIP3    H177168   2.436   1.245   0.043 -2.3095  0.3938  0.7554
18559TIP3    H277169   2.534   1.170   0.131 -0.6760 -1.3390 -2.3767
18560TIP3   OH277170   6.502   6.219  16.964 -0.2666 -0.8266  0.2001
18560TIP3    H177171   6.457   6.303  16.963  1.2074 -0.0245 -0.1841
18560TIP3    H277172   6.521   6.203  17.057 -2.6163 -1.9224  0.5711
18561TIP3   OH277173   2.844   2.962  13.213 -0.1122  0.4908 -0.2796
18561TIP3    H177174   2.858   2.875  13.251  0.5653  0.4276 -0.6503
18561TIP3    H277175   2.826   3.018  13.288 -2.1870 -0.2588 -0.1643
18562TIP3   OH277176   6.563   1.835  16.200 -0.7007 -0.2810 -0.6560
18562TIP3    H177177   6.597   1.901  16.139  0.4937 -0.7055 -0.4671
18562TIP3    H277178   6.621   1.760  16.190  0.3526  0.0996  1.9544
18563TIP3   OH277179   1.403   0.638   4.506  0.4066  0.2156  0.4695
18563TIP3    H177180   1.376   0.556   4.464  1.1351  0.5331 -0.6533
18563TIP3    H277181   1.340   0.703   4.475  0.3931  0.2664  0.6038
18564TIP3   OH277182   0.473   1.202   1.734 -0.3486 -0.3893 -0.2170
18564TIP3    H177183   0.500   1.131   1.793  0.0013 -1.5448 -1.7162
18564TIP3    H277184   0.401   1.245   1.781  0.5869 -0.5943  1.5091
18565TIP3   OH277185   4.320   1.012   4.502 -0.0006 -0.4133 -0.1946
18565TIP3    H177186   4.232   1.000   4.538  0.2938 -0.1593  0.6322
18565TIP3    H277187   4.321   1.103   4.471  0.0086 -0.3800 -0.0968
18566TIP3   OH277188   1.947   5.236   1.237  0.4431 -0.2611 -0.3754
18566TIP3    H177189   2.029   5.188   1.251  0.8515  0.0487 -1.6001
18566TIP3    H277190   1.952   5.309   1.299  0.2295 -1.2642  0.8574
18567TIP3   OH277191   5.967   1.692  13.969 -0.1418  0.4271  0.0197
18567TIP3    H177192   6.060   1.714  13.955 -0.0753  0.6056  0.7175
18567TIP3    H277193   5.921   1.741  13.900  0.2062  1.0120  0.1919
18568TIP3   OH277194   1.764   1.464   0.311  0.0641 -0.3419  0.0957
18568TIP3    H177195   1.831   1.524   0.277 -1.1307  1.2049  0.3577
18568TIP3    H277196   1.811   1.408   0.373  1.6661 -1.1958 -1.7850
18569TIP3   OH277197   2.224   3.831  16.261 -0.0146 -0.4217  0.6119
18569TIP3    H177198   2.246   3.746  16.300  0.0434 -0.8258 -0.2869
18569TIP3    H277199   2.272   3.894  16.314  2.0231 -1.1451 -0.2755
18570TIP3   OH277200   2.742   3.689   0.277 -0.1936  0.2877  0.5698
18570TIP3    H177201   2.770   3.613   0.328 -1.6728 -0.8771 -0.2730
18570TIP3    H277202   2.816   3.709   0.220 -0.5880 -2.0104 -0.8481
18571TIP3   OH277203   1.834   1.794  12.576  0.3533  0.0760 -0.1654
18571TIP3    H177204   1.891   1.838  12.639  0.3172 -0.5618  0.3295
18571TIP3    H277205   1.892   1.765  12.506  0.6760 -0.7010  0.4065
18572TIP3   OH277206   1.067   5.664  13.432 -0.1174 -0.0448 -0.2369
18572TIP3    H177207   0.977   5.635  13.438 -0.1038 -0.1970 -0.6953
18572TIP3    H277208   1.119   5.591  13.466 -0.2007  0.3553  0.7944
18573TIP3   OH277209   0.322   6.489   5.608 -0.0902  0.7228 -0.1021
18573TIP3    H177210   0.353   6.417   5.663  2.1039 -0.3728 -2.5461
18573TIP3    H277211   0.383   6.561   5.627  0.6048  0.3768 -0.9724
18574TIP3   OH277212   1.445   3.663   3.852 -0.1418  0.0190 -0.3330
18574TIP3    H177213   1.437   3.619   3.937  1.6305 -1.1744 -0.7062
18574TIP3    H277214   1.400   3.746   3.863  0.2138 -0.0219  1.8468
18575TIP3   OH277215   1.520   3.126  16.209 -0.1942  0.2107  0.5345
18575TIP3    H177216   1.461   3.051  16.202  0.4507 -0.1784 -1.4131
18575TIP3    H277217   1.547   3.143  16.119 -0.2204  2.7344  0.9494
18576TIP3   OH277218   2.501   1.559  13.500  0.2460  0.1985  0.4599
18576TIP3    H177219   2.414   1.556  13.539  0.5835  0.1027  1.2217
18576TIP3    H277220   2.530   1.649  13.514 -0.6702  0.9575 -1.9419
18577TIP3   OH277221   5.928   2.628   0.756 -0.3119 -0.2763  0.4379
18577TIP3    H177222   6.017   2.661   0.759  0.2112 -1.6768  1.3234
18577TIP3    H277223   5.915   2.603   0.665  0.4837 -0.7773  0.4525
18578TIP3   OH277224   6.289   5.771  16.311 -0.3120 -1.0203  0.4757
18578TIP3    H177225   6.215   5.778  16.250 -1.6337 -0.9428  2.0065
18578TIP3    H277226   6.305   5.677  16.318 -2.0098 -1.2539  2.0447
18579TIP3   OH277227   4.313   1.221   0.933 -0.2404  0.0571  0.2544
18579TIP3    H177228   4.364   1.234   0.853 -0.4078  0.2960  0.1828
18579TIP3    H277229   4.361   1.155   0.982  0.0604  0.1736  0.1216
18580TIP3   OH277230   3.827   2.548  11.252 -0.2512 -0.7691 -0.0017
18580TIP3    H177231   3.862   2.555  11.163 -1.9567 -0.9898 -0.7207
18580TIP3    H277232   3.837   2.455  11.274 -1.4190 -1.0703 -0.6697
18581TIP3   OH277233   4.252   0.681   1.060  0.2908 -0.3150  0.4693
18581TIP3    H177234   4.209   0.600   1.033 -1.9231  0.4657  1.3747
18581TIP3    H277235   4.315   0.700   0.991 -2.0418 -0.6641 -1.8763
18582TIP3   OH277236   2.429   5.671  12.997 -0.1232 -0.3002  0.1787
18582TIP3    H177237   2.450   5.713  13.081 -1.2494  0.1802  0.2393
18582TIP3    H277238   2.476   5.588  12.999  2.2214  0.9568  0.0218
18583TIP3   OH277239   2.461   2.906   1.608 -0.1626 -0.3613 -0.3219
18583TIP3    H177240   2.498   2.845   1.545  1.7606  0.7918 -0.4015
18583TIP3    H277241   2.494   2.992   1.580  1.0168  0.1595  2.3712
18584TIP3   OH277242   2.435   0.520   5.594  0.4961  0.3864  0.1517
18584TIP3    H177243   2.348   0.556   5.578 -0.0842 -0.7179  0.7069
18584TIP3    H277244   2.422   0.455   5.664  1.3847 -1.2918 -1.1652
18585TIP3   OH277245   5.231   3.049   4.998  0.2097 -0.3376  0.0905
18585TIP3    H177246   5.308   3.032   4.944 -0.4960 -1.5244 -0.5815
18585TIP3    H277247   5.247   3.136   5.036  0.6563  0.6369 -2.1574
18586TIP3   OH277248   5.500   3.945   5.111  0.2382  0.2689 -0.4256
18586TIP3    H177249   5.563   3.883   5.149  0.4988 -0.2921 -1.7197
18586TIP3    H277250   5.513   3.937   5.016 -1.7157  0.1861 -0.7331
18587TIP3   OH277251   3.373   4.631   6.225 -0.5081 -0.0746 -0.5649
18587TIP3    H177252   3.413   4.700   6.278 -3.3056  0.4496  1.0977
18587TIP3    H277253   3.408   4.549   6.262  0.2840  0.3643 -0.3133
18588TIP3   OH277254   6.239   2.626   1.240 -0.2683 -0.5403  0.6708
18588TIP3    H177255   6.256   2.533   1.225  0.5041 -0.6140  1.8507
18588TIP3    H277256   6.303   2.672   1.185 -2.2421 -0.6059 -1.8314
18589TIP3   OH277257   2.364   4.054  10.195 -0.5159 -0.8105 -0.2593
18589TIP3    H177258   2.373   4.067  10.289  0.9140 -0.3545 -0.4342
18589TIP3    H277259   2.445   4.088  10.158 -0.9676 -1.1614 -1.6479
18590TIP3   OH277260   5.164   5.562  16.157  0.0092 -0.3361  0.8237
18590TIP3    H177261   5.142   5.597  16.070  1.7970 -0.1602  0.4044
18590TIP3    H277262   5.088   5.509  16.181 -0.2185 -1.0325 -1.2025
18591TIP3   OH277263   1.238   1.610   4.356  0.5051  0.5981  0.6342
18591TIP3    H177264   1.199   1.530   4.391  0.8892 -0.4675 -1.2262
18591TIP3    H277265   1.172   1.677   4.370 -1.8147 -0.9920 -1.7271
18592TIP3   OH277266   1.058   5.295  14.790 -0.4750 -0.2599 -0.3086
18592TIP3    H177267   1.016   5.209  14.799 -0.9050 -0.2705 -2.0032
18592TIP3    H277268   1.022   5.347  14.861 -2.1123 -0.7852 -0.7043
18593TIP3   OH277269   3.155   0.148  10.651 -0.3026  0.5760  0.2340
18593TIP3    H177270   3.154   0.186  10.562  0.3129  1.7249  0.6913
18593TIP3    H277271   3.153   0.054  10.636 -0.1850  0.7422 -1.0137
18594TIP3   OH277272   5.250   1.212  15.623  0.4001  0.1871  0.1303
18594TIP3    H177273   5.341   1.238  15.611  0.7920 -0.2045  1.9625
18594TIP3    H277274   5.255   1.123  15.659 -0.6789  0.3452  0.7158
18595TIP3   OH277275   0.354   0.545   5.908 -0.2862 -0.7662 -0.3443
18595TIP3    H177276   0.390   0.516   5.992 -0.7004 -0.5827 -0.0978
18595TIP3    H277277   0.301   0.470   5.879  0.4989 -1.1383 -0.8356
18596TIP3   OH277278   3.503   6.082  14.582  0.5833  0.3821 -0.2351
18596TIP3    H177279   3.597   6.067  14.592  0.3032 -0.3587  1.9185
18596TIP3    H277280   3.478   6.032  14.505  1.7964 -0.2427 -0.2412
18597TIP3   OH277281   1.423   4.908  15.583 -0.3199  1.0120  0.1884
18597TIP3    H177282   1.406   4.844  15.513  1.0805  1.2632 -0.4211
18597TIP3    H277283   1.369   4.983  15.559  0.2559  1.1528 -0.7252
18598TIP3   OH277284   5.910   3.760   6.559  0.4200 -1.1681 -0.2803
18598TIP3    H177285   5.945   3.823   6.496 -0.4980 -0.9186 -0.5572
18598TIP3    H277286   5.944   3.675   6.530 -1.4275 -1.3251 -2.2315
18599TIP3   OH277287   2.180   0.224   1.310  0.1094 -0.2051 -0.0329
18599TIP3    H177288   2.149   0.179   1.388 -1.6444 -1.0402 -1.1478
18599TIP3    H277289   2.178   0.317   1.333 -0.1362 -0.4524  0.9820
18600TIP3   OH277290   3.904   4.851   5.544  0.2817  0.6523 -0.1828
18600TIP3    H177291   3.845   4.856   5.469  0.0654  1.0858  0.0171
18600TIP3    H277292   3.847   4.853   5.620  0.4959  0.1262 -0.0049
18601TIP3   OH277293   2.376   5.597  13.727  0.9400  0.1856 -0.2323
18601TIP3    H177294   2.399   5.571  13.638 -1.6860  1.2416 -1.3231
18601TIP3    H277295   2.363   5.691  13.722 -1.1749  0.0121  0.7269
18602TIP3   OH277296   3.529   1.182   4.536  0.2927 -0.0033 -0.3089
18602TIP3    H177297   3.522   1.132   4.617  0.5658  1.1990  0.4791
18602TIP3    H277298   3.531   1.273   4.564 -0.4473  0.4779 -1.7283
18603TIP3   OH277299   4.755   2.116   2.181 -0.0634  0.2304 -0.1471
18603TIP3    H177300   4.799   2.045   2.133  0.7682 -0.2139  1.2053
18603TIP3    H277301   4.682   2.073   2.225 -0.1861  0.4212 -0.1651
18604TIP3   OH277302   3.349   3.797   5.393  0.3585 -0.2611 -0.1234
18604TIP3    H177303   3.349   3.885   5.431 -1.9149 -1.2327  2.4600
18604TIP3    H277304   3.257   3.774   5.384  0.8880 -2.2175 -1.1567
18605TIP3   OH277305   1.490   6.568   2.899 -0.5127  0.2647  0.1976
18605TIP3    H177306   1.572   6.551   2.946 -0.8997  1.7487  1.5273
18605TIP3    H277307   1.425   6.580   2.968 -1.4111  1.1589 -0.7642
18606TIP3   OH277308   0.486   6.580  15.463 -0.3329 -0.3499 -0.7957
18606TIP3    H177309   0.504   6.514  15.396  0.9238 -0.9794  0.1288
18606TIP3    H277310   0.491   6.532  15.546  3.1769  1.2700  0.1249
18607TIP3   OH277311   2.803   2.226  15.234  0.3500 -0.0979 -0.0187
18607TIP3    H177312   2.734   2.283  15.199  0.2715  0.2467  0.6799
18607TIP3    H277313   2.884   2.262  15.199  0.4088  1.1853  1.3613
18608TIP3   OH277314   5.950   5.542   5.276 -0.2532  0.0177  0.0588
18608TIP3    H177315   5.911   5.511   5.358  1.1840  0.4842  0.9564
18608TIP3    H277316   5.952   5.465   5.219 -1.0801 -0.3602  0.5266
18609TIP3   OH277317   3.861   1.695   5.587 -0.1401  0.0137 -0.2903
18609TIP3    H177318   3.880   1.745   5.508 -1.6796 -0.9392 -1.3106
18609TIP3    H277319   3.845   1.606   5.556  2.7609 -1.2873  1.4699
18610TIP3   OH277320   5.771   5.087   4.839 -0.0803 -0.2952  0.2259
18610TIP3    H177321   5.708   5.096   4.768  0.5503 -0.3499 -0.3463
18610TIP3    H277322   5.733   5.138   4.911 -1.3403 -1.2660  0.2903
18611TIP3   OH277323   5.014   3.329  14.623  0.1446  0.1529 -0.2486
18611TIP3    H177324   4.970   3.413  14.637  0.2474  0.3690 -1.1486
18611TIP3    H277325   5.056   3.338  14.537  1.0426 -0.4420  0.1181
18612TIP3   OH277326   3.786   3.552   3.533 -0.0883  0.3819 -0.0758
18612TIP3    H177327   3.834   3.549   3.450  0.6304 -0.1796  0.3491
18612TIP3    H277328   3.702   3.512   3.513 -0.0540  0.5716 -0.6222
18613TIP3   OH277329   3.386   4.064   3.209  0.2364 -0.0882 -0.5316
18613TIP3    H177330   3.358   4.141   3.160  0.6406  0.3745 -0.0494
18613TIP3    H277331   3.482   4.063   3.201  0.3265  0.0977  0.3782
18614TIP3   OH277332   6.617   5.433  16.780  0.3784 -0.3341  0.1787
18614TIP3    H177333   6.612   5.386  16.697  3.9972  1.9798 -1.5894
18614TIP3    H277334   6.659   5.371  16.840  1.2861 -0.8014 -0.9003
18615TIP3   OH277335   0.980   5.572   1.765  0.4801 -0.0276 -0.6065
18615TIP3    H177336   1.015   5.649   1.719  0.9635 -0.3738 -0.8266
18615TIP3    H277337   0.954   5.512   1.695  0.7842 -0.3635 -0.4382
18616TIP3   OH277338   1.552   3.167   1.810 -0.0972 -0.0225 -0.6032
18616TIP3    H177339   1.583   3.241   1.861  0.4120 -0.1302 -0.7562
18616TIP3    H277340   1.577   3.187   1.720 -0.5353 -0.0749 -0.7389
18617TIP3   OH277341   2.672   4.682  12.143 -0.0859 -0.6840 -0.6179
18617TIP3    H177342   2.754   4.631  12.143 -0.6232 -1.6202 -2.3682
18617TIP3    H277343   2.700   4.771  12.120  0.4528 -0.9982 -1.2322
18618TIP3   OH277344   5.059   2.705  11.525 -0.1356  1.0396  0.4090
18618TIP3    H177345   4.987   2.714  11.463  0.0437  1.7335  0.2923
18618TIP3    H277346   5.017   2.704  11.611 -0.3918 -0.0363  0.2793
18619TIP3   OH277347   4.510   1.728   0.140  0.3917 -0.4327 -0.2047
18619TIP3    H177348   4.452   1.790   0.183 -0.1917 -1.6187  0.7898
18619TIP3    H277349   4.598   1.764   0.151  0.1482 -0.1931  1.0846
18620TIP3   OH277350   2.143   4.209   4.081  0.4596  0.2796 -0.2199
18620TIP3    H177351   2.204   4.281   4.098  1.2588 -0.7120  1.3690
18620TIP3    H277352   2.072   4.222   4.144  1.0815 -0.7975  0.7547
18621TIP3   OH277353   3.552   6.802   0.202 -0.0918  0.1117 -0.0979
18621TIP3    H177354   3.622   6.737   0.209  0.0910  0.3363  0.1828
18621TIP3    H277355   3.498   6.772   0.129 -0.3939 -0.7182  0.4568
18622TIP3   OH277356   0.283   1.942  14.742  0.2738 -0.2622 -0.9162
18622TIP3    H177357   0.329   1.927  14.825 -1.2930  0.1766  0.0743
18622TIP3    H277358   0.199   1.978  14.768  0.0544  0.6398 -2.7671
18623TIP3   OH277359   2.708   3.947  16.930  0.0779  0.9086  0.5332
18623TIP3    H177360   2.659   4.029  16.918  0.5147  1.5452  2.5920
18623TIP3    H277361   2.799   3.975  16.938  0.3952  0.0704 -0.0236
18624TIP3   OH277362   3.191   6.623  11.860 -0.2380  0.4923 -0.2502
18624TIP3    H177363   3.224   6.705  11.823 -1.5279  0.4360 -1.5912
18624TIP3    H277364   3.244   6.555  11.820  1.5677  0.6676  1.6747
18625TIP3   OH277365   5.275   3.703   6.695  0.0717 -0.4327 -0.2491
18625TIP3    H177366   5.225   3.771   6.741  0.4541 -0.8434  0.8062
18625TIP3    H277367   5.339   3.673   6.759  0.0627 -1.6256 -0.7792
18626TIP3   OH277368   4.979   5.581   5.628  0.0745  0.2560  0.8878
18626TIP3    H177369   4.926   5.502   5.628 -0.1378  0.3359 -1.3777
18626TIP3    H277370   5.053   5.560   5.572  0.2529  1.5127  0.6290
18627TIP3   OH277371   6.286   3.382  11.053  0.3493  0.4781  0.4013
18627TIP3    H177372   6.357   3.329  11.016  0.1785  0.1289  0.5646
18627TIP3    H277373   6.206   3.335  11.028  0.2481 -0.0915  1.6906
18628TIP3   OH277374   6.800   6.123   4.153  0.1544  0.0770 -0.3849
18628TIP3    H177375   6.799   6.031   4.179  1.4414 -0.3933 -1.8716
18628TIP3    H277376   6.891   6.150   4.164 -0.3041  1.3596  0.5442
18629TIP3   OH277377   3.653   4.503  11.901  0.5391  0.2491 -0.0272
18629TIP3    H177378   3.741   4.486  11.936  0.5252  0.3721  0.0676
18629TIP3    H277379   3.596   4.441  11.946  0.4535  0.6818  0.4724
18630TIP3   OH277380   0.825   4.212  16.678 -1.1054  0.0079 -0.2321
18630TIP3    H177381   0.801   4.298  16.711 -0.6712 -0.4299  1.2952
18630TIP3    H277382   0.741   4.171  16.655 -1.2832  0.9819 -1.4090
18631TIP3   OH277383   5.525   0.817  15.853 -0.1319 -0.2251  0.3582
18631TIP3    H177384   5.541   0.727  15.881 -0.8035  0.2995  2.5851
18631TIP3    H277385   5.609   0.846  15.817  0.0662 -1.7246 -0.4830
18632TIP3   OH277386   6.731   5.442  11.519  0.4199  0.1442  0.7216
18632TIP3    H177387   6.751   5.401  11.435  1.1722 -0.3615  1.1381
18632TIP3    H277388   6.644   5.479  11.507  0.1877 -0.6020 -0.0368
18633TIP3   OH277389   6.421   3.360  17.052 -0.5871 -0.0912 -0.2484
18633TIP3    H177390   6.346   3.354  17.111 -0.7022 -0.6893 -0.4498
18633TIP3    H277391   6.496   3.341  17.108 -0.7139 -0.8578 -0.3309
18634TIP3   OH277392   1.352   3.009  13.908  0.3299 -0.1208 -0.3323
18634TIP3    H177393   1.438   3.045  13.932  0.1936  0.1726 -0.2758
18634TIP3    H277394   1.316   2.975  13.990 -0.3387  1.3086  0.0053
18635TIP3   OH277395   6.037   0.198   0.878  0.0540 -0.6788  0.0723
18635TIP3    H177396   6.118   0.171   0.835  0.4940 -1.4924  1.3509
18635TIP3    H277397   6.032   0.293   0.863 -0.2346 -1.0273 -2.3941
18636TIP3   OH277398   6.621   5.491   2.145  0.4393  0.4616 -0.0948
18636TIP3    H177399   6.666   5.407   2.159  0.4126  0.4125 -0.2996
18636TIP3    H277400   6.598   5.520   2.234 -0.0778 -0.0390 -0.0513
18637TIP3   OH277401   4.421   6.519  16.368 -0.4708  0.6165 -0.0776
18637TIP3    H177402   4.478   6.462  16.316 -2.6363 -2.2984  0.5521
18637TIP3    H277403   4.353   6.546  16.307 -0.4479  1.1061  0.1058
18638TIP3   OH277404   1.638   6.427  15.578 -0.2374 -0.7006 -0.2160
18638TIP3    H177405   1.685   6.409  15.660 -0.0180 -0.3891 -0.2721
18638TIP3    H277406   1.683   6.373  15.513 -0.9176 -1.5745  0.0089
18639TIP3   OH277407   5.513   0.047  12.919  0.3826 -0.4310 -0.1303
18639TIP3    H177408   5.436   0.047  12.976 -0.0970 -1.7535 -0.7383
18639TIP3    H277409   5.581   0.003  12.971  1.6711  3.0763  1.4920
18640TIP3   OH277410   0.556   0.961   6.543 -0.3036  0.6783 -0.0186
18640TIP3    H177411   0.516   1.007   6.469  0.7375 -1.1658 -1.8318
18640TIP3    H277412   0.489   0.900   6.573 -0.0385 -0.0932 -0.9179
18641TIP3   OH277413   0.447   6.277  11.064 -0.3271 -0.0897 -0.2522
18641TIP3    H177414   0.530   6.325  11.056 -0.4788  0.0777 -0.8925
18641TIP3    H277415   0.380   6.342  11.043 -0.8176  0.4344  2.5980
18642TIP3   OH277416   3.422   5.328   5.994 -0.2411  0.4953  0.1446
18642TIP3    H177417   3.391   5.414   6.021 -1.7734  0.4545 -1.3273
18642TIP3    H277418   3.380   5.313   5.909 -0.6297 -2.0312  0.7109
18643TIP3   OH277419   1.430   6.378   4.713  0.3195 -0.7894 -0.3705
18643TIP3    H177420   1.431   6.433   4.791  0.7472 -1.0309 -0.2048
18643TIP3    H277421   1.358   6.317   4.728 -2.0909  1.4767 -1.7958
18644TIP3   OH277422   3.608   1.065   2.795  0.0403  0.6396 -0.4980
18644TIP3    H177423   3.559   1.140   2.761 -0.0295  1.1096  0.5929
18644TIP3    H277424   3.649   1.097   2.876 -0.0135 -0.5036  0.0084
18645TIP3   OH277425   5.536   5.494   0.834 -0.3002 -0.1661  0.6165
18645TIP3    H177426   5.591   5.518   0.759  1.8937 -0.8807  1.9234
18645TIP3    H277427   5.456   5.545   0.822  1.0145  1.6862 -0.8715
18646TIP3   OH277428   5.592   5.132  14.100  0.4336  0.3168  0.4376
18646TIP3    H177429   5.530   5.192  14.142 -0.0971  0.5261 -0.6100
18646TIP3    H277430   5.606   5.169  14.013  3.2860  1.1662  1.1521
18647TIP3   OH277431   0.729   2.092  16.341  0.1642  0.5165 -0.1227
18647TIP3    H177432   0.666   2.052  16.282 -2.9793 -0.4964  3.5146
18647TIP3    H277433   0.717   2.186  16.329 -2.2555  0.3565  0.5270
18648TIP3   OH277434   2.646   3.330  17.093  0.5784 -0.3620  0.6069
18648TIP3    H177435   2.582   3.293  17.033  0.7643 -0.8640  0.7113
18648TIP3    H277436   2.657   3.420  17.064 -0.2573 -0.2365  0.6640
18649TIP3   OH277437   3.980   5.395   3.720 -0.3554  0.3406  0.2258
18649TIP3    H177438   4.045   5.461   3.743  1.1249 -0.6392 -1.0045
18649TIP3    H277439   3.960   5.352   3.803 -0.8955  1.8784  0.9415
18650TIP3   OH277440   5.402   5.987  14.188  0.3901  0.5729  0.3130
18650TIP3    H177441   5.339   6.037  14.137  0.9829  1.8199  0.7496
18650TIP3    H277442   5.418   6.041  14.266  1.0458 -0.3079  0.8109
18651TIP3   OH277443   4.813   4.831  15.381  0.5381 -0.0211 -0.0051
18651TIP3    H177444   4.776   4.771  15.317  1.7909 -1.2662  0.3851
18651TIP3    H277445   4.873   4.886  15.330 -0.6933  1.0344 -0.3813
18652TIP3   OH277446   5.653   2.518  16.235  0.0139  0.5672  0.6172
18652TIP3    H177447   5.611   2.602  16.251 -0.7794  0.4537 -0.6951
18652TIP3    H277448   5.722   2.537  16.172  0.2529  0.3416  0.8116
18653TIP3   OH277449   2.322   2.332  11.014 -0.1138  0.3330  0.6654
18653TIP3    H177450   2.285   2.416  11.040 -0.5430 -0.0197  1.2000
18653TIP3    H277451   2.415   2.350  11.003 -0.3608  1.1355 -0.3139
18654TIP3   OH277452   3.777   5.306   0.316  0.3187  0.3321  0.4366
18654TIP3    H177453   3.737   5.253   0.385  0.6197 -0.9249 -0.3199
18654TIP3    H277454   3.789   5.393   0.356  0.0841 -0.2397  1.8072
18655TIP3   OH277455   4.756   6.324   3.761  0.1660 -0.0132  0.4822
18655TIP3    H177456   4.680   6.306   3.817  0.6834 -1.2571  0.8105
18655TIP3    H277457   4.819   6.366   3.820  0.5643 -0.9800  0.7688
18656TIP3   OH277458   1.937   6.123   0.662 -0.1294  0.2130 -0.2338
18656TIP3    H177459   1.875   6.186   0.700 -0.4069  0.5158 -1.1515
18656TIP3    H277460   1.882   6.060   0.615  0.2095 -0.0401 -0.2981
18657TIP3   OH277461   6.228   4.414  12.453  0.1753  0.0601 -0.7002
18657TIP3    H177462   6.301   4.406  12.392 -0.0860 -1.5804 -0.8565
18657TIP3    H277463   6.263   4.386  12.538 -0.5018 -1.8317 -0.9985
18658TIP3   OH277464   6.152   6.286  14.487 -0.1729  0.0698 -0.0802
18658TIP3    H177465   6.231   6.258  14.534 -0.6105 -1.0728  0.0267
18658TIP3    H277466   6.080   6.255  14.542 -0.6959  0.7945 -0.3461
18659TIP3   OH277467   6.252   3.574  15.594  0.3746  0.0789 -0.2158
18659TIP3    H177468   6.273   3.609  15.508  0.4896  3.5175  1.0651
18659TIP3    H277469   6.322   3.605  15.651 -0.1738 -1.3379  1.3300
18660TIP3   OH277470   1.498   1.162  11.985  0.2554 -0.0524  0.4460
18660TIP3    H177471   1.470   1.248  11.954  0.8346 -0.6553 -1.8749
18660TIP3    H277472   1.416   1.114  11.999 -0.0331 -0.2038 -1.5436
18661TIP3   OH277473   1.595   3.357  15.263 -0.5881 -0.1643  0.6207
18661TIP3    H177474   1.657   3.321  15.327 -1.3725 -1.4025  0.7130
18661TIP3    H277475   1.622   3.448  15.252  0.0073 -0.1268  2.1737
18662TIP3   OH277476   3.306   1.298  11.501 -0.5014 -0.2599  0.4384
18662TIP3    H177477   3.262   1.375  11.464  1.4499  1.3370  1.2962
18662TIP3    H277478   3.382   1.285  11.445 -0.4817 -1.2203  0.6752
18663TIP3   OH277479   5.289   0.965  12.512 -0.9115 -0.0187 -0.3678
18663TIP3    H177480   5.368   1.020  12.513 -0.7017 -0.3219 -0.3238
18663TIP3    H277481   5.299   0.905  12.586 -0.9155 -0.4340 -0.7007
18664TIP3   OH277482   6.066   4.241   6.490 -0.5084  0.4918  0.3839
18664TIP3    H177483   6.159   4.259   6.507 -0.6854  2.4570 -0.4382
18664TIP3    H277484   6.065   4.206   6.401 -0.3599 -2.0944  1.3122
18665TIP3   OH277485   4.417   4.713   3.136 -0.3931  0.1939 -0.0916
18665TIP3    H177486   4.381   4.690   3.051  0.3279 -1.3487 -0.0146
18665TIP3    H277487   4.512   4.715   3.123 -0.3096  0.6285  0.5143
18666TIP3   OH277488   0.063   1.941  16.193  0.6264  0.4026 -0.4093
18666TIP3    H177489   0.006   1.865  16.209  0.5207  0.9382  2.1694
18666TIP3    H277490   0.020   1.988  16.121 -1.6842  0.2614  0.7939
18667TIP3   OH277491   0.537   2.610   3.600  0.2319  0.0651  0.2605
18667TIP3    H177492   0.493   2.544   3.546  1.9635 -0.3943 -0.7001
18667TIP3    H277493   0.491   2.691   3.581  0.6532 -0.1203 -1.8203
18668TIP3   OH277494   0.903   5.576   3.094 -0.4409 -0.3335 -0.2533
18668TIP3    H177495   0.955   5.535   3.164 -2.1425 -2.4290 -0.0984
18668TIP3    H277496   0.826   5.519   3.085 -2.4868  2.3268 -0.8078
18669TIP3   OH277497   5.142   3.350   4.097 -0.1074  0.1244 -0.8707
18669TIP3    H177498   5.093   3.358   4.178  0.2729  0.9881 -0.7144
18669TIP3    H277499   5.233   3.339   4.125  0.0216  0.3905 -1.1738
18670TIP3   OH277500   6.372   6.292   2.937 -0.0847 -0.1792  0.1698
18670TIP3    H177501   6.423   6.271   2.859  1.3179 -0.5808  1.1638
18670TIP3    H277502   6.382   6.216   2.994 -1.6777 -0.1942  0.4785
18671TIP3   OH277503   5.810   2.012   1.252  0.5358 -0.0934  0.3269
18671TIP3    H177504   5.784   2.102   1.232 -2.8671 -0.3688  2.6961
18671TIP3    H277505   5.838   1.976   1.167 -1.9618  2.0263 -1.5797
18672TIP3   OH277506   3.339   4.546   4.267 -0.8408 -0.0311 -0.3774
18672TIP3    H177507   3.283   4.566   4.192 -1.1545  0.8384  0.0800
18672TIP3    H277508   3.418   4.599   4.253 -0.1220 -1.2192 -0.9984
18673TIP3   OH277509   2.011   0.931   4.916  0.3981 -0.1838  0.0825
18673TIP3    H177510   1.976   0.900   5.000  2.0992  0.1995  0.9805
18673TIP3    H277511   2.025   0.852   4.865  0.1985 -0.5041  0.5163
18674TIP3   OH277512   4.303   2.342  14.467 -0.2720 -0.0933 -0.3586
18674TIP3    H177513   4.354   2.273  14.425  1.5277  1.4469 -0.8280
18674TIP3    H277514   4.240   2.295  14.522  0.2952 -2.0903 -1.3313
18675TIP3   OH277515   5.038   1.553   1.026 -0.2057 -0.4390 -0.5018
18675TIP3    H177516   5.054   1.639   1.066 -0.3878 -1.3736  1.7361
18675TIP3    H277517   5.032   1.571   0.932 -0.1088  1.9630 -0.1145
18676TIP3   OH277518   4.198   0.640  11.548 -0.5448  0.4220 -0.4441
18676TIP3    H177519   4.193   0.727  11.588 -1.0287  0.3634 -0.3724
18676TIP3    H277520   4.138   0.586  11.600  0.1916 -0.1074 -0.1142
18677TIP3   OH277521   1.728   6.747   0.861 -0.3992  0.1639 -0.4123
18677TIP3    H177522   1.786   6.753   0.937  0.1599  0.5227 -0.8502
18677TIP3    H277523   1.642   6.728   0.897 -0.0757 -0.0085  0.2824
18678TIP3   OH277524   2.216   0.004  13.312  0.1623 -0.3905  0.1548
18678TIP3    H177525   2.196   0.096  13.329 -1.3625 -0.4667 -1.0036
18678TIP3    H277526   2.167  -0.045  13.377 -1.2921 -0.4604 -0.9417
18679TIP3   OH277527   3.459   4.202  12.398 -0.2339  0.6649 -0.2286
18679TIP3    H177528   3.456   4.139  12.326  1.1348  1.9416 -1.4461
18679TIP3    H277529   3.368   4.225  12.413 -0.6519 -0.6302 -0.6007
18680TIP3   OH277530   0.658   0.830  13.942  0.7192 -0.4077  0.2405
18680TIP3    H177531   0.591   0.776  13.982  1.7546 -1.4516  0.6154
18680TIP3    H277532   0.691   0.885  14.013  0.1965  0.1806  0.0332
18681TIP3   OH277533   4.226   1.103  12.708  0.4710  0.3496  0.2675
18681TIP3    H177534   4.321   1.111  12.724  0.4848 -2.1505  1.9255
18681TIP3    H277535   4.186   1.124  12.792 -0.4475  0.6695 -0.2305
18682TIP3   OH277536   6.346   6.783   6.515 -0.1043  0.7307  0.1148
18682TIP3    H177537   6.335   6.873   6.546 -0.3343  0.9055 -0.4670
18682TIP3    H277538   6.425   6.752   6.560 -0.3370  1.0352  0.7420
18683TIP3   OH277539   0.356   2.137  13.110 -0.6711  0.7146  0.5616
18683TIP3    H177540   0.295   2.194  13.063  1.0130  1.3623 -0.9804
18683TIP3    H277541   0.412   2.100  13.041 -0.2046 -0.9610  1.7687
18684TIP3   OH277542   0.956   4.518  13.233  0.0838  0.0307  0.2905
18684TIP3    H177543   1.011   4.464  13.176 -0.1963 -0.8335  0.8110
18684TIP3    H277544   0.987   4.607  13.219 -1.2107  0.1390 -2.6203
18685TIP3   OH277545   2.195   0.585   1.330  0.8919  0.0748 -0.2846
18685TIP3    H177546   2.102   0.609   1.331  0.5109 -1.3302  0.0830
18685TIP3    H277547   2.211   0.555   1.241  0.5494 -1.2448  0.0782
18686TIP3   OH277548   4.087   4.650   6.987  0.5349  0.5545  0.1392
18686TIP3    H177549   4.136   4.579   6.946 -1.9723  0.2478 -2.6416
18686TIP3    H277550   4.005   4.610   7.015  0.6283  1.6156  2.1652
18687TIP3   OH277551   0.219   2.715  12.425  0.4846 -0.1110 -0.3005
18687TIP3    H177552   0.240   2.706  12.518  0.1204 -0.1437 -0.2212
18687TIP3    H277553   0.130   2.682  12.417  0.3178  0.3887 -0.5640
18688TIP3   OH277554   1.243   3.183   0.467  0.1394 -0.7558 -0.2317
18688TIP3    H177555   1.195   3.265   0.455  1.3214  0.0178  0.1828
18688TIP3    H277556   1.184   3.116   0.432 -1.0488  0.2033 -0.1341
18689TIP3   OH277557   5.496   0.345  14.506 -0.4328  0.0032 -0.1442
18689TIP3    H177558   5.555   0.380  14.573  0.1105 -1.3914  0.1448
18689TIP3    H277559   5.555   0.310  14.439 -0.9686  1.0158 -1.1754
18690TIP3   OH277560   0.193   0.568  13.623 -0.5088  0.5422  0.2738
18690TIP3    H177561   0.101   0.593  13.619 -0.1963  1.6298 -0.6586
18690TIP3    H277562   0.238   0.633  13.569  0.7071 -0.4194  0.0793
18691TIP3   OH277563   3.691   2.897   2.741 -0.0697 -0.1988 -0.4029
18691TIP3    H177564   3.616   2.838   2.750 -1.1082  1.3459  1.8702
18691TIP3    H277565   3.662   2.978   2.782  1.8837  1.3950 -2.0000
18692TIP3   OH277566   4.890   6.074   0.907 -0.3776  0.0347  0.7117
18692TIP3    H177567   4.822   6.007   0.919  0.5732 -1.4911 -1.6143
18692TIP3    H277568   4.846   6.157   0.924 -1.7841 -1.0838  3.0787
18693TIP3   OH277569   5.375   1.077  11.439  0.1988 -0.1646 -0.2732
18693TIP3    H177570   5.466   1.054  11.457  0.1203 -0.4255 -0.1931
18693TIP3    H277571   5.359   1.048  11.350  0.0215 -0.6727 -0.0807
18694TIP3   OH277572   1.030   4.624  13.549  0.0053  0.6672 -0.0262
18694TIP3    H177573   1.066   4.563  13.484 -0.4565  1.0431 -0.6492
18694TIP3    H277574   0.973   4.569  13.604  1.7003  0.0071  1.1561
18695TIP3   OH277575   4.153   2.969  16.418 -0.0001 -0.3957  0.7125
18695TIP3    H177576   4.169   2.903  16.485 -0.5894 -1.5081 -0.1895
18695TIP3    H277577   4.107   3.040  16.463  0.2176 -0.8178  1.6054
18696TIP3   OH277578   3.220   6.583   0.194 -0.3216  0.5019 -0.2033
18696TIP3    H177579   3.148   6.646   0.200  0.4467  1.4764 -0.8722
18696TIP3    H277580   3.186   6.513   0.138 -0.2197  1.7512 -1.9034
18697TIP3   OH277581   1.359   3.280  15.730 -0.0952 -0.1764 -0.1560
18697TIP3    H177582   1.392   3.356  15.779 -0.7637 -0.2132  0.3603
18697TIP3    H277583   1.399   3.289  15.643 -0.0997  0.7176 -0.0777
18698TIP3   OH277584   0.289   2.129   4.395  0.3326  0.0193  0.0664
18698TIP3    H177585   0.325   2.116   4.307  1.9858 -1.3679  0.8842
18698TIP3    H277586   0.301   2.222   4.412 -0.8177  0.4798 -1.4875
18699TIP3   OH277587   5.902   0.866   5.612 -0.3010  0.4038 -0.6241
18699TIP3    H177588   5.841   0.938   5.624 -0.5284  0.1667 -0.3276
18699TIP3    H277589   5.942   0.853   5.698 -3.1311 -2.3660  0.5013
18700TIP3   OH277590   5.235   6.669   5.834 -0.0793  0.0497 -0.2985
18700TIP3    H177591   5.197   6.689   5.920  0.8752 -0.5295  0.2738
18700TIP3    H277592   5.194   6.732   5.775  0.3845  1.4863  0.8487
18701TIP3   OH277593   4.234   2.464  15.048  0.3286 -0.2609  0.3806
18701TIP3    H177594   4.150   2.452  15.003  0.4131 -1.0940  0.4151
18701TIP3    H277595   4.261   2.375  15.072  0.7532  0.0863  1.2330
18702TIP3   OH277596   0.963   0.071  15.374  0.2584  0.5177  0.4829
18702TIP3    H177597   0.881   0.022  15.363  1.6197 -2.2387  1.6266
18702TIP3    H277598   0.993   0.088  15.285  0.7419 -2.7417 -0.1052
18703TIP3   OH277599   4.652   4.782   1.154 -0.5213 -0.4020  0.0426
18703TIP3    H177600   4.624   4.718   1.088  0.5437 -0.8305 -0.0095
18703TIP3    H277601   4.587   4.852   1.147 -0.8024 -0.7404 -1.0127
18704TIP3   OH277602   4.196   3.176  13.619  0.4923 -0.3481  0.2860
18704TIP3    H177603   4.212   3.261  13.660  0.7631  0.7638 -1.9135
18704TIP3    H277604   4.249   3.114  13.668  2.2233  1.2079  0.4648
18705TIP3   OH277605   3.775   0.761   1.032  0.4478  0.4425  0.1889
18705TIP3    H177606   3.859   0.768   0.987  1.5243 -1.7704  1.6614
18705TIP3    H277607   3.798   0.730   1.120 -1.8412  1.0087  1.0640
18706TIP3   OH277608   1.588   5.664   6.312 -0.0504  0.7508 -0.3343
18706TIP3    H177609   1.624   5.743   6.271  2.8325 -0.4396 -0.4001
18706TIP3    H277610   1.662   5.629   6.362 -2.3476  0.1394  2.9408
18707TIP3   OH277611   6.048   2.683   2.516  0.0429  0.4219 -0.2809
18707TIP3    H177612   6.014   2.773   2.507 -0.1788  0.3135 -0.5683
18707TIP3    H277613   6.134   2.694   2.555 -0.0752  0.7477 -0.1037
18708TIP3   OH277614   4.088   5.104  11.626 -0.0429 -0.4258  0.1768
18708TIP3    H177615   4.086   5.197  11.606 -2.1981  0.0721  2.1927
18708TIP3    H277616   4.171   5.073  11.591  0.0083  1.8816 -1.9946
18709TIP3   OH277617   2.768   4.220   0.808  0.2591  0.2875 -0.0304
18709TIP3    H177618   2.780   4.310   0.777  0.4572 -0.1904 -1.3888
18709TIP3    H277619   2.690   4.189   0.760  1.2483 -0.8478 -0.9621
18710TIP3   OH277620   3.878   1.935  13.028 -0.2321  0.3134  0.4088
18710TIP3    H177621   3.962   1.938  13.073  0.6274 -2.1002 -0.8493
18710TIP3    H277622   3.900   1.917  12.937 -2.1099  0.2818 -0.0910
18711TIP3   OH277623   2.692   5.435  14.435  0.3132  0.1685 -0.1947
18711TIP3    H177624   2.677   5.356  14.385  1.2563 -0.3560  0.3207
18711TIP3    H277625   2.612   5.486  14.424 -1.1350 -1.7084  1.0742
18712TIP3   OH277626   1.187   0.022   2.910  0.0941  0.6889  0.5031
18712TIP3    H177627   1.266  -0.008   2.954  0.6822  2.0961  0.4553
18712TIP3    H277628   1.217   0.088   2.848 -0.9733  0.2723 -0.4932
18713TIP3   OH277629   3.066   3.000  15.729 -0.0514 -0.5286  0.1126
18713TIP3    H177630   2.989   2.947  15.707  0.6374 -1.5131  0.0114
18713TIP3    H277631   3.039   3.052  15.805 -1.9259  1.6673 -1.8934
18714TIP3   OH277632   6.485   4.214   4.439  0.3902  0.3857 -0.0791
18714TIP3    H177633   6.503   4.292   4.492  1.2866  0.6603 -0.7732
18714TIP3    H277634   6.429   4.160   4.496 -0.0922  1.4336  0.4830
18715TIP3   OH277635   0.863   0.124  13.193  0.6712 -0.0004 -0.4006
18715TIP3    H177636   0.841   0.107  13.101  1.4375  0.1077 -0.6147
18715TIP3    H277637   0.931   0.061  13.214 -1.4574 -1.9781  0.9922
18716TIP3   OH277638   0.579   4.950  15.661  0.3903 -0.6510 -0.1591
18716TIP3    H177639   0.640   4.898  15.714  0.1233  0.8075  1.7086
18716TIP3    H277640   0.628   5.030  15.642 -0.8733  0.5417  1.3766
18717TIP3   OH277641   3.606   0.230  13.414  0.1466  1.0103  0.2867
18717TIP3    H177642   3.527   0.199  13.459  0.8208 -0.6376  0.4202
18717TIP3    H277643   3.622   0.164  13.347  1.5572  1.1795  0.4289
18718TIP3   OH277644   1.112   6.171   5.677 -0.0318 -0.1765 -0.2916
18718TIP3    H177645   1.204   6.184   5.700  0.1466 -0.4785 -0.8226
18718TIP3    H277646   1.096   6.078   5.696 -0.8814  0.3740  2.0474
18719TIP3   OH277647   3.810   3.195   1.783 -0.3060 -0.1266 -0.0369
18719TIP3    H177648   3.862   3.115   1.779  1.1078  0.5778  2.1739
18719TIP3    H277649   3.795   3.219   1.691  3.4963 -0.3007 -0.9000
18720TIP3   OH277650   3.256   6.667   3.605 -0.0720 -0.2208  0.2470
18720TIP3    H177651   3.314   6.733   3.567  1.4430 -1.2706  0.6552
18720TIP3    H277652   3.186   6.719   3.646 -1.3726  0.9847 -3.1061
18721TIP3   OH277653   1.598   1.785   4.954  0.5076  0.7655  0.3809
18721TIP3    H177654   1.592   1.786   5.049 -0.0212 -5.1082  0.8130
18721TIP3    H277655   1.509   1.802   4.923 -0.9798 -3.4714  1.6138
18722TIP3   OH277656   6.766   4.009  16.892 -0.2763  0.2191  0.2432
18722TIP3    H177657   6.706   3.943  16.857 -2.3547  0.3351  3.2163
18722TIP3    H277658   6.804   3.968  16.970  2.4119  0.7478 -0.6859
18723TIP3   OH277659   4.623   5.140  13.926 -0.3959 -0.0347 -0.3558
18723TIP3    H177660   4.670   5.183  13.855 -0.3280 -1.1519 -1.0067
18723TIP3    H277661   4.691   5.093  13.975 -0.2955  1.4861  1.0489
18724TIP3   OH277662   6.486   6.050   3.057 -0.3663  0.3861 -0.4316
18724TIP3    H177663   6.544   6.040   3.133 -0.1596  0.8808 -0.5206
18724TIP3    H277664   6.535   6.107   2.998  0.2360 -1.3820 -1.7134
18725TIP3   OH277665   4.695   2.352  16.430  0.2714  0.0613  0.1140
18725TIP3    H177666   4.668   2.434  16.471  0.1075 -0.5227  1.2126
18725TIP3    H277667   4.614   2.303  16.420  0.5953 -0.7297  1.2177
18726TIP3   OH277668   0.418   2.731  16.682 -0.4679 -0.2571  0.1557
18726TIP3    H177669   0.375   2.671  16.621  1.4995 -1.0280 -0.5635
18726TIP3    H277670   0.367   2.811  16.677 -2.8119 -1.6265  0.6683
18727TIP3   OH277671   1.688   4.902   4.147 -1.4923  0.2610  0.1626
18727TIP3    H177672   1.673   4.903   4.052  3.0918  0.2928 -0.7658
18727TIP3    H277673   1.711   4.811   4.166 -3.0759  0.0911  1.4952
18728TIP3   OH277674   5.377   3.628   2.490  0.0914 -0.1840 -0.5598
18728TIP3    H177675   5.445   3.595   2.549 -0.8225 -2.7152 -0.7994
18728TIP3    H277676   5.294   3.605   2.533 -0.6061  0.1349 -1.6909
18729TIP3   OH277677   2.243   0.282   0.711  0.4314 -0.3877 -0.0370
18729TIP3    H177678   2.246   0.365   0.664 -1.6132 -0.5453 -0.5459
18729TIP3    H277679   2.232   0.307   0.803 -1.9952 -0.0147 -0.3585
18730TIP3   OH277680   6.604   5.068   5.103  0.1581  0.4814 -0.3675
18730TIP3    H177681   6.676   5.020   5.143 -0.4514 -0.6301 -0.5665
18730TIP3    H277682   6.525   5.025   5.136 -0.4268  1.6414 -0.1919
18731TIP3   OH277683   5.859   5.204   5.703 -0.9111 -0.1550 -0.8116
18731TIP3    H177684   5.936   5.181   5.650  0.6872 -1.0526  1.7368
18731TIP3    H277685   5.892   5.264   5.769 -2.7577  0.6556 -0.5643
18732TIP3   OH277686   2.093   0.843   1.715 -0.0152 -0.2509 -0.3572
18732TIP3    H177687   2.115   0.870   1.626  0.5122  2.3442  0.4773
18732TIP3    H277688   2.153   0.771   1.734  1.1643  0.4101 -1.4508
18733TIP3   OH277689   2.841   2.157   4.700 -0.2036  0.2883  0.3113
18733TIP3    H177690   2.872   2.246   4.683  0.0479  0.3517  1.0511
18733TIP3    H277691   2.753   2.154   4.663  1.2978 -0.5015 -3.6660
18734TIP3   OH277692   1.937   3.194   3.170  0.0697  0.4433  0.1309
18734TIP3    H177693   1.980   3.115   3.202  0.8989 -0.1099 -2.2019
18734TIP3    H277694   1.956   3.196   3.076 -3.7178  1.0287 -0.7716
18735TIP3   OH277695   6.065   6.377   0.601  0.1252 -0.1744 -0.1786
18735TIP3    H177696   6.030   6.392   0.689  2.3443  0.2989  0.6814
18735TIP3    H277697   6.052   6.284   0.585  0.5786 -0.4773  1.0897
18736TIP3   OH277698   4.981   4.944  15.217 -0.0871 -0.8168 -0.8488
18736TIP3    H177699   4.968   5.010  15.148 -1.4116 -0.5110 -0.3200
18736TIP3    H277700   5.076   4.928  15.216  0.2912  1.1360 -0.9622
18737TIP3   OH277701   5.422   5.681  15.014  0.2043  0.0202  0.3450
18737TIP3    H177702   5.406   5.756  15.071 -1.9925 -1.5329  1.9502
18737TIP3    H277703   5.373   5.701  14.934 -1.0549 -0.0146  1.0820
18738TIP3   OH277704   0.033   4.877   2.779  0.5282 -0.6372 -0.0911
18738TIP3    H177705  -0.012   4.886   2.695  0.9634 -2.0501 -0.4906
18738TIP3    H277706   0.009   4.790   2.811  1.0474 -0.4549  0.8459
18739TIP3   OH277707   6.126   4.614   1.424  0.1726 -0.6189  0.3507
18739TIP3    H177708   6.117   4.710   1.420 -0.4243 -0.6914 -0.3974
18739TIP3    H277709   6.041   4.584   1.455 -0.9555 -1.0820 -2.7819
18740TIP3   OH277710   4.297   6.312   6.489 -0.2807 -0.3420  0.2675
18740TIP3    H177711   4.271   6.236   6.436 -2.9658  0.0714  0.8466
18740TIP3    H277712   4.245   6.304   6.569  1.2991  0.7833  1.4665
18741TIP3   OH277713   5.185   6.358   3.732 -0.4863 -0.6061  0.0251
18741TIP3    H177714   5.168   6.441   3.777  1.3418 -0.1642 -0.0150
18741TIP3    H277715   5.257   6.378   3.672 -0.8340 -1.9367 -0.8782
18742TIP3   OH277716   5.196   1.320  14.350 -0.1609  0.5729  0.1681
18742TIP3    H177717   5.280   1.352  14.318 -0.1191  0.2979 -0.0061
18742TIP3    H277718   5.181   1.367  14.431  0.5734  0.0131  0.6455
18743TIP3   OH277719   6.782   4.804  14.965  0.4275  0.1302  0.3549
18743TIP3    H177720   6.828   4.872  15.014 -0.6626  1.2389 -0.0833
18743TIP3    H277721   6.826   4.802  14.880 -0.6554  1.6600 -0.3037
18744TIP3   OH277722   3.101   3.367   1.118 -0.1179 -0.0600  0.0423
18744TIP3    H177723   3.067   3.447   1.078 -0.4853  0.1410  0.7234
18744TIP3    H277724   3.162   3.398   1.185  1.7581 -0.4359 -1.4406
18745TIP3   OH277725   1.268   5.877   3.110 -0.3031  0.6173  0.2338
18745TIP3    H177726   1.245   5.828   3.031 -1.6261  0.5180  0.6480
18745TIP3    H277727   1.211   5.954   3.107  0.3752  1.1444  0.5754
18746TIP3   OH277728   5.635   2.873   3.956 -0.4354 -0.6072  0.2462
18746TIP3    H177729   5.683   2.888   4.037  2.0570 -2.3670 -0.7703
18746TIP3    H277730   5.566   2.811   3.979 -1.1675  0.5605  1.3772
18747TIP3   OH277731   1.763   6.157   5.180  0.1696 -0.3368 -0.0464
18747TIP3    H177732   1.669   6.164   5.195  0.5578  0.0402  2.6575
18747TIP3    H277733   1.774   6.174   5.086 -2.3905 -0.0088 -0.3465
18748TIP3   OH277734   1.930   3.826  16.194 -0.0868  0.3642 -0.1305
18748TIP3    H177735   2.010   3.869  16.224  0.4733 -0.8645  0.2033
18748TIP3    H277736   1.880   3.809  16.274 -0.5015  0.7722 -0.3006
18749TIP3   OH277737   1.649   3.322   0.332  0.1448 -0.0392 -0.2558
18749TIP3    H177738   1.683   3.412   0.333 -0.6621  0.2900 -0.9604
18749TIP3    H277739   1.713   3.272   0.382  0.2992  1.0362  0.6744
18750TIP3   OH277740   3.750   6.534  16.271 -0.2625  0.6755  0.2341
18750TIP3    H177741   3.768   6.495  16.185  0.5575  2.0555 -0.2466
18750TIP3    H277742   3.659   6.564  16.266 -0.1886  0.8282 -0.1815
18751TIP3   OH277743   4.444   0.769   0.864  0.6673 -0.6286 -0.1140
18751TIP3    H177744   4.481   0.746   0.779  2.4712 -0.2863  0.5368
18751TIP3    H277745   4.471   0.860   0.877 -3.1637  0.8081 -1.0024
18752TIP3   OH277746   0.499   4.663   1.707 -0.2097  0.3216 -0.5760
18752TIP3    H177747   0.444   4.626   1.777  0.5440 -1.0401 -0.6704
18752TIP3    H277748   0.437   4.693   1.641 -0.8960  0.5506  0.1549
18753TIP3   OH277749   4.585   2.682   2.161  0.1804  0.0287 -0.3453
18753TIP3    H177750   4.496   2.675   2.195 -0.3905  0.6769 -1.6677
18753TIP3    H277751   4.629   2.740   2.223 -0.1473 -0.7408  0.6279
18754TIP3   OH277752   4.723   6.026   5.957  0.7208 -0.0117  0.4450
18754TIP3    H177753   4.776   5.947   5.946 -1.6313 -1.4562 -1.4160
18754TIP3    H277754   4.666   6.007   6.031  0.5667  0.1682  0.3747
18755TIP3   OH277755   3.281   0.038  11.746  0.1931  0.6667  0.6397
18755TIP3    H177756   3.229   0.115  11.723  0.6890  1.5556  2.3851
18755TIP3    H277757   3.352   0.037  11.682 -0.1929  1.2603  0.1914
18756TIP3   OH277758   6.222   4.792  12.727 -0.1978 -0.0280  0.2642
18756TIP3    H177759   6.282   4.789  12.801  0.0763  1.6649  0.1542
18756TIP3    H277760   6.157   4.859  12.752 -1.1597 -0.7498 -0.2566
18757TIP3   OH277761   2.386   2.179  15.583 -0.1642 -0.0121  0.2759
18757TIP3    H177762   2.432   2.255  15.548 -0.8983  0.0061 -0.7071
18757TIP3    H277763   2.454   2.125  15.622  1.0899 -1.0146 -2.9559
18758TIP3   OH277764   0.653   3.186  12.942 -0.0655 -0.0321 -0.8563
18758TIP3    H177765   0.661   3.168  13.036 -0.3479 -0.0303 -0.8314
18758TIP3    H277766   0.582   3.129  12.913  0.0295 -0.0404 -1.0723
18759TIP3   OH277767   6.282   0.609   6.857  0.5045 -0.2771 -0.1128
18759TIP3    H177768   6.351   0.636   6.796  0.3763  1.9309  0.6059
18759TIP3    H277769   6.210   0.669   6.838  0.1286 -0.1667  1.5435
18760TIP3   OH277770   0.486   6.571  11.220 -0.6653 -0.0937  0.1719
18760TIP3    H177771   0.434   6.647  11.248  0.0457  0.5337 -0.1714
18760TIP3    H277772   0.524   6.598  11.136 -1.2712 -1.2500 -0.4931
18761TIP3   OH277773   5.722   1.040   4.244  0.1730  0.0071  0.0941
18761TIP3    H177774   5.671   1.094   4.305  1.7194  1.4334  0.2106
18761TIP3    H277775   5.813   1.053   4.271  0.6408 -2.8760  0.2273
18762TIP3   OH277776   2.473   1.578   4.322  0.0259 -0.1537  0.2418
18762TIP3    H177777   2.567   1.570   4.308 -0.1304 -2.2313  0.0841
18762TIP3    H277778   2.442   1.488   4.331 -2.4383  0.1845 -2.9061
18763TIP3   OH277779   2.008   6.400  12.752  0.8592 -0.6137  0.2228
18763TIP3    H177780   2.036   6.349  12.676  1.5317 -2.5894  1.6937
18763TIP3    H277781   2.011   6.491  12.723  2.9529 -1.1518 -1.5469
18764TIP3   OH277782   6.624   6.614  13.173  0.1021  0.0839 -0.2423
18764TIP3    H177783   6.547   6.561  13.151 -1.0344  0.7677  1.8634
18764TIP3    H277784   6.653   6.580  13.257  1.0121  1.0098 -0.1702
18765TIP3   OH277785   6.027   5.848   1.642 -0.5123 -0.6221 -0.3222
18765TIP3    H177786   6.113   5.872   1.608  0.3701 -0.9233  1.6084
18765TIP3    H277787   6.001   5.923   1.695 -0.8070 -1.1189  0.2375
18766TIP3   OH277788   2.544   0.342  10.791 -0.2151 -0.1661  0.1659
18766TIP3    H177789   2.602   0.399  10.842 -0.8638 -0.5076  1.3231
18766TIP3    H277790   2.540   0.383  10.704  0.8756  0.4553  0.3879
18767TIP3   OH277791   4.026   0.060  13.472 -0.1495 -0.1084  0.1561
18767TIP3    H177792   4.101   0.042  13.527 -1.7636  0.4497  2.7386
18767TIP3    H277793   4.022  -0.013  13.410  1.5825 -0.9401  0.9751
18768TIP3   OH277794   2.811   1.177  17.142  0.2666  0.3058 -0.2828
18768TIP3    H177795   2.754   1.200  17.069 -1.4230  1.0063  1.1701
18768TIP3    H277796   2.884   1.131  17.102 -0.7875  0.3215 -2.3613
18769TIP3   OH277797   2.306   0.230   3.532 -0.0212  0.1405 -0.6884
18769TIP3    H177798   2.270   0.311   3.496 -1.9269 -0.2241  0.2539
18769TIP3    H277799   2.229   0.178   3.555  1.1259 -0.9016  1.0338
18770TIP3   OH277800   0.278   2.659  16.955  0.5468 -0.0533 -0.2250
18770TIP3    H177801   0.283   2.754  16.946 -0.4038  0.0308  0.0762
18770TIP3    H277802   0.233   2.629  16.876 -0.0959 -0.1500  0.1782
18771TIP3   OH277803   3.797   4.674   2.962 -0.2853 -0.5840 -0.5150
18771TIP3    H177804   3.720   4.621   2.979 -0.6115 -1.2281 -3.4809
18771TIP3    H277805   3.763   4.763   2.950 -0.5228 -0.7988 -1.4469
18772TIP3   OH277806   0.980   3.788  17.114  0.3330 -0.0851 -0.1280
18772TIP3    H177807   0.970   3.859  17.051  0.4282  0.4003  0.3950
18772TIP3    H277808   1.023   3.828  17.190 -3.2096  0.3578  1.8870
18773TIP3   OH277809   4.468   4.387   5.043  0.2153  0.2495  0.0948
18773TIP3    H177810   4.482   4.350   4.956 -0.7971  1.1632 -0.4704
18773TIP3    H277811   4.546   4.361   5.092 -0.3189 -2.3915 -0.3318
18774TIP3   OH277812   5.973   1.307   2.528 -0.0182  0.1306 -0.2161
18774TIP3    H177813   5.968   1.350   2.613  0.1910  0.1278 -0.2023
18774TIP3    H277814   5.882   1.305   2.497  0.1293  1.9635 -0.9028
18775TIP3   OH277815   0.827   5.089   4.577  0.0919  0.1084 -0.0556
18775TIP3    H177816   0.758   5.082   4.511  1.2518 -0.8317 -1.2346
18775TIP3    H277817   0.865   5.176   4.563 -0.2291  0.2524 -0.0388
18776TIP3   OH277818   4.299   4.657  12.031  0.1384  1.0085 -0.2693
18776TIP3    H177819   4.319   4.587  11.968 -0.1021  1.3368 -0.7224
18776TIP3    H277820   4.379   4.665  12.083  0.1577  0.3773 -0.1876
18777TIP3   OH277821   5.281   2.436  12.075  0.2196 -0.9403  0.1004
18777TIP3    H177822   5.259   2.419  11.984  1.7635  0.8875 -0.6993
18777TIP3    H277823   5.294   2.531  12.079 -0.9863 -0.7941  2.5271
18778TIP3   OH277824   3.398   6.335  16.728 -0.6998 -0.0294  0.6134
18778TIP3    H177825   3.371   6.266  16.788 -1.5979 -0.1064  0.1392
18778TIP3    H277826   3.328   6.400  16.733 -1.5286 -0.6889 -1.3751
18779TIP3   OH277827   0.567   1.220  10.803  0.5691  0.3965 -0.1841
18779TIP3    H177828   0.602   1.133  10.824  0.4461  0.5860  0.8851
18779TIP3    H277829   0.504   1.237  10.874 -2.7911 -0.5285 -2.6535
18780TIP3   OH277830   5.326   2.232   4.403 -0.0822  0.5995 -0.5633
18780TIP3    H177831   5.345   2.305   4.344 -0.7166  0.7268 -0.6141
18780TIP3    H277832   5.410   2.187   4.414  0.1145  0.7897 -1.2741
18781TIP3   OH277833   5.042   0.113  12.878  0.0926 -0.3873  0.3395
18781TIP3    H177834   4.958   0.124  12.923 -0.5487 -0.1296 -0.8967
18781TIP3    H277835   5.019   0.084  12.790  1.3274 -0.6971  0.1022
18782TIP3   OH277836   2.757   6.656  11.120  0.4862 -0.0103 -0.0240
18782TIP3    H177837   2.787   6.730  11.068 -0.9279  0.2863 -0.4563
18782TIP3    H277838   2.681   6.623  11.073 -1.0492  0.4751  2.0154
18783TIP3   OH277839   6.779   4.103   3.164  0.0216  0.1729 -0.0331
18783TIP3    H177840   6.703   4.144   3.125 -0.3072  0.3310  0.7462
18783TIP3    H277841   6.774   4.011   3.137  0.4998  0.5240 -1.3872
18784TIP3   OH277842   0.839   1.762   1.855  0.5046 -0.3470  0.1855
18784TIP3    H177843   0.856   1.717   1.772  2.2791 -0.0724  0.3638
18784TIP3    H277844   0.840   1.855   1.833 -0.9953 -0.3099  0.1949
18785TIP3   OH277845   6.002   3.561   3.217  0.8221  0.2254 -0.1932
18785TIP3    H177846   5.944   3.597   3.149  2.6123 -0.0570 -1.9668
18785TIP3    H277847   6.053   3.495   3.172  2.3756  0.3125  1.3485
18786TIP3   OH277848   2.350   4.157  13.270 -0.5225  0.0413 -0.2704
18786TIP3    H177849   2.385   4.130  13.356  0.6652  0.4537 -0.6108
18786TIP3    H277850   2.304   4.079  13.238  0.0371 -0.5067  0.2244
18787TIP3   OH277851   6.393   5.710  11.108 -0.3776  0.6989  0.3833
18787TIP3    H177852   6.477   5.752  11.128 -1.3370  3.1358 -0.3559
18787TIP3    H277853   6.343   5.714  11.189 -0.1304  0.0826  0.5719
18788TIP3   OH277854   3.205   6.428   1.121 -0.5164 -0.1087 -0.6321
18788TIP3    H177855   3.233   6.360   1.182  1.5910 -0.3698 -1.7675
18788TIP3    H277856   3.114   6.408   1.102 -0.0982 -2.3750 -0.5794
18789TIP3   OH277857   1.868   5.375   5.519 -0.1223  0.1899  0.5408
18789TIP3    H177858   1.962   5.386   5.505 -0.1434  1.2548  1.0991
18789TIP3    H277859   1.835   5.465   5.527 -1.5041 -0.0571 -1.6008
18790TIP3   OH277860   2.038   6.191  12.548 -0.4923  0.0992  0.0477
18790TIP3    H177861   1.972   6.126  12.524  1.0294 -1.0076 -1.3539
18790TIP3    H277862   2.122   6.145  12.539  0.4862  0.9781  3.2294
18791TIP3   OH277863   2.764   5.611   6.140  0.0403  0.1653  0.1739
18791TIP3    H177864   2.671   5.590   6.140  0.5872 -2.5357 -0.3341
18791TIP3    H277865   2.785   5.627   6.048  0.1312  0.5605  0.2626
18792TIP3   OH277866   0.047   4.192   2.633 -0.2408  0.3736 -0.6825
18792TIP3    H177867  -0.037   4.235   2.622 -0.2260  0.0918 -2.1305
18792TIP3    H277868   0.088   4.236   2.707 -1.2606  1.1410 -0.5624
18793TIP3   OH277869   1.199   6.236  14.653  0.5163  0.2796 -0.3873
18793TIP3    H177870   1.275   6.198  14.698  1.4422  0.1418 -1.9743
18793TIP3    H277871   1.209   6.330  14.664  1.5610  0.3225 -1.5101
18794TIP3   OH277872   4.310   6.517  13.533  0.1132  0.0082 -0.0050
18794TIP3    H177873   4.216   6.507  13.522 -0.6266  2.2472  3.0495
18794TIP3    H277874   4.330   6.477  13.617  1.4897  1.3323  0.3513
18795TIP3   OH277875   4.454   4.554  16.828 -0.3877 -0.0693  0.3207
18795TIP3    H177876   4.425   4.470  16.791  1.2714  0.0382 -1.3266
18795TIP3    H277877   4.436   4.618  16.760  0.3512  0.5519  0.6976
18796TIP3   OH277878   4.128   0.300  10.742  0.1837  0.4075  0.1537
18796TIP3    H177879   4.076   0.373  10.708  0.4977 -0.2978 -1.9881
18796TIP3    H277880   4.216   0.336  10.749  0.3834  0.2098 -1.1106
18797TIP3   OH277881   1.536   3.479   2.353  0.8801 -0.7504 -0.1714
18797TIP3    H177882   1.445   3.510   2.347  0.2047 -2.2739  1.4651
18797TIP3    H277883   1.588   3.559   2.346 -0.7289  0.6131  2.1410
18798TIP3   OH277884   2.924   2.485  15.558  0.0602  0.4555  0.2554
18798TIP3    H177885   2.971   2.404  15.574  0.7868  0.7769 -0.2219
18798TIP3    H277886   2.908   2.486  15.464 -1.0798  0.2626  0.4331
18799TIP3   OH277887   1.516   0.305  12.049  0.2336  1.0682  0.5848
18799TIP3    H177888   1.454   0.319  12.120 -0.2004 -1.9188  0.9221
18799TIP3    H277889   1.470   0.336  11.971 -0.8864  0.7822  1.1119
18800TIP3   OH277890   5.870   6.544  16.678 -0.4192 -0.3659  0.1286
18800TIP3    H177891   5.799   6.536  16.615 -0.3635  2.3916 -0.3870
18800TIP3    H277892   5.918   6.622  16.651  1.4361 -0.8163  1.8399
18801TIP3   OH277893   1.570   3.743  11.784 -0.0469 -0.0367 -0.3829
18801TIP3    H177894   1.613   3.711  11.864 -0.5062  1.4451  0.4924
18801TIP3    H277895   1.610   3.692  11.714 -0.3939 -2.1450  0.8692
18802TIP3   OH277896   4.124   4.447   5.470 -0.0765  0.4843 -0.0370
18802TIP3    H177897   4.216   4.444   5.446  0.1313  0.3025  0.7541
18802TIP3    H277898   4.121   4.410   5.559 -0.9223  0.3679 -0.1031
18803TIP3   OH277899   4.497   0.201   5.642  0.4436  0.1280  0.5493
18803TIP3    H177900   4.486   0.212   5.736 -0.2165 -1.6624  0.7161
18803TIP3    H277901   4.473   0.110   5.625  0.2982  0.4771 -1.3881
18804TIP3   OH277902   2.488   4.691  11.746  0.1452 -0.7380  0.2014
18804TIP3    H177903   2.467   4.654  11.831 -0.5955 -0.3005  0.2062
18804TIP3    H277904   2.412   4.672  11.691  0.8110 -1.4624 -0.5177
18805TIP3   OH277905   5.719   5.449   3.674 -0.1630 -0.1313  0.5523
18805TIP3    H177906   5.639   5.400   3.687  0.2196 -0.5627  1.3403
18805TIP3    H277907   5.691   5.540   3.666 -1.0572 -0.5608 -2.6001
18806TIP3   OH277908   1.276   1.926   3.435  0.0299  0.2933 -0.0219
18806TIP3    H177909   1.314   1.851   3.390  0.6736 -0.8672  2.3265
18806TIP3    H277910   1.206   1.889   3.489  0.2410  1.4052  1.0406
18807TIP3   OH277911   5.568   6.386   3.130 -0.4653 -0.3963 -0.9724
18807TIP3    H177912   5.546   6.315   3.070 -2.4305 -0.3550 -0.3662
18807TIP3    H277913   5.490   6.396   3.185  0.2600  1.3662 -0.1945
18808TIP3   OH277914   3.248   4.258  14.394  0.6881  0.1416  0.2680
18808TIP3    H177915   3.291   4.183  14.354  0.9562 -0.0143  0.8375
18808TIP3    H277916   3.155   4.243  14.377  0.7969  0.1102 -0.3383
18809TIP3   OH277917   4.234   3.635  15.198 -0.3184 -0.5738 -0.2871
18809TIP3    H177918   4.158   3.691  15.217  0.4253  1.4653 -2.8494
18809TIP3    H277919   4.298   3.657  15.266 -0.7010  0.3770 -0.2217
18810TIP3   OH277920   4.844   5.604  15.382  0.0242  0.7392 -0.2287
18810TIP3    H177921   4.916   5.651  15.339  0.9784  2.1955  2.6548
18810TIP3    H277922   4.877   5.587  15.470 -2.7943  0.5283  0.8760
18811TIP3   OH277923   5.316   1.824   5.599 -0.0018 -0.0405 -0.1918
18811TIP3    H177924   5.272   1.808   5.683 -1.4099 -0.6309 -1.0071
18811TIP3    H277925   5.401   1.861   5.623  0.0563 -1.1719  1.5288
18812TIP3   OH277926   6.505   1.134  14.251 -0.9122 -0.5039  0.1418
18812TIP3    H177927   6.540   1.150  14.164  1.6682  0.6932  1.2778
18812TIP3    H277928   6.581   1.104  14.302 -2.3496 -1.2400  1.9801
18813TIP3   OH277929   0.051   0.458   2.475  0.2627 -0.2690 -0.0330
18813TIP3    H177930   0.051   0.398   2.550 -1.7085 -1.3949 -0.8413
18813TIP3    H277931   0.005   0.536   2.507 -1.3768 -1.0982 -0.2671
18814TIP3   OH277932   5.687   1.835  14.751 -0.2901  0.3261 -0.0337
18814TIP3    H177933   5.666   1.851  14.843 -1.4875 -1.0534 -0.0373
18814TIP3    H277934   5.611   1.867  14.702  0.5045  1.4207 -0.6134
18815TIP3   OH277935   2.267   3.156   3.811  0.1638  0.0726  0.0912
18815TIP3    H177936   2.258   3.065   3.785 -0.6010  0.5644 -1.4414
18815TIP3    H277937   2.336   3.155   3.878  0.4324 -1.5676 -0.1812
18816TIP3   OH277938   3.650   4.640   1.761 -0.2937  0.4126 -0.0724
18816TIP3    H177939   3.701   4.578   1.709  0.4144  0.6011  0.3826
18816TIP3    H277940   3.696   4.723   1.752 -0.5710  0.6096  0.2762
18817TIP3   OH277941   5.503   2.348  12.985 -0.1624 -0.4566  0.6272
18817TIP3    H177942   5.585   2.339  12.936 -0.3508 -0.3553  0.2956
18817TIP3    H277943   5.481   2.258  13.011 -0.6996 -0.6708 -0.5138
18818TIP3   OH277944   0.142   0.173  16.282  0.4545 -0.0976 -0.2558
18818TIP3    H177945   0.100   0.252  16.316  0.3549  0.7812 -2.2590
18818TIP3    H277946   0.232   0.201  16.263  0.0405 -0.0156 -2.2983
18819TIP3   OH277947   4.117   0.440   1.032  0.1756 -0.4777  0.4333
18819TIP3    H177948   4.120   0.369   0.967  0.4625 -1.2937  1.3201
18819TIP3    H277949   4.024   0.447   1.054 -0.5112  2.2197 -2.6102
18820TIP3   OH277950   1.110   4.005  14.659 -0.1654  0.1776 -0.0111
18820TIP3    H177951   1.053   3.950  14.712  0.3710 -0.3440  0.0412
18820TIP3    H277952   1.159   3.943  14.604 -1.4720  0.7494 -1.9227
18821TIP3   OH277953   3.948   3.006  16.995  0.1808 -0.0632 -0.2665
18821TIP3    H177954   3.947   3.023  17.089  1.8954 -0.1552 -0.2081
18821TIP3    H277955   3.948   3.093  16.955 -1.6782 -0.0092 -0.2532
18822TIP3   OH277956   3.648   3.593   4.336  0.3921 -0.4528 -0.3877
18822TIP3    H177957   3.612   3.574   4.422  0.7537  2.2612  0.4801
18822TIP3    H277958   3.593   3.545   4.275 -1.7609 -0.1360  1.1819
18823TIP3   OH277959   2.449   2.671  14.244  0.3300  0.5625 -0.0888
18823TIP3    H177960   2.379   2.728  14.275  0.0978 -0.3096  1.0576
18823TIP3    H277961   2.477   2.623  14.321  1.2718 -0.0804 -0.8076
18824TIP3   OH277962   0.832   5.860   5.872  0.4592  0.5379  0.1658
18824TIP3    H177963   0.913   5.820   5.903  0.9694  1.0857 -0.4413
18824TIP3    H277964   0.775   5.860   5.949  1.0675  0.2573  0.6295
18825TIP3   OH277965   6.398   3.717  13.171  0.6241 -0.2818 -0.2458
18825TIP3    H177966   6.486   3.725  13.205  0.1987 -2.3109  1.5551
18825TIP3    H277967   6.387   3.623  13.154 -0.6937  0.1158 -1.8920
18826TIP3   OH277968   0.830   2.214  15.023 -0.6037 -0.7125 -0.0718
18826TIP3    H177969   0.785   2.230  15.106  0.9715 -0.3511  0.7553
18826TIP3    H277970   0.813   2.122  15.003 -2.0466 -0.4815 -0.0337
18827TIP3   OH277971   0.535   0.286  12.134 -0.3336 -0.0644 -0.9688
18827TIP3    H177972   0.442   0.294  12.156 -0.3728 -1.5265 -0.4309
18827TIP3    H277973   0.536   0.269  12.040 -0.5580  0.6663 -1.1075
18828TIP3   OH277974   3.783   6.222  16.430  0.0124  0.0843  0.0909
18828TIP3    H177975   3.825   6.308  16.423 -0.3424  0.2793  0.3284
18828TIP3    H277976   3.754   6.217  16.521 -0.4353 -0.0660 -0.0610
18829TIP3   OH277977   4.592   0.340   0.177 -0.4340  0.0934  0.0191
18829TIP3    H177978   4.524   0.344   0.244 -1.0805 -0.4040 -0.6042
18829TIP3    H277979   4.556   0.283   0.109  1.2018 -1.4729  0.3704
18830TIP3   OH277980   0.794   5.930   4.774 -0.0069  0.0137  0.0759
18830TIP3    H177981   0.762   5.840   4.776 -0.9355  0.3448  1.0613
18830TIP3    H277982   0.802   5.950   4.681 -2.7752 -0.0937 -0.2842
18831TIP3   OH277983   0.101   2.792   0.484 -0.5919 -0.3366  0.1024
18831TIP3    H177984   0.139   2.781   0.397  0.0827  1.4503  0.1229
18831TIP3    H277985   0.100   2.704   0.522  2.8277 -0.6560 -0.2210
18832TIP3   OH277986   1.742   6.322  13.799  0.2441 -0.0082  0.7955
18832TIP3    H177987   1.808   6.276  13.747 -0.7848 -1.1841  0.4795
18832TIP3    H277988   1.753   6.287  13.887  0.2748  0.0611  0.8194
18833TIP3   OH277989   1.982   0.642   2.507  0.3782  0.5255  0.1738
18833TIP3    H177990   1.952   0.596   2.585 -0.5620 -0.4964 -0.7601
18833TIP3    H277991   2.060   0.594   2.479  0.3933  0.5585  0.1583
18834TIP3   OH277992   4.176   0.132  16.351 -0.5922 -0.8309 -0.3725
18834TIP3    H177993   4.210   0.179  16.275  1.9786 -2.0168 -0.0452
18834TIP3    H277994   4.146   0.048  16.316 -2.6522 -0.0863 -0.5355
18835TIP3   OH277995   5.021   2.145  11.575  0.2919 -0.1370 -0.2080
18835TIP3    H177996   4.977   2.070  11.616  0.7651 -0.2376  0.1223
18835TIP3    H277997   4.949   2.205  11.552 -0.0168 -0.2542  0.4220
18836TIP3   OH277998   1.347   1.464   0.803  0.3970 -0.8744  0.0613
18836TIP3    H177999   1.386   1.379   0.785  1.6897 -0.2619 -0.1915
18836TIP3    H278000   1.413   1.509   0.857 -0.2327 -0.0181  0.1408
18837TIP3   OH278001   2.097   4.875  17.045 -0.1793  0.5648 -0.3979
18837TIP3    H178002   2.066   4.948  16.992  0.5999  0.5346 -0.9099
18837TIP3    H278003   2.026   4.858  17.107 -0.2721  1.9003 -0.1167
18838TIP3   OH278004   5.743   5.207   0.380  0.3512 -0.6810 -0.1079
18838TIP3    H178005   5.781   5.282   0.425 -2.9417  1.6553 -0.8538
18838TIP3    H278006   5.690   5.163   0.447 -0.0500 -0.5639 -0.3428
18839TIP3   OH278007   5.187   5.689   0.467  0.4757 -0.1316 -0.0564
18839TIP3    H178008   5.091   5.697   0.462  0.2891 -1.4244  1.0799
18839TIP3    H278009   5.206   5.688   0.561  1.9299  3.1220 -0.1858
18840TIP3   OH278010   1.650   3.139   0.742  0.2917  0.1833 -0.3891
18840TIP3    H178011   1.647   3.080   0.668 -1.4085 -0.7729  0.3911
18840TIP3    H278012   1.679   3.085   0.815 -0.6903  0.4226  0.2037
18841TIP3   OH278013   4.589   3.299   0.748 -0.0503 -0.1578  0.3236
18841TIP3    H178014   4.544   3.370   0.702  0.1228  1.1486  2.0901
18841TIP3    H278015   4.603   3.233   0.680 -1.1885  1.0146 -1.1372
18842TIP3   OH278016   0.218   4.058   3.810 -0.8644  0.3370 -0.5461
18842TIP3    H178017   0.193   4.147   3.835 -1.5216  0.8830 -2.9673
18842TIP3    H278018   0.143   4.023   3.762  0.2760 -0.6628 -1.6789
18843TIP3   OH278019   0.786   3.363  13.980 -0.3118  0.4192  0.5282
18843TIP3    H178020   0.859   3.319  13.935 -0.5632 -0.5683  1.0597
18843TIP3    H278021   0.775   3.446  13.932  0.1262 -0.1190 -0.5473
18844TIP3   OH278022   6.363   1.282   4.385  0.4273 -0.2812 -0.1460
18844TIP3    H178023   6.286   1.269   4.331  0.0303  0.3941  0.2496
18844TIP3    H278024   6.372   1.200   4.435  0.0615 -0.4168 -0.3065
18845TIP3   OH278025   0.406   5.173  12.947  0.1572  0.1892  0.0393
18845TIP3    H178026   0.462   5.250  12.952  1.0904 -0.3028 -1.8930
18845TIP3    H278027   0.390   5.149  13.038 -1.8596  3.7905  0.8166
18846TIP3   OH278028   3.974   0.578   3.983  0.2895  0.5140 -0.2565
18846TIP3    H178029   3.991   0.535   3.899  0.2306  0.8131 -0.4257
18846TIP3    H278030   4.058   0.619   4.006  0.0549  1.2370 -0.6479
18847TIP3   OH278031   1.078   3.448   0.828  0.0420  0.5480  0.5934
18847TIP3    H178032   1.062   3.537   0.796 -1.1132  0.1520  0.0071
18847TIP3    H278033   1.163   3.424   0.791  1.0982  1.9458  2.0033
18848TIP3   OH278034   2.418   4.829  15.913 -0.6787 -0.0449  0.1354
18848TIP3    H178035   2.496   4.861  15.868  0.4562 -1.0096  1.3430
18848TIP3    H278036   2.390   4.903  15.967 -0.4989  0.2563 -0.1820
18849TIP3   OH278037   4.302   1.587   4.569 -0.1607  0.2217 -0.0440
18849TIP3    H178038   4.237   1.648   4.533  0.4027  1.0151  0.2498
18849TIP3    H278039   4.378   1.597   4.512 -0.5937 -1.4180 -0.9773
18850TIP3   OH278040   6.508   3.320  12.636  0.8677  0.2379  0.2375
18850TIP3    H178041   6.558   3.401  12.634  0.6203  0.3805 -0.3390
18850TIP3    H278042   6.560   3.258  12.584 -0.4303  0.9227 -2.0353
18851TIP3   OH278043   2.933   6.455  17.124 -0.3363 -0.3358  0.5574
18851TIP3    H178044   2.979   6.402  17.059 -1.2380  0.3896 -0.7189
18851TIP3    H278045   2.989   6.452  17.202  1.1347 -0.6482 -0.4742
18852TIP3   OH278046   3.541   4.227   5.066 -0.0366  0.0122 -0.5178
18852TIP3    H178047   3.531   4.261   5.155  0.3408  1.2106 -0.9206
18852TIP3    H278048   3.572   4.138   5.078  0.5456  0.3460  0.5528
18853TIP3   OH278049   2.236   4.833   5.140  0.3298 -0.3019  0.8486
18853TIP3    H178050   2.216   4.864   5.229 -0.5599  0.9175  0.2603
18853TIP3    H278051   2.160   4.861   5.088  1.8565  1.0772 -0.7496
18854TIP3   OH278052   4.235   2.495  13.001 -0.1993 -0.8861 -0.3270
18854TIP3    H178053   4.267   2.582  13.025  0.7086 -0.9008 -1.4190
18854TIP3    H278054   4.243   2.444  13.082  1.7414 -0.6399 -0.3151
18855TIP3   OH278055   3.762   4.866   5.774  0.3863 -0.1257  0.3681
18855TIP3    H178056   3.723   4.782   5.750 -3.0105  2.3111 -4.2171
18855TIP3    H278057   3.695   4.910   5.827  1.9518  0.0152  2.3786
18856TIP3   OH278058   0.091   0.442  14.139 -0.9097 -0.2303 -0.5757
18856TIP3    H178059   0.182   0.450  14.109 -0.9853 -0.1473 -0.7790
18856TIP3    H278060   0.041   0.501  14.084 -0.7579  1.5240  1.0714
18857TIP3   OH278061   1.992   5.318  11.266 -0.0047  0.0858  0.4241
18857TIP3    H178062   1.945   5.400  11.280  0.1768 -0.1023  2.4461
18857TIP3    H278063   2.056   5.338  11.198 -1.3732  1.0045 -0.6351
18858TIP3   OH278064   3.584   4.771  14.108  0.6745  0.0911  0.0925
18858TIP3    H178065   3.606   4.706  14.175  1.9316  0.1051 -0.2778
18858TIP3    H278066   3.591   4.722  14.025  0.1821  0.3374 -0.0949
18859TIP3   OH278067   4.672   5.896  11.374 -0.2527 -0.0829 -0.2146
18859TIP3    H178068   4.654   5.841  11.451 -2.3919  1.9063  0.8054
18859TIP3    H278069   4.681   5.833  11.302 -2.3847 -1.8206  0.9242
18860TIP3   OH278070   1.543   4.419  10.360  0.0034 -0.2348  0.3901
18860TIP3    H178071   1.623   4.454  10.321 -0.4661 -0.9584 -1.3328
18860TIP3    H278072   1.558   4.325  10.367 -0.1477 -0.1899  1.4644
18861TIP3   OH278073   3.862   4.548  13.938 -0.0832  0.2478 -0.4653
18861TIP3    H178074   3.782   4.599  13.940  0.4124  1.1754 -2.2029
18861TIP3    H278075   3.842   4.475  13.879  0.8330  1.4865 -2.4282
18862TIP3   OH278076   3.149   4.367   4.097  0.6315  0.4919  0.3661
18862TIP3    H178077   3.141   4.272   4.104 -0.1427  0.6691  2.7657
18862TIP3    H278078   3.240   4.381   4.070  0.2735 -0.9283 -1.7730
18863TIP3   OH278079   5.886   3.624   5.327  0.0716  0.1605  0.4538
18863TIP3    H178080   5.857   3.535   5.343  1.8595 -0.8285 -1.2890
18863TIP3    H278081   5.957   3.638   5.390  0.5152 -0.0711  0.0133
18864TIP3   OH278082   5.187   1.375  11.087  0.4383  0.6464 -0.5911
18864TIP3    H178083   5.157   1.302  11.034  0.7098  0.3603 -0.3553
18864TIP3    H278084   5.116   1.439  11.082  1.1959  1.3772 -2.7267
18865TIP3   OH278085   1.445   4.800  14.140  0.5463 -0.1716 -0.5134
18865TIP3    H178086   1.456   4.733  14.073  0.3067  0.9005 -1.6713
18865TIP3    H278087   1.447   4.883  14.092  0.5456  0.6458  0.8319
18866TIP3   OH278088   2.674   4.655   5.034 -0.5211  0.3805  0.1540
18866TIP3    H178089   2.586   4.670   4.999 -0.6482  0.9994  0.7067
18866TIP3    H278090   2.674   4.701   5.118  0.2864  0.2644  0.2243
18867TIP3   OH278091   3.691   0.321  12.667  0.0792 -0.4907  0.1051
18867TIP3    H178092   3.779   0.333  12.632  0.1913  2.1022  1.0850
18867TIP3    H278093   3.704   0.281  12.753  0.4551  1.1204  0.8352
18868TIP3   OH278094   5.718   0.085  17.150 -0.0082  0.7753 -0.6691
18868TIP3    H178095   5.786   0.073  17.216 -0.2846 -0.1754 -0.5403
18868TIP3    H278096   5.766   0.104  17.069  0.3171  2.2302 -0.1510
18869TIP3   OH278097   5.307   3.815   5.782  0.4729  0.2843 -0.1661
18869TIP3    H178098   5.276   3.726   5.765  2.1044 -0.0385 -1.7323
18869TIP3    H278099   5.260   3.869   5.717 -0.0969  0.4897  0.4107
18870TIP3   OH278100   1.675   2.968  11.891  0.2474 -0.5099 -0.2441
18870TIP3    H178101   1.628   3.049  11.911  1.0284 -0.2665  0.6852
18870TIP3    H278102   1.712   2.941  11.975  3.2571  0.2723 -1.1685
18871TIP3   OH278103   6.755   5.170   0.482 -0.0830  0.0678 -0.3885
18871TIP3    H178104   6.811   5.152   0.557  0.2494  1.3623 -0.3195
18871TIP3    H278105   6.667   5.175   0.518  0.0064  0.1312 -0.1817
18872TIP3   OH278106   2.718   3.569   1.855 -0.1102  0.8326 -0.1175
18872TIP3    H178107   2.708   3.581   1.949  0.6630 -0.4721  0.1509
18872TIP3    H278108   2.786   3.503   1.846 -1.3986 -0.3813 -1.5494
18873TIP3   OH278109   4.691   6.233   2.828  0.3207  0.0916  0.6252
18873TIP3    H178110   4.784   6.240   2.848  0.7181 -2.2253 -0.0435
18873TIP3    H278111   4.677   6.139   2.815 -2.3864  0.2147  1.9439
18874TIP3   OH278112   1.897   0.232   4.560  0.1093 -0.5850  0.2063
18874TIP3    H178113   1.831   0.163   4.567  1.8915 -2.4926 -0.8163
18874TIP3    H278114   1.885   0.267   4.471  0.5216 -1.0028 -0.0169
18875TIP3   OH278115   4.408   3.771   0.890  0.7467  0.1668 -0.5358
18875TIP3    H178116   4.460   3.765   0.810  0.0825  0.1383 -0.9648
18875TIP3    H278117   4.461   3.827   0.948  2.1238 -1.3174 -0.2841
18876TIP3   OH278118   6.355   6.699  17.201  0.6122 -0.1411 -0.0374
18876TIP3    H178119   6.435   6.750  17.213  0.0135  0.9344 -0.5308
18876TIP3    H278120   6.370   6.650  17.120  0.3697  0.8906 -0.7322
18877TIP3   OH278121   6.808   5.924   2.217 -0.4984 -0.4913  0.4676
18877TIP3    H178122   6.834   5.879   2.137 -0.7594 -0.1252  0.1774
18877TIP3    H278123   6.890   5.941   2.263 -0.4498 -2.6364  1.3360
18878TIP3   OH278124   6.292   5.478   4.459  0.1184 -0.0104 -0.2225
18878TIP3    H178125   6.309   5.389   4.490  1.8440  0.0352 -0.8999
18878TIP3    H278126   6.217   5.508   4.510  1.2746 -0.8365  2.1064
18879TIP3   OH278127   4.615   6.584   5.256  0.7681 -0.7376  0.0588
18879TIP3    H178128   4.625   6.615   5.166 -0.8000  1.0006  0.4393
18879TIP3    H278129   4.522   6.563   5.264  0.7444 -0.1732  1.4712
18880TIP3   OH278130   5.767   2.995   1.280  0.2870 -0.0566 -0.1153
18880TIP3    H178131   5.839   3.056   1.265  0.0605  1.0679  2.7142
18880TIP3    H278132   5.800   2.934   1.346 -0.8550 -0.4452  0.1252
18881TIP3   OH278133   1.317   3.264  14.349  0.1364  0.1166  0.1838
18881TIP3    H178134   1.270   3.344  14.325 -0.2497 -0.1978 -0.1196
18881TIP3    H278135   1.294   3.250  14.442 -3.2905 -1.9316 -0.7608
18882TIP3   OH278136   3.156   0.238   4.210 -0.3826 -0.3600  0.4341
18882TIP3    H178137   3.246   0.208   4.220 -0.6073 -0.9121  0.8274
18882TIP3    H278138   3.107   0.160   4.183 -0.8707 -0.2188  0.9048
18883TIP3   OH278139   5.484   3.013  16.419 -0.4378 -0.4963 -0.6187
18883TIP3    H178140   5.437   3.024  16.502 -1.3156 -0.7150 -1.0750
18883TIP3    H278141   5.569   2.977  16.445 -0.4037  0.1603  0.2492
18884TIP3   OH278142   0.055   5.218   3.436 -0.9782  0.4665 -0.3172
18884TIP3    H178143   0.064   5.198   3.343  0.3119  1.2309 -0.3883
18884TIP3    H278144   0.144   5.214   3.470 -1.4019  0.4213  0.8471
18885TIP3   OH278145   0.395   5.426   3.941  0.6376 -0.5929  1.0614
18885TIP3    H178146   0.431   5.359   3.883  0.5530  0.6706 -0.5307
18885TIP3    H278147   0.320   5.461   3.894 -0.4758 -0.6677  2.7176
18886TIP3   OH278148   0.243   3.438  16.712  0.3641 -0.7595 -0.6738
18886TIP3    H178149   0.282   3.351  16.719  1.3849 -0.2530  0.1825
18886TIP3    H278150   0.185   3.445  16.787  0.1999 -0.7341 -0.8013
18887TIP3   OH278151   0.062   0.466   0.764 -0.6878  0.5592 -0.1683
18887TIP3    H178152   0.029   0.519   0.692 -0.6824  0.2286 -0.4172
18887TIP3    H278153   0.156   0.487   0.769 -0.6053  0.2929 -0.5175
18888TIP3   OH278154   3.889   1.629   2.802  0.3143  0.2844 -0.0128
18888TIP3    H178155   3.910   1.536   2.802  0.1840  0.2186 -1.7177
18888TIP3    H278156   3.908   1.659   2.891  1.6627 -1.0730  0.1892
18889TIP3   OH278157   1.054   2.082   5.534  0.4283 -0.4126  0.3799
18889TIP3    H178158   1.049   2.022   5.608 -0.6382 -1.0405 -0.1786
18889TIP3    H278159   1.147   2.084   5.511  0.7577 -0.2452  1.6909
18890TIP3   OH278160   3.677   2.907  13.178  0.1238  0.3131 -0.0615
18890TIP3    H178161   3.690   2.851  13.101 -0.3355  0.9028 -0.5744
18890TIP3    H278162   3.725   2.987  13.157 -0.3892  0.6557  0.0663
18891TIP3   OH278163   6.729   4.071   3.791  1.1139  0.6884  0.2131
18891TIP3    H178164   6.747   4.015   3.716 -0.7192  0.5832 -0.1928
18891TIP3    H278165   6.716   4.158   3.753  1.0289  0.8019  0.4981
18892TIP3   OH278166   6.375   4.626  11.860 -0.5101 -0.3517 -0.0279
18892TIP3    H178167   6.442   4.630  11.928  0.9640 -0.6182 -1.3967
18892TIP3    H278168   6.378   4.713  11.819  0.2330 -0.8853 -1.1745
18893TIP3   OH278169   5.654   6.545  15.758 -0.5174  0.1251  0.3436
18893TIP3    H178170   5.591   6.532  15.829 -1.3510 -0.6096 -0.5190
18893TIP3    H278171   5.676   6.638  15.763 -0.0027 -0.0474  2.0099
18894TIP3   OH278172   2.016   6.035   5.498 -0.1000  0.8965 -1.1842
18894TIP3    H178173   2.068   6.060   5.421  3.0860 -1.4642 -0.0482
18894TIP3    H278174   2.054   6.085   5.570  0.4131 -0.5374 -0.4052
18895TIP3   OH278175   4.623   6.631  13.662 -0.0965 -0.0535  0.0064
18895TIP3    H178176   4.544   6.577  13.665 -1.6445  1.7516 -2.9427
18895TIP3    H278177   4.601   6.708  13.714  0.0588  0.0647 -0.1043
18896TIP3   OH278178   6.662   6.043  15.623 -0.3488 -0.6927  0.4097
18896TIP3    H178179   6.611   6.124  15.620  0.2288 -0.3412 -0.0245
18896TIP3    H278180   6.692   6.038  15.714  1.6771  0.8921 -0.1084
18897TIP3   OH278181   2.498   3.634   5.294 -0.4232  0.1584  0.0564
18897TIP3    H178182   2.489   3.541   5.275 -0.5056  0.2076 -0.1433
18897TIP3    H278183   2.409   3.669   5.288 -0.3658  0.2864 -0.0539
18898TIP3   OH278184   3.977   2.745   4.748 -0.4501 -0.3555  0.1245
18898TIP3    H178185   4.046   2.805   4.721 -0.2797 -1.4425 -2.0306
18898TIP3    H278186   3.928   2.794   4.814  1.1469  1.1921  0.2335
18899TIP3   OH278187   0.293   0.255   1.332 -0.0531  0.2421  0.5363
18899TIP3    H178188   0.239   0.334   1.339 -0.5142 -0.1217  1.2569
18899TIP3    H278189   0.235   0.184   1.362  0.4768 -0.3172  0.2649
18900TIP3   OH278190   2.386   0.945  11.326  0.0928  0.4038  0.2894
18900TIP3    H178191   2.326   0.878  11.294 -0.4831  0.7723  0.5685
18900TIP3    H278192   2.416   0.991  11.247 -0.0588  0.2708  0.1555
18901TIP3   OH278193   4.062   3.988  12.825  0.5862 -0.2314 -0.2822
18901TIP3    H178194   4.035   3.897  12.840  0.3072 -0.0070  0.6353
18901TIP3    H278195   4.157   3.983  12.813  0.3877 -0.8364 -1.9452
18902TIP3   OH278196   3.722   5.178  11.148 -0.3725  0.2489  0.1993
18902TIP3    H178197   3.726   5.172  11.052 -0.1382  1.5509  0.1164
18902TIP3    H278198   3.764   5.262  11.169  0.7045 -0.5736  1.5319
18903TIP3   OH278199   2.069   1.810   0.532  0.2136  0.3329  0.3064
18903TIP3    H178200   2.123   1.783   0.458  0.8203  0.2688  0.7684
18903TIP3    H278201   2.036   1.728   0.569 -0.7593  0.3995 -0.3786
18904TIP3   OH278202   1.522   1.788  11.062  0.2105 -0.0345 -0.3883
18904TIP3    H178203   1.577   1.806  11.139 -1.0404  2.9252 -0.0553
18904TIP3    H278204   1.478   1.705  11.084  3.3063 -1.7309 -0.0520
18905TIP3   OH278205   4.294   5.005  10.988  0.7934  0.6752 -0.0923
18905TIP3    H178206   4.323   5.096  10.989 -0.6057  1.1618 -0.9502
18905TIP3    H278207   4.348   4.963  10.922  0.3972  1.2742 -0.8168
18906TIP3   OH278208   6.292   2.876   0.364  0.5233 -0.1185 -0.1134
18906TIP3    H178209   6.359   2.941   0.341  0.1439  0.1300 -0.5397
18906TIP3    H278210   6.282   2.824   0.285  0.1371 -0.0852 -0.0889
18907TIP3   OH278211   4.481   0.746  14.494  0.0623 -0.1949  0.1237
18907TIP3    H178212   4.500   0.839  14.483  0.5908  0.0129  2.2084
18907TIP3    H278213   4.559   0.701  14.460  2.4639  0.4587  4.0416
18908TIP3   OH278214   0.067   1.167   0.491  0.2105  0.4840  0.0562
18908TIP3    H178215   0.041   1.082   0.527  0.1196  1.0824  1.4851
18908TIP3    H278216   0.050   1.160   0.398  2.2423 -1.8124 -0.2406
18909TIP3   OH278217   3.559   6.698   3.708 -0.5071 -0.2321 -0.5197
18909TIP3    H178218   3.499   6.769   3.687  0.2984  0.3277 -0.9654
18909TIP3    H278219   3.616   6.690   3.631  0.2001 -0.5348  0.0210
18910TIP3   OH278220   3.197   4.468  13.591  0.1499  0.1259  0.3401
18910TIP3    H178221   3.167   4.456  13.682 -3.2713  0.0407 -0.6613
18910TIP3    H278222   3.264   4.537  13.598 -0.6278  0.7611  2.8419
18911TIP3   OH278223   3.961   2.818   5.741  0.6660  0.0124 -0.1358
18911TIP3    H178224   3.899   2.881   5.777 -1.8663 -1.8090 -1.0096
18911TIP3    H278225   3.998   2.861   5.665 -0.3211  0.8121 -0.1880
18912TIP3   OH278226   2.167   2.377  15.542 -0.4124 -0.2585  0.0814
18912TIP3    H178227   2.102   2.332  15.488 -0.2518  0.4181 -0.6864
18912TIP3    H278228   2.206   2.308  15.595 -1.0873 -0.8164 -0.1348
18913TIP3   OH278229   3.457   4.432  14.776 -0.3215 -0.5787 -0.0578
18913TIP3    H178230   3.532   4.378  14.798 -1.0958 -1.9708 -0.6885
18913TIP3    H278231   3.411   4.445  14.859 -0.9823 -2.2803 -0.1152
18914TIP3   OH278232   4.255   6.328  16.138  0.0122 -0.0673 -0.5292
18914TIP3    H178233   4.334   6.286  16.172  0.3414  1.4189  0.6290
18914TIP3    H278234   4.283   6.417  16.116 -1.3440  0.4960 -0.0488
18915TIP3   OH278235   6.336   3.254  14.317 -0.1412 -0.7400  0.3043
18915TIP3    H178236   6.268   3.230  14.380  0.0347  2.4112  1.8779
18915TIP3    H278237   6.418   3.239  14.365  0.0032  1.4459  0.8274
18916TIP3   OH278238   4.781   6.091   0.075 -0.0885 -0.2282  0.3358
18916TIP3    H178239   4.874   6.071   0.087  0.1063  0.5585  0.2091
18916TIP3    H278240   4.781   6.173   0.025 -0.8559 -1.0586 -1.0999
18917TIP3   OH278241   0.817   3.299  11.608 -0.3591 -0.3820 -0.9461
18917TIP3    H178242   0.838   3.270  11.519  0.6282  3.8898 -2.3609
18917TIP3    H278243   0.902   3.323  11.646 -0.8376 -1.5576  1.0027
18918TIP3   OH278244   1.974   1.411  17.163  0.4154 -0.5059 -0.1018
18918TIP3    H178245   2.029   1.379  17.091  0.2415  0.3224 -0.6128
18918TIP3    H278246   2.026   1.394  17.242  1.1479 -0.2896 -0.5239
18919TIP3   OH278247   3.959   5.855   4.480  0.6541 -0.0319  0.0339
18919TIP3    H178248   3.958   5.801   4.401  1.9226 -1.2462  0.7984
18919TIP3    H278249   3.975   5.793   4.551 -0.4949  1.0293  1.2570
18920TIP3   OH278250   3.379   2.332  16.457 -0.0847  0.3969 -0.2306
18920TIP3    H178251   3.360   2.405  16.515 -4.4756  0.2165 -1.0827
18920TIP3    H278252   3.347   2.254  16.503  1.0042 -0.4495 -0.8552
18921TIP3   OH278253   2.724   0.060   4.642 -0.4611  0.0934 -0.0102
18921TIP3    H178254   2.760   0.144   4.671 -0.0807 -0.1874  0.3393
18921TIP3    H278255   2.633   0.080   4.621 -0.8443  0.2673  1.6414
18922TIP3   OH278256   3.692   6.742  14.629 -0.0664 -0.2145  0.1931
18922TIP3    H178257   3.620   6.712  14.684 -0.6595  0.3036 -0.2938
18922TIP3    H278258   3.695   6.837  14.642  1.1492 -0.3282  0.9482
18923TIP3   OH278259   2.419   3.909  16.777  0.0957  0.3291 -0.0820
18923TIP3    H178260   2.417   3.855  16.855  0.3902  0.6640  0.1671
18923TIP3    H278261   2.471   3.986  16.802  2.0554 -0.5353 -1.2254
18924TIP3   OH278262   2.606   0.613   4.239  0.6630 -0.4659  0.2107
18924TIP3    H178263   2.575   0.523   4.249  0.8404 -0.3210  2.8954
18924TIP3    H278264   2.700   0.608   4.257  0.7932  0.1637 -0.2657
18925TIP3   OH278265   4.117   0.456  16.719  0.1396 -0.0526 -0.3134
18925TIP3    H178266   4.121   0.424  16.629  0.2628 -0.8820 -0.0221
18925TIP3    H278267   4.169   0.537  16.718  1.2204 -0.7269 -0.7135
18926TIP3   OH278268   0.930   1.306   1.088 -0.4203  0.5666  0.3850
18926TIP3    H178269   1.020   1.308   1.054 -0.5672 -0.9853 -0.2057
18926TIP3    H278270   0.878   1.352   1.022 -0.5050 -1.3038 -0.9350
18927TIP3   OH278271   0.340   2.959  14.311 -0.0232 -0.1277 -0.3866
18927TIP3    H178272   0.304   2.965  14.222  0.8112  1.0702 -0.6749
18927TIP3    H278273   0.291   3.025  14.360  1.9969  1.8714 -0.9033
18928TIP3   OH278274   1.492   6.037   2.906 -0.2236  0.1354 -0.0104
18928TIP3    H178275   1.484   5.979   2.982 -0.5118  1.3447  0.9255
18928TIP3    H278276   1.436   5.998   2.839 -1.9718  0.3359  1.2620
18929TIP3   OH278277   6.139   1.875   2.450 -0.1991 -0.0896 -0.5687
18929TIP3    H178278   6.075   1.869   2.380 -0.4680 -1.0733 -0.2598
18929TIP3    H278279   6.218   1.910   2.408 -0.2673 -0.9181 -1.4267
18930TIP3   OH278280   0.185   0.781   0.854 -0.4367  0.3514 -0.1977
18930TIP3    H178281   0.269   0.763   0.812  1.3075  1.2146  2.6480
18930TIP3    H278282   0.169   0.874   0.840  0.4189  0.7656  1.3495
18931TIP3   OH278283   4.780   0.709   5.741 -0.6256 -0.0340  0.1665
18931TIP3    H178284   4.796   0.804   5.742 -2.4942  0.3443 -1.0593
18931TIP3    H278285   4.867   0.671   5.730  0.3157  1.4460  1.7204
18932TIP3   OH278286   2.315   4.639   4.803  0.3582  0.1060  0.2533
18932TIP3    H178287   2.228   4.680   4.799 -0.1209 -0.8926  0.2733
18932TIP3    H278288   2.315   4.590   4.885 -0.6999 -3.4318 -1.6713
18933TIP3   OH278289   1.912   5.697   3.277  0.4162 -0.0181 -0.1540
18933TIP3    H178290   1.848   5.655   3.335 -1.2802  0.2270 -1.7470
18933TIP3    H278291   1.863   5.768   3.235  1.1143 -1.0425 -2.8856
18934TIP3   OH278292   5.191   6.588  15.170 -0.4422  0.1794  0.7527
18934TIP3    H178293   5.127   6.658  15.177 -0.7407 -0.2336  3.5804
18934TIP3    H278294   5.139   6.508  15.164 -0.2153 -0.0441  1.5513
18935TIP3   OH278295   6.448   1.305  16.960 -0.5079 -0.2476 -0.6865
18935TIP3    H178296   6.482   1.223  16.925 -0.8539 -0.9227  0.4926
18935TIP3    H278297   6.500   1.320  17.039  0.1171  1.1274 -1.3327
18936TIP3   OH278298   6.241   3.578   6.785  0.4078  0.4169  0.0571
18936TIP3    H178299   6.239   3.664   6.742 -0.2968 -0.0227 -0.8136
18936TIP3    H278300   6.330   3.571   6.819  0.8931  0.9188 -1.0593
18937TIP3   OH278301   3.001   3.338  14.844 -0.4399  0.3019 -0.0636
18937TIP3    H178302   3.020   3.403  14.776 -1.3447  1.9817  1.2056
18937TIP3    H278303   2.922   3.372  14.888 -0.5176 -1.2942  1.1197
18938TIP3   OH278304   5.780   2.236  16.135 -0.1257  0.3814 -0.0395
18938TIP3    H178305   5.741   2.234  16.223 -0.1225  1.9709  0.0233
18938TIP3    H278306   5.781   2.329  16.111  0.8404  0.0733 -1.2998
18939TIP3   OH278307   4.484   2.190  12.936 -0.0950 -0.0789  0.1917
18939TIP3    H178308   4.516   2.229  12.855  0.9322 -1.6631 -0.2117
18939TIP3    H278309   4.543   2.223  13.003  0.1197 -0.1050  0.0176
18940TIP3   OH278310   2.768   0.684  12.433  0.0541 -0.1274 -0.2204
18940TIP3    H178311   2.751   0.627  12.359 -0.2398 -1.0314  0.5192
18940TIP3    H278312   2.814   0.628  12.496 -1.3598  0.0759  1.0341
18941TIP3   OH278313   2.621   2.107  14.698 -0.2298 -0.2330  0.0281
18941TIP3    H178314   2.561   2.051  14.747 -0.9050  1.0317  0.7023
18941TIP3    H278315   2.611   2.079  14.607 -1.9036 -0.0336  0.1208
18942TIP3   OH278316   0.068   2.278   2.114 -0.1141  0.0579 -0.3493
18942TIP3    H178317   0.037   2.261   2.203 -1.1784  1.9291 -0.3109
18942TIP3    H278318   0.111   2.197   2.087 -0.2542 -0.7313  1.6622
18943TIP3   OH278319   3.917   5.303   2.133  0.0380  0.3437 -0.8216
18943TIP3    H178320   3.825   5.277   2.126 -0.1842  1.2815 -1.5675
18943TIP3    H278321   3.944   5.270   2.219 -0.7602 -0.6321 -0.9212
18944TIP3   OH278322   5.288   2.976   5.354  0.5273  0.5631 -0.0806
18944TIP3    H178323   5.316   3.065   5.335  0.4458  0.2301 -1.9110
18944TIP3    H278324   5.312   2.963   5.446 -0.2474  2.7377  0.4917
18945TIP3   OH278325   1.168   6.048  14.998 -0.3252  0.2303 -0.2464
18945TIP3    H178326   1.156   5.978  15.062  1.5968  1.7950  2.0087
18945TIP3    H278327   1.084   6.095  14.999 -0.8788 -0.7403 -0.1131
18946TIP3   OH278328   5.217   3.781   3.800 -0.3010 -0.1730 -0.7923
18946TIP3    H178329   5.309   3.792   3.773 -0.3945 -1.0621 -1.4918
18946TIP3    H278330   5.182   3.870   3.798  0.2663  0.0462 -1.5531
18947TIP3   OH278331   3.828   4.120   6.580  0.4215 -0.0573  0.7464
18947TIP3    H178332   3.865   4.041   6.620  2.7660  0.5576 -0.0246
18947TIP3    H278333   3.829   4.185   6.650  0.8674 -0.0450  0.7348
18948TIP3   OH278334   2.459   5.791   0.118 -0.5829 -0.0352 -0.1353
18948TIP3    H178335   2.397   5.827   0.182 -0.1602 -1.8840  1.4113
18948TIP3    H278336   2.491   5.868   0.070 -0.0068  1.6610  2.7102
18949TIP3   OH278337   2.527   4.347  12.382  0.0256 -0.6991  0.3056
18949TIP3    H178338   2.512   4.265  12.428 -2.5441 -1.5998 -1.8939
18949TIP3    H278339   2.612   4.335  12.338 -0.3186 -2.2220  0.0108
18950TIP3   OH278340   5.379   0.177   3.992 -0.4090  0.4793 -0.4472
18950TIP3    H178341   5.313   0.130   3.941  0.9767 -1.0449 -0.9200
18950TIP3    H278342   5.361   0.270   3.974 -1.9686  0.0825 -1.0938
18951TIP3   OH278343   6.444   2.372   3.355  0.0414  0.5529 -0.0506
18951TIP3    H178344   6.407   2.362   3.267 -1.4063  1.9943  0.3264
18951TIP3    H278345   6.367   2.376   3.412  0.9610 -0.2836  1.2776
18952TIP3   OH278346   3.458   3.458  12.468  0.1492 -0.4243  0.0968
18952TIP3    H178347   3.399   3.438  12.395 -0.9971 -2.7038  1.5235
18952TIP3    H278348   3.524   3.388  12.465 -0.6522 -1.3192  1.9323
18953TIP3   OH278349   0.181   4.525  11.566 -0.3159 -0.0599  0.3150
18953TIP3    H178350   0.234   4.579  11.508  0.4167  0.1920  1.1991
18953TIP3    H278351   0.110   4.493  11.510  0.4675  0.0164 -0.7689
18954TIP3   OH278352   2.055   1.761   3.917 -0.1722  0.3791  0.8520
18954TIP3    H178353   2.092   1.839   3.958 -2.1901  0.7004  2.1914
18954TIP3    H278354   2.130   1.704   3.902  0.9448  1.1052  3.1587
18955TIP3   OH278355   6.037   6.759   5.532  0.2459  0.3241 -0.1968
18955TIP3    H178356   5.952   6.715   5.524  0.2055 -0.4036  2.7731
18955TIP3    H278357   6.057   6.790   5.444 -1.9355 -1.6081 -1.4973
18956TIP3   OH278358   2.253   6.559   0.481 -0.9179 -0.1055  0.0609
18956TIP3    H178359   2.265   6.651   0.506 -0.1409  0.0669 -0.9293
18956TIP3    H278360   2.256   6.511   0.564 -0.8973  0.7170  0.5417
18957TIP3   OH278361   3.164   3.981  12.468 -0.0831 -0.0363 -0.4135
18957TIP3    H178362   3.243   3.931  12.446  0.5894  0.5624  0.5399
18957TIP3    H278363   3.094   3.915  12.471  0.1035 -0.4003 -2.4981
18958TIP3   OH278364   3.154   1.649   2.598  0.4277 -0.4508 -0.7212
18958TIP3    H178365   3.160   1.711   2.671 -0.7405 -1.8061  0.6066
18958TIP3    H278366   3.238   1.657   2.552  1.3547  0.1968  0.9959
18959TIP3   OH278367   5.349   0.743  12.069  0.5447 -0.6210 -0.2565
18959TIP3    H178368   5.315   0.701  11.989  0.5488  0.3142 -0.7604
18959TIP3    H278369   5.406   0.677  12.107  0.4076 -1.1526 -0.9393
18960TIP3   OH278370   6.385   4.962   5.803  0.3717  0.1263  0.3019
18960TIP3    H178371   6.460   4.980   5.746  0.5757  0.2496  0.6058
18960TIP3    H278372   6.329   5.039   5.794  0.7854  0.4987  0.8739
18961TIP3   OH278373   2.264   6.140  13.645  0.6093 -0.2251 -0.0513
18961TIP3    H178374   2.261   6.047  13.669 -1.9565  0.1897  1.7002
18961TIP3    H278375   2.216   6.146  13.563  1.1383 -0.4899 -0.3807
18962TIP3   OH278376   1.421   0.106   2.271  0.1192  0.4905  0.4979
18962TIP3    H178377   1.349   0.168   2.284 -0.4636 -0.5219  2.5275
18962TIP3    H278378   1.393   0.027   2.318  2.3991 -0.0458  1.0532
18963TIP3   OH278379   6.637   4.293   2.506 -0.0370 -0.2855 -0.0102
18963TIP3    H178380   6.588   4.259   2.581  0.0481 -0.2684  0.0533
18963TIP3    H278381   6.637   4.388   2.519  0.8780 -0.3398  0.5371
18964TIP3   OH278382   0.117   4.959   6.592 -0.7557 -0.3113  0.0907
18964TIP3    H178383   0.071   5.024   6.645  0.5047  0.9303 -0.2822
18964TIP3    H278384   0.186   4.925   6.649 -0.5617 -0.3305 -0.1530
18965TIP3   OH278385   1.050   1.756   3.383 -0.0638 -0.2376 -0.2447
18965TIP3    H178386   0.998   1.688   3.426 -1.6740  1.0504 -0.0543
18965TIP3    H278387   1.047   1.733   3.290 -2.9667  0.9962 -0.5488
18966TIP3   OH278388   3.101   0.353   4.547 -0.0933 -0.9719 -0.2571
18966TIP3    H178389   3.110   0.448   4.535 -1.3738 -0.5751  1.5098
18966TIP3    H278390   3.082   0.319   4.460  0.3053  0.4056 -0.9028
18967TIP3   OH278391   3.776   5.208   4.349 -0.4984  0.1277  0.0285
18967TIP3    H178392   3.682   5.221   4.347 -0.0901  4.0205 -0.5710
18967TIP3    H278393   3.807   5.262   4.422  1.3304 -0.7291 -0.0357
18968TIP3   OH278394   5.449   6.685   5.373 -0.2488 -0.3740  0.0142
18968TIP3    H178395   5.449   6.727   5.459 -1.0131  0.1240 -0.2245
18968TIP3    H278396   5.524   6.625   5.376  1.3632  1.5436  0.0924
18969TIP3   OH278397   0.253   6.686  16.287 -0.1007  0.5149 -0.1717
18969TIP3    H178398   0.346   6.666  16.275  0.0300  0.8950  0.1835
18969TIP3    H278399   0.232   6.749  16.218 -0.8059 -1.6442 -2.0543
18970TIP3   OH278400   6.005   3.620  15.493 -1.0473  0.4180  0.4361
18970TIP3    H178401   6.003   3.672  15.573 -0.5161 -0.1977  0.8607
18970TIP3    H278402   6.079   3.561  15.504 -0.6493  0.6621 -0.7363
18971TIP3   OH278403   5.141   1.094   4.005  0.5609  0.4085  0.2095
18971TIP3    H178404   5.096   1.107   3.922  0.1011 -0.0891  0.3721
18971TIP3    H278405   5.230   1.068   3.980  0.0666 -1.0367 -0.1670
18972TIP3   OH278406   6.743   0.765   3.794 -0.1362  0.3048 -0.1792
18972TIP3    H178407   6.664   0.724   3.828 -0.0465  0.7955  0.6564
18972TIP3    H278408   6.813   0.704   3.817 -0.3553 -0.5823 -1.7404
18973TIP3   OH278409   2.176   6.039  15.537 -0.5732 -0.7621 -0.2288
18973TIP3    H178410   2.151   6.123  15.576 -0.7647 -1.1914  0.5992
18973TIP3    H278411   2.139   6.041  15.449 -0.9073 -0.1376 -0.0757
18974TIP3   OH278412   4.519   6.684   3.310  0.2599  0.1247 -0.0794
18974TIP3    H178413   4.465   6.714   3.237  2.0966  0.5608 -1.3253
18974TIP3    H278414   4.501   6.747   3.380  0.3823  1.2416 -1.0282
18975TIP3   OH278415   4.167   0.186  15.012  0.4218 -0.5496 -0.4542
18975TIP3    H178416   4.091   0.171  15.069  0.6577 -2.0844 -0.5129
18975TIP3    H278417   4.134   0.245  14.944 -1.0440 -2.0437 -1.0920
18976TIP3   OH278418   1.153   4.480   4.875 -0.0153 -0.4998  0.0754
18976TIP3    H178419   1.204   4.557   4.851 -0.5743  0.4004  1.6079
18976TIP3    H278420   1.217   4.420   4.913  0.2415 -0.2734  0.0008
18977TIP3   OH278421   2.507   6.684  14.640  0.0595 -0.4291 -0.0018
18977TIP3    H178422   2.415   6.658  14.634  0.0875 -1.1119  1.9483
18977TIP3    H278423   2.529   6.673  14.732  2.6559 -2.1519 -0.7230
18978TIP3   OH278424   3.492   3.954   3.890  0.1423 -0.3124 -0.1644
18978TIP3    H178425   3.455   4.003   3.964  1.2544  1.0215 -0.4439
18978TIP3    H278426   3.543   3.884   3.930 -0.3628 -0.4248  0.2906
18979TIP3   OH278427   2.225   3.812  14.027 -0.1823 -0.4270  0.4592
18979TIP3    H178428   2.208   3.763  13.946  1.8554 -1.6404  0.6839
18979TIP3    H278429   2.209   3.903  14.004 -0.4203 -0.8310 -1.0952
18980TIP3   OH278430   6.068   6.108   0.378  0.2381  0.2043 -0.1387
18980TIP3    H178431   6.062   6.183   0.319  0.5662  0.9052  0.7036
18980TIP3    H278432   6.122   6.044   0.331 -0.8607  0.0680 -1.2863
18981TIP3   OH278433   3.918   4.349   1.500  0.1722  0.0576 -0.0850
18981TIP3    H178434   3.828   4.330   1.526 -0.0823  1.2990  0.0228
18981TIP3    H278435   3.911   4.430   1.448  1.0292 -0.7272 -1.4975
18982TIP3   OH278436   4.437   5.280  11.340 -0.5273 -0.3491 -0.0350
18982TIP3    H178437   4.453   5.268  11.246  0.4763 -1.5558  0.2570
18982TIP3    H278438   4.445   5.192  11.377 -0.0982  0.2228  1.3018
18983TIP3   OH278439   0.436   4.783  15.462 -0.1167  0.3088  0.1090
18983TIP3    H178440   0.439   4.690  15.441 -0.1424  0.6963 -1.7871
18983TIP3    H278441   0.527   4.812  15.455 -0.3744  0.8594 -1.7347
18984TIP3   OH278442   4.686   1.201   2.241 -0.5706 -0.3608  0.2176
18984TIP3    H178443   4.737   1.210   2.321  0.4912 -2.3790 -0.1695
18984TIP3    H278444   4.634   1.282   2.236  1.8543  1.3588  1.1186
18985TIP3   OH278445   3.258   3.203  14.864  0.2967 -0.1346  0.2134
18985TIP3    H178446   3.302   3.197  14.779  1.6299  0.8302  0.8128
18985TIP3    H278447   3.189   3.268  14.851  0.7718  0.3236 -0.0206
18986TIP3   OH278448   2.475   0.996  17.038 -0.2895  0.4933  0.3234
18986TIP3    H178449   2.533   0.968  16.968 -1.0102 -0.2543  0.0066
18986TIP3    H278450   2.489   0.932  17.108  0.1673  1.0281  0.7210
18987TIP3   OH278451   5.995   3.507  14.527  0.0376 -0.1287  0.2459
18987TIP3    H178452   6.053   3.480  14.598  2.3536  2.3506 -0.5281
18987TIP3    H278453   6.048   3.495  14.447 -1.5574 -0.4471 -0.8040
18988TIP3   OH278454   3.353   3.512   6.027 -0.0494 -0.7666 -0.0870
18988TIP3    H178455   3.355   3.601   6.062  1.2146 -1.9126  3.0954
18988TIP3    H278456   3.297   3.518   5.950 -0.7616  2.5907  0.5397
18989TIP3   OH278457   2.127   3.136   5.561 -0.4521 -0.1174  0.0732
18989TIP3    H178458   2.207   3.161   5.608 -0.4318 -0.7316  0.3740
18989TIP3    H278459   2.057   3.149   5.625 -0.9526  2.8067 -0.9207
18990TIP3   OH278460   0.992   5.000  17.161 -0.3331 -0.2518 -0.2778
18990TIP3    H178461   1.024   5.019  17.073 -1.4783  0.8802 -0.4775
18990TIP3    H278462   1.043   4.924  17.189  0.7566 -0.0141 -1.5154
18991TIP3   OH278463   0.772   4.299  12.945 -0.1639 -0.2424 -0.3259
18991TIP3    H178464   0.733   4.336  13.024 -0.8102 -0.3631 -0.5790
18991TIP3    H278465   0.718   4.334  12.874  0.4758 -0.0448 -0.7253
18992TIP3   OH278466   0.526   4.309   0.750 -0.3464 -0.2592 -0.0823
18992TIP3    H178467   0.544   4.396   0.714 -0.1000 -0.3905 -0.2854
18992TIP3    H278468   0.473   4.325   0.827  0.7288  0.1494  0.5920
18993TIP3   OH278469   0.110   2.105   2.656 -0.2431 -0.3072  0.5210
18993TIP3    H178470   0.187   2.143   2.613 -1.0477  1.1825  0.3143
18993TIP3    H278471   0.136   2.016   2.679  1.5205  0.1526  0.4218
18994TIP3   OH278472   3.495   6.454  16.259 -0.1950  0.0594  0.7890
18994TIP3    H178473   3.440   6.520  16.301 -0.6596 -0.5135  1.0830
18994TIP3    H278474   3.479   6.374  16.308  0.4768 -0.2481  0.5219
18995TIP3   OH278475   3.003   4.616  10.426  1.1273 -0.2029 -1.0529
18995TIP3    H178476   3.019   4.705  10.457  0.4111  0.2467 -1.9338
18995TIP3    H278477   2.926   4.587  10.474 -0.0360  0.5265 -2.4022
18996TIP3   OH278478   2.575   1.003   3.675 -0.2812 -0.8065  0.0749
18996TIP3    H178479   2.592   1.091   3.642 -1.3616 -0.9535 -0.9597
18996TIP3    H278480   2.558   1.015   3.768  1.8480 -0.2417  0.4441
18997TIP3   OH278481   5.399   4.563   1.668 -0.8050 -0.8157  0.0811
18997TIP3    H178482   5.349   4.559   1.750 -1.3258  1.0365 -0.1021
18997TIP3    H278483   5.369   4.643   1.626  1.2291 -0.4495 -0.7670
18998TIP3   OH278484   3.006   3.617  15.765 -0.6669  0.0848 -0.3496
18998TIP3    H178485   2.928   3.580  15.723 -0.5929 -0.7935  0.2799
18998TIP3    H278486   3.060   3.542  15.787 -1.1721  0.4038  2.2636
18999TIP3   OH278487   4.239   3.197  15.003 -0.1148  0.2103 -0.3719
18999TIP3    H178488   4.212   3.234  15.087 -2.4672 -0.1994 -0.8643
18999TIP3    H278489   4.157   3.189  14.953  1.2017  0.5183 -2.7466
19000TIP3   OH278490   5.448   3.281  12.470 -0.8800 -0.3445 -0.0200
19000TIP3    H178491   5.510   3.325  12.412 -1.4825 -1.6242 -1.7210
19000TIP3    H278492   5.492   3.200  12.496 -2.1089 -1.7508 -2.0366
19001TIP3   OH278493   6.139   1.881   5.936  0.2458 -0.1342 -0.4756
19001TIP3    H178494   6.140   1.947   6.005 -2.7320 -0.0475 -0.3708
19001TIP3    H278495   6.209   1.820   5.960  2.0238  2.0811  0.2791
19002TIP3   OH278496   5.146   2.111   1.228  0.3663 -0.8357 -0.0765
19002TIP3    H178497   5.238   2.134   1.237  0.5137 -1.2648 -0.4400
19002TIP3    H278498   5.125   2.063   1.308  0.1945  0.1025  0.4495
19003TIP3   OH278499   2.690   3.564  15.277  0.4301 -0.3646 -0.2219
19003TIP3    H178500   2.781   3.594  15.275 -0.1429  1.4015 -1.2170
19003TIP3    H278501   2.639   3.636  15.241 -1.4683 -1.0667  0.8968
19004TIP3   OH278502   0.470   4.098   0.565 -0.4739  0.2472  0.2152
19004TIP3    H178503   0.499   4.129   0.651  1.8416 -0.3092 -0.3175
19004TIP3    H278504   0.480   4.174   0.508 -2.3337  0.7183  0.4272
19005TIP3   OH278505   0.163   3.007  15.034 -0.7682 -0.5200 -0.2687
19005TIP3    H178506   0.234   3.071  15.030  1.3931 -2.8091 -1.0208
19005TIP3    H278507   0.108   3.037  15.107  1.6374  0.7122  1.1658
19006TIP3   OH278508   6.801   3.966   3.567  0.0760 -0.2845 -0.1592
19006TIP3    H178509   6.724   3.920   3.534 -0.1484 -0.8536  1.0875
19006TIP3    H278510   6.875   3.918   3.531 -0.1576 -0.4645 -0.4051
19007TIP3   OH278511   2.784   3.591   1.576 -1.0675  0.7160  0.0247
19007TIP3    H178512   2.822   3.674   1.551  0.4437 -0.1605 -0.7243
19007TIP3    H278513   2.763   3.601   1.669  0.3383  1.4924  0.2839
19008TIP3   OH278514   1.291   5.748  14.857  0.7880 -0.2401  0.7726
19008TIP3    H178515   1.210   5.779  14.817 -0.0386 -1.9254  1.0583
19008TIP3    H278516   1.274   5.752  14.951  1.0582 -0.4956  0.8341
19009TIP3   OH278517   5.400   1.273  13.999  0.7629 -0.6107 -0.2086
19009TIP3    H178518   5.434   1.252  13.912  4.0505  0.8629  0.5725
19009TIP3    H278519   5.463   1.336  14.034 -0.9819 -0.4392  2.8876
19010TIP3   OH278520   5.050   2.963   2.417  0.0766 -0.1884 -0.3933
19010TIP3    H178521   4.968   2.972   2.466 -0.4462  1.2330 -1.4778
19010TIP3    H278522   5.041   2.879   2.372 -1.0323  0.1856 -0.9044
19011TIP3   OH278523   0.527   6.153  14.351 -0.0008 -0.6921 -0.0925
19011TIP3    H178524   0.506   6.068  14.390  1.7798 -0.9229  0.4667
19011TIP3    H278525   0.600   6.134  14.292 -0.5697  0.2112 -1.1161
19012TIP3   OH278526   3.626   3.463   1.250  0.5084 -0.1269  0.3212
19012TIP3    H178527   3.616   3.554   1.225 -1.9856  0.1887  2.1094
19012TIP3    H278528   3.617   3.463   1.346 -1.1038 -2.3507  0.2526
19013TIP3   OH278529   4.112   3.676  13.606 -0.6339 -0.2020 -0.1059
19013TIP3    H178530   4.039   3.710  13.554  1.0649  0.7925 -1.9982
19013TIP3    H278531   4.104   3.721  13.690 -1.1817  1.3188 -0.9261
19014TIP3   OH278532   4.311   1.749  16.845 -0.2435  0.0539 -0.4123
19014TIP3    H178533   4.337   1.747  16.937  0.2977  0.9835 -0.5347
19014TIP3    H278534   4.372   1.811  16.804 -1.2445  0.5855 -1.1463
19015TIP3   OH278535   3.274   0.822   5.862 -0.0469 -0.6524 -0.0636
19015TIP3    H178536   3.241   0.911   5.875 -0.9678 -0.7720 -1.3468
19015TIP3    H278537   3.262   0.779   5.947 -1.8633 -0.2353 -0.0590
19016TIP3   OH278538   3.760   3.769  14.363  0.4242  0.3562 -0.2207
19016TIP3    H178539   3.786   3.682  14.391  1.0207  0.0541 -1.6424
19016TIP3    H278540   3.840   3.808  14.328  0.1956  1.5330  0.5142
19017TIP3   OH278541   1.873   4.677  12.680 -0.3971 -0.0685 -0.2344
19017TIP3    H178542   1.868   4.739  12.753 -0.2479  0.2083 -0.4573
19017TIP3    H278543   1.783   4.667  12.651 -0.4093  0.1287 -0.2662
19018TIP3   OH278544   4.761   4.435   6.283 -0.2491  0.1285  0.5337
19018TIP3    H178545   4.841   4.447   6.231  0.4531 -2.1415  0.9836
19018TIP3    H278546   4.770   4.498   6.355  2.4877 -1.7746  2.0365
19019TIP3   OH278547   4.734   1.511   2.521 -0.0498 -0.0852 -0.1295
19019TIP3    H178548   4.775   1.563   2.590  0.4830 -0.3913 -0.2099
19019TIP3    H278549   4.704   1.431   2.566  0.4820 -0.3758 -0.2897
19020TIP3   OH278550   2.376   4.408  14.781 -0.4435 -0.1295 -0.1598
19020TIP3    H178551   2.395   4.338  14.844 -1.8247  1.3055  1.9980
19020TIP3    H278552   2.448   4.471  14.794 -0.9479  0.3594  0.3101
19021TIP3   OH278553   1.812   1.522  10.458 -0.3271  0.4779 -0.6002
19021TIP3    H178554   1.900   1.555  10.478 -0.1166 -1.6527  2.9416
19021TIP3    H278555   1.761   1.540  10.537 -2.4802 -0.2297 -1.7543
19022TIP3   OH278556   1.885   6.559  14.925 -0.0382  0.5490 -0.5282
19022TIP3    H178557   1.813   6.609  14.962 -2.3271 -3.5656  1.2944
19022TIP3    H278558   1.955   6.563  14.990 -0.5494  0.5974  0.0157
19023TIP3   OH278559   1.268   0.230  11.372  0.9657 -0.2378  0.5370
19023TIP3    H178560   1.302   0.302  11.318  1.6427 -1.5252 -0.8302
19023TIP3    H278561   1.346   0.184  11.401  0.5320 -0.4974  1.3089
19024TIP3   OH278562   1.782   4.128   0.689 -0.1340  0.7599  0.3390
19024TIP3    H178563   1.789   4.057   0.625  1.0542  1.7465 -0.6897
19024TIP3    H278564   1.732   4.090   0.761  0.3375 -1.0673 -0.2310
19025TIP3   OH278565   6.667   0.050   2.731  0.0063  0.3192  0.1264
19025TIP3    H178566   6.669   0.022   2.640  1.9477 -1.8466  0.7618
19025TIP3    H278567   6.579   0.028   2.761 -0.7696  1.3691 -1.2494
19026TIP3   OH278568   1.399   5.259  11.943  0.3436  0.0261 -0.3030
19026TIP3    H178569   1.409   5.334  12.002  0.5017 -0.1275 -0.1313
19026TIP3    H278570   1.379   5.298  11.858  1.0702  0.2993 -0.3603
19027TIP3   OH278571   1.346   5.219  13.134 -0.0676  0.2121 -0.4870
19027TIP3    H178572   1.278   5.224  13.066 -2.1564  0.8596  1.5011
19027TIP3    H278573   1.363   5.311  13.157 -0.4319 -0.0097  0.7578
19028TIP3   OH278574   0.984   6.291   1.298 -0.3217  0.2758  0.0977
19028TIP3    H178575   1.032   6.350   1.239  0.5501 -1.3661 -0.9195
19028TIP3    H278576   1.034   6.293   1.379 -0.9247  1.7384  0.4720
19029TIP3   OH278577   1.272   4.713   4.351  0.4496  0.4266 -0.2185
19029TIP3    H178578   1.301   4.705   4.260 -1.6767 -0.4971 -0.8651
19029TIP3    H278579   1.326   4.784   4.387  0.2089  1.9572 -2.6809
19030TIP3   OH278580   1.466   3.474  14.802 -0.0465 -0.5729 -0.0963
19030TIP3    H178581   1.465   3.568  14.819 -0.3155 -0.5999  0.0418
19030TIP3    H278582   1.383   3.457  14.757  0.8718 -0.4140 -1.9326
19031TIP3   OH278583   5.825   2.541  12.891 -0.3118  0.3150  0.7619
19031TIP3    H178584   5.906   2.565  12.848  0.3221  0.4649  1.9906
19031TIP3    H278585   5.797   2.460  12.848  0.6262  0.1151  0.5146
19032TIP3   OH278586   0.852   6.546   6.082 -0.2899 -0.0485  0.3546
19032TIP3    H178587   0.759   6.563   6.063  0.0330  1.4133 -0.0411
19032TIP3    H278588   0.854   6.527   6.175 -1.2145 -2.0187  0.0339
19033TIP3   OH278589   0.474   5.130   4.011  0.5805 -0.3887 -0.1970
19033TIP3    H178590   0.484   5.073   4.087  1.2084  1.2629  1.0324
19033TIP3    H278591   0.535   5.202   4.026  1.0298 -0.1995 -2.4994
19034TIP3   OH278592   4.176   5.755   2.948 -0.2547  0.2875  0.4214
19034TIP3    H178593   4.158   5.845   2.922  0.1420  0.2053 -0.1465
19034TIP3    H278594   4.271   5.745   2.941 -0.3909 -0.4696 -0.5186
19035TIP3   OH278595   0.087   2.740  15.095  0.0221 -0.0745 -0.1479
19035TIP3    H178596   0.114   2.830  15.076 -1.0111 -0.0480 -1.6813
19035TIP3    H278597   0.002   2.750  15.139  0.6018 -0.2745  1.0565
19036TIP3   OH278598   0.571   3.892  16.484  0.3543 -0.3780 -0.5966
19036TIP3    H178599   0.493   3.875  16.431  1.3489  1.4855 -2.8461
19036TIP3    H278600   0.551   3.973  16.530 -0.0058 -1.3260  1.0115
19037TIP3   OH278601   0.613   3.209  14.370  0.1254 -0.4189 -0.0587
19037TIP3    H178602   0.652   3.274  14.312 -1.4889  1.7785  1.1711
19037TIP3    H278603   0.659   3.220  14.453 -0.1958 -0.8212  0.1754
19038TIP3   OH278604   2.860   2.070  13.018 -0.2356  0.3090  0.7077
19038TIP3    H178605   2.915   2.144  13.045 -1.1877  1.0359  0.6939
19038TIP3    H278606   2.919   1.994  13.021  1.4501  1.3918 -1.5972
19039TIP3   OH278607   3.759   2.226  13.607  0.0420  0.6665  0.0701
19039TIP3    H178608   3.708   2.149  13.633  1.1379 -0.5505 -1.2047
19039TIP3    H278609   3.720   2.298  13.656 -1.0655 -0.6792  1.2663
19040TIP3   OH278610   3.767   3.306  13.688  0.5689 -0.1690  0.1114
19040TIP3    H178611   3.787   3.214  13.670 -0.7759 -0.1468 -1.7865
19040TIP3    H278612   3.839   3.335  13.745 -0.0468 -2.9080  2.5503
19041TIP3   OH278613   4.987   0.944   1.272  0.3845  0.2330 -0.4150
19041TIP3    H178614   4.918   0.884   1.242 -0.9976  0.3387  2.2212
19041TIP3    H278615   4.983   1.018   1.211 -1.7001  0.1016 -0.5109
19042TIP3   OH278616   5.329   1.089  16.529 -0.0443 -0.0957  0.1816
19042TIP3    H178617   5.309   1.000  16.499 -0.8537  0.6724 -1.7358
19042TIP3    H278618   5.255   1.112  16.585  1.1097 -1.2787  2.2883
19043TIP3   OH278619   0.322   4.619   1.499 -0.0932  0.1775  0.5491
19043TIP3    H178620   0.300   4.674   1.423 -1.3252  1.7067  1.9229
19043TIP3    H278621   0.333   4.531   1.463  0.9546  1.1200 -1.6163
19044TIP3   OH278622   5.323   2.879   0.928  0.4011 -0.3869 -0.7067
19044TIP3    H178623   5.332   2.783   0.929  1.1600 -0.4021  2.6642
19044TIP3    H278624   5.413   2.911   0.934  0.0334  0.3770  1.6383
19045TIP3   OH278625   3.857   2.278  13.201  0.4632  0.1723  0.5743
19045TIP3    H178626   3.861   2.358  13.148 -2.0580 -0.2045 -0.3476
19045TIP3    H278627   3.820   2.212  13.142  0.2057 -1.0323  2.0056
19046TIP3   OH278628   0.629   1.863  15.801  0.1645 -0.3165 -0.0089
19046TIP3    H178629   0.553   1.900  15.846  0.2141  1.0007 -0.9495
19046TIP3    H278630   0.704   1.912  15.836  0.1596  1.0822 -1.7642
19047TIP3   OH278631   5.252   1.302   3.658 -0.1337 -0.0187  0.2359
19047TIP3    H178632   5.295   1.237   3.714 -1.3683  0.1775  1.4687
19047TIP3    H278633   5.163   1.269   3.649  0.2442 -0.5517 -2.4693
19048TIP3   OH278634   4.113   0.018   4.032  0.2820 -0.2230 -0.2096
19048TIP3    H178635   4.022   0.046   4.019  0.0663 -0.8352 -0.0233
19048TIP3    H278636   4.114  -0.074   4.007  0.6187 -0.5081  0.8051
19049TIP3   OH278637   5.667   3.304   0.298  0.6669  0.3077  0.3171
19049TIP3    H178638   5.749   3.306   0.347  0.3720  0.4895  0.8146
19049TIP3    H278639   5.601   3.334   0.361  0.4516  1.7533 -0.5559
19050TIP3   OH278640   5.862   4.951   0.047  0.3575 -0.2530  0.0315
19050TIP3    H178641   5.843   4.888   0.117  0.0862 -1.3456 -0.9919
19050TIP3    H278642   5.788   4.943  -0.013  1.0285 -0.0001 -0.8493
19051TIP3   OH278643   2.488   4.698   3.708 -0.1538 -1.0688 -0.0267
19051TIP3    H178644   2.581   4.703   3.690 -0.1404 -0.8005  0.1077
19051TIP3    H278645   2.450   4.656   3.631 -0.0351 -0.3991 -0.4585
19052TIP3   OH278646   6.758   6.227   6.744 -0.1323  0.1652  0.5816
19052TIP3    H178647   6.849   6.250   6.758 -0.0210  0.1319 -0.0776
19052TIP3    H278648   6.759   6.133   6.726 -0.1971  0.3217 -0.2776
19053TIP3   OH278649   0.758   5.325   0.621 -0.2692  0.1472 -0.1270
19053TIP3    H178650   0.823   5.348   0.687 -1.7009 -0.2872  1.5015
19053TIP3    H278651   0.761   5.229   0.616  1.6993  0.2558 -2.7266
19054TIP3   OH278652   1.295   3.955  17.218 -0.4391 -0.5964 -0.6697
19054TIP3    H178653   1.349   3.881  17.246 -0.0025 -0.3375 -0.8167
19054TIP3    H278654   1.208   3.937  17.254  0.1487 -0.1683  1.0465
19055TIP3   OH278655   2.592   0.266  14.823  0.1069  0.3394 -0.3660
19055TIP3    H178656   2.546   0.286  14.905 -1.9683  0.6597 -1.5399
19055TIP3    H278657   2.658   0.334  14.815 -0.1069  0.6909  0.6939
19056TIP3   OH278658   6.450   4.398   0.309 -0.0163 -0.4287  0.0894
19056TIP3    H178659   6.532   4.380   0.356 -0.1908 -1.7417 -0.0941
19056TIP3    H278660   6.426   4.487   0.337  0.1274 -0.9875  2.1337
19057TIP3   OH278661   2.777   0.091  13.450 -0.3639  0.0074  0.0498
19057TIP3    H178662   2.706   0.111  13.390  0.5214 -0.0530 -1.0546
19057TIP3    H278663   2.833   0.169  13.449 -1.2874  0.7705  2.2713
19058TIP3   OH278664   0.079   2.034   1.986  0.3793 -0.6467  0.1673
19058TIP3    H178665   0.164   2.059   1.951  1.2673 -1.5135  1.6022
19058TIP3    H278666   0.036   1.988   1.914  0.5626  0.9168 -0.9996
19059TIP3   OH278667   3.571   1.641   1.735 -0.0643  0.2023 -0.8889
19059TIP3    H178668   3.573   1.685   1.650  1.8395 -1.7874 -1.9853
19059TIP3    H278669   3.517   1.563   1.720  0.2946 -0.1684 -0.2879
19060TIP3   OH278670   0.888   1.311   0.247  0.1444  0.3757 -0.4974
19060TIP3    H178671   0.871   1.378   0.313 -0.3508  0.6949 -0.9359
19060TIP3    H278672   0.904   1.361   0.167  0.4143 -0.0133 -0.6892
19061TIP3   OH278673   5.217   3.158   6.081  0.0970 -0.1778  0.6566
19061TIP3    H178674   5.128   3.185   6.060 -0.8430 -3.3367  0.0673
19061TIP3    H278675   5.240   3.209   6.159 -2.7395 -0.2085  1.6059
19062TIP3   OH278676   5.384   6.610   3.261  0.0911  0.7905  0.1166
19062TIP3    H178677   5.461   6.666   3.274 -0.2408  1.5111 -0.8171
19062TIP3    H278678   5.377   6.603   3.165 -0.5475  0.0874  0.2122
19063TIP3   OH278679   2.585   0.535   0.930  0.0144 -0.0045  0.7097
19063TIP3    H178680   2.570   0.571   1.017 -0.0570  1.5987  0.0760
19063TIP3    H278681   2.565   0.608   0.870 -0.8799 -1.3375 -0.6988
19064TIP3   OH278682   3.352   1.358   5.390  0.5796  0.1803 -0.0756
19064TIP3    H178683   3.425   1.342   5.449 -0.0265  1.0049  0.9279
19064TIP3    H278684   3.310   1.437   5.424 -0.8915 -0.3741 -0.5070
19065TIP3   OH278685   6.148   2.351  13.708 -0.1113 -0.6474  0.0386
19065TIP3    H178686   6.173   2.443  13.699  0.3375 -0.8096 -0.4129
19065TIP3    H278687   6.152   2.316  13.619  0.2366 -1.2356  0.2761
19066TIP3   OH278688   5.591   4.342  16.526 -0.0127 -0.1533 -0.2926
19066TIP3    H178689   5.543   4.329  16.607 -1.4211  1.2528 -0.8446
19066TIP3    H278690   5.623   4.432  16.532  0.7117 -0.3583 -0.8893
19067TIP3   OH278691   6.029   1.119  16.475  0.0724 -0.5138 -0.4607
19067TIP3    H178692   5.960   1.147  16.535  0.6695  0.1729 -0.0868
19067TIP3    H278693   6.052   1.031  16.506  0.1257 -0.3100  0.0880
19068TIP3   OH278694   4.105   1.161   5.627 -0.0443 -0.5660  0.8149
19068TIP3    H178695   4.199   1.153   5.617  0.1040 -1.6884  2.6184
19068TIP3    H278696   4.093   1.230   5.693 -0.5470  0.3141 -0.1701
19069TIP3   OH278697   2.778   5.814   2.591  0.3563  0.0792 -0.3230
19069TIP3    H178698   2.846   5.881   2.580 -0.0351  0.1945 -2.3207
19069TIP3    H278699   2.700   5.862   2.615  0.3486  0.2285 -0.6434
19070TIP3   OH278700   0.580   5.364   4.811  0.3301 -0.4392 -0.2481
19070TIP3    H178701   0.493   5.325   4.815  0.2552 -0.1846  0.9315
19070TIP3    H278702   0.570   5.440   4.754  0.4309 -1.9379 -2.3888
19071TIP3   OH278703   5.362   0.465   6.205  0.4138 -0.2452 -1.0953
19071TIP3    H178704   5.342   0.548   6.248 -1.3221 -0.0201 -2.2196
19071TIP3    H278705   5.281   0.415   6.211 -0.0704 -0.0902 -4.2496
19072TIP3   OH278706   4.452   4.006   4.677  0.2123  0.4153  0.9261
19072TIP3    H178707   4.482   3.962   4.757 -1.4240 -0.2507  1.2021
19072TIP3    H278708   4.367   3.967   4.658 -0.2796  1.8952 -0.1003
19073TIP3   OH278709   2.464   5.576  14.403 -0.4605 -0.1089 -0.2103
19073TIP3    H178710   2.425   5.621  14.479  1.4559  1.5129 -0.1115
19073TIP3    H278711   2.479   5.646  14.339  2.5172 -0.5409 -0.1173
19074TIP3   OH278712   5.772   3.105  10.879 -0.0513 -0.5573 -0.9367
19074TIP3    H178713   5.865   3.126  10.867  0.5652 -2.8562 -0.6302
19074TIP3    H278714   5.737   3.181  10.925  2.0846 -0.3017  0.4655
19075TIP3   OH278715   5.863   6.217  11.829 -0.5786 -0.0089 -0.0935
19075TIP3    H178716   5.792   6.260  11.781 -0.4046  0.6934  0.2787
19075TIP3    H278717   5.895   6.150  11.768 -2.8065 -1.6548  0.4173
19076TIP3   OH278718   2.653   2.766   5.563 -0.5236 -0.2783  0.0055
19076TIP3    H178719   2.657   2.711   5.641 -0.2420  0.6711  0.6696
19076TIP3    H278720   2.575   2.735   5.516 -0.5834 -0.9839  0.5500
19077TIP3   OH278721   3.308   3.935  11.342 -0.0246 -0.5254 -0.0527
19077TIP3    H178722   3.225   3.980  11.352 -0.8338 -1.6903 -1.1590
19077TIP3    H278723   3.346   3.933  11.430 -2.2167 -1.9266  0.9568
19078TIP3   OH278724   0.262   4.026  14.316 -0.4935 -0.0557 -0.2115
19078TIP3    H178725   0.312   3.983  14.247  1.8414  1.3339  0.5323
19078TIP3    H278726   0.255   3.960  14.385  0.9284 -0.0675 -0.0560
19079TIP3   OH278727   2.570   3.428   5.723  0.1450  0.2927  0.2097
19079TIP3    H178728   2.569   3.523   5.715 -1.1631  0.2117 -1.0867
19079TIP3    H278729   2.574   3.396   5.633  0.8745 -0.8892  0.6381
19080TIP3   OH278730   2.895   3.673   5.771  0.1519 -0.0264  0.2722
19080TIP3    H178731   2.900   3.605   5.704 -1.8914  0.5377 -0.5061
19080TIP3    H278732   2.808   3.663   5.809  0.9284  0.2589  2.2484
19081TIP3   OH278733   0.398   1.257  11.572  0.2116  0.0636 -0.0943
19081TIP3    H178734   0.399   1.217  11.659  0.6126  0.4142  0.0633
19081TIP3    H278735   0.470   1.319  11.573 -0.4141  0.8078 -0.3378
19082TIP3   OH278736   4.193   6.394  12.920  0.4644 -0.3621  0.2126
19082TIP3    H178737   4.271   6.412  12.867  0.6225  0.1012  0.6017
19082TIP3    H278738   4.135   6.467  12.902 -0.8905 -1.8517 -1.9149
19083TIP3   OH278739   6.752   2.950   1.554 -0.5011 -1.0368  0.7597
19083TIP3    H178740   6.710   2.923   1.636 -1.7647 -3.5891 -0.5883
19083TIP3    H278741   6.680   2.980   1.499  0.2063 -0.2060  0.2668
19084TIP3   OH278742   2.609   4.661  16.855 -0.0341 -1.1214  0.5727
19084TIP3    H178743   2.623   4.639  16.763  3.0290 -0.5101  0.7965
19084TIP3    H278744   2.672   4.731  16.873 -1.6882 -0.0577  2.7518
19085TIP3   OH278745   4.430   6.265  13.456  0.1851  0.3417 -0.3663
19085TIP3    H178746   4.365   6.327  13.489  1.0312  1.3803 -0.5673
19085TIP3    H278747   4.488   6.249  13.530  0.5882  0.6426 -0.6106
19086TIP3   OH278748   2.504   3.778   3.978 -0.6406  0.4736 -0.5900
19086TIP3    H178749   2.479   3.689   4.005 -3.3289  1.7104  1.5799
19086TIP3    H278750   2.457   3.792   3.896 -0.8667  0.1750 -0.5132
19087TIP3   OH278751   2.493   2.753   5.283 -0.6560  0.0485  0.5187
19087TIP3    H178752   2.442   2.771   5.204 -0.8706 -0.8439  0.4436
19087TIP3    H278753   2.442   2.687   5.329 -0.8063  0.9389  1.6774
19088TIP3   OH278754   2.236   0.452   2.588  0.1972 -0.6689 -0.4026
19088TIP3    H178755   2.261   0.400   2.512 -0.8481 -1.8443  0.0135
19088TIP3    H278756   2.182   0.392   2.641 -1.0807  0.8494  0.0932
19089TIP3   OH278757   3.268   2.146  15.344  0.1491 -0.1538  0.8634
19089TIP3    H178758   3.308   2.114  15.425  2.3732  0.0466 -0.0893
19089TIP3    H278759   3.268   2.070  15.286  2.3651  0.6547 -0.2813
19090TIP3   OH278760   4.495   0.640  16.455  0.3310  0.4198 -0.6849
19090TIP3    H178761   4.428   0.574  16.434  0.3072  0.5775 -1.1167
19090TIP3    H278762   4.499   0.641  16.551 -2.2718  2.3767 -0.4950
19091TIP3   OH278763   3.943   5.660   2.309  0.2612  0.8639 -0.0846
19091TIP3    H178764   3.857   5.670   2.267 -0.5967  0.2927  1.4578
19091TIP3    H278765   3.923   5.641   2.400  2.0670  3.4880  0.9891
19092TIP3   OH278766   5.664   1.426  16.050  0.3782  0.3745  0.0583
19092TIP3    H178767   5.701   1.491  16.110  1.0186 -0.4389  0.5662
19092TIP3    H278768   5.611   1.478  15.989 -1.0492  1.1494  1.8496
19093TIP3   OH278769   2.372   0.719   4.326 -0.4706  0.1074  0.5505
19093TIP3    H178770   2.400   0.807   4.351  1.5809 -0.7883  1.7364
19093TIP3    H278771   2.452   0.677   4.295 -1.4187 -1.3176 -0.0608
19094TIP3   OH278772   6.140   2.232   2.421 -0.1390 -0.0122 -0.4767
19094TIP3    H178773   6.214   2.177   2.394  0.4873  0.6044 -0.0387
19094TIP3    H278774   6.115   2.199   2.507 -0.5491 -0.3860 -0.7337
19095TIP3   OH278775   4.676   2.697  17.064  0.4634 -0.5113  0.1626
19095TIP3    H178776   4.595   2.655  17.033 -0.0245 -0.3674  1.1890
19095TIP3    H278777   4.726   2.625  17.103 -0.6853 -0.1196  2.5681
19096TIP3   OH278778   0.985   0.145  15.635 -0.5838 -0.2222 -0.2432
19096TIP3    H178779   0.919   0.215  15.637  1.0190  1.4654 -2.0577
19096TIP3    H278780   0.984   0.115  15.544 -0.1918 -1.5238  0.1726
19097TIP3   OH278781   5.061   4.911   2.590  0.5498 -0.4151  0.2168
19097TIP3    H178782   5.063   4.823   2.552  1.1286  1.0332 -3.5016
19097TIP3    H278783   4.971   4.940   2.579  0.2814 -0.5984  1.7305
19098TIP3   OH278784   3.188   3.850   3.296  0.1639  0.3892 -0.8678
19098TIP3    H178785   3.248   3.890   3.233 -1.2043  1.2285 -1.6822
19098TIP3    H278786   3.189   3.910   3.370  1.3434 -0.3086 -0.2865
19099TIP3   OH278787   0.756   6.132   2.795 -0.1465 -0.1716 -0.2840
19099TIP3    H178788   0.664   6.151   2.776 -0.5009  0.0821  1.5194
19099TIP3    H278789   0.781   6.198   2.860  0.8894 -1.1269  0.3171
19100TIP3   OH278790   4.016   3.018   6.012 -0.1779  0.3582 -0.6019
19100TIP3    H178791   3.933   2.974   5.993  0.0715 -1.1587  1.4715
19100TIP3    H278792   3.998   3.070   6.090  0.6556  0.5151 -0.5073
19101TIP3   OH278793   1.875   6.001  13.851  0.1160  0.4288  0.0453
19101TIP3    H178794   1.869   6.041  13.938  1.9933 -0.0569  0.4436
19101TIP3    H278795   1.943   5.934  13.860 -0.3876 -0.3480 -1.5469
19102TIP3   OH278796   6.326   5.755   4.099  0.2886 -0.4762 -0.1385
19102TIP3    H178797   6.408   5.799   4.078  0.4094 -0.2760  0.7426
19102TIP3    H278798   6.352   5.677   4.147 -0.1104  1.4902  3.6320
19103TIP3   OH278799   6.725   5.237  16.921  0.1998  0.1870 -0.3102
19103TIP3    H178800   6.814   5.201  16.923  0.2036  0.0277 -1.9659
19103TIP3    H278801   6.671   5.171  16.963  0.9303  0.5754  1.3240
19104TIP3   OH278802   3.969   0.845  11.973  0.0989 -0.5786 -0.2596
19104TIP3    H178803   3.896   0.789  11.999 -0.2462 -0.5193 -1.0738
19104TIP3    H278804   3.949   0.930  12.010  0.3223 -0.8294  0.4648
19105TIP3   OH278805   5.796   0.392  11.571  0.6148  0.5565  0.0219
19105TIP3    H178806   5.822   0.346  11.491 -0.4302 -0.9032  0.4883
19105TIP3    H278807   5.703   0.376  11.579  0.4855  1.6236  0.9664
19106TIP3   OH278808   2.380   3.750   3.371  0.2456  0.0125  0.5462
19106TIP3    H178809   2.463   3.713   3.339  0.9988  0.9362  1.3649
19106TIP3    H278810   2.339   3.678   3.419  0.7591 -0.3571  0.4459
19107TIP3   OH278811   3.269   6.136   4.194 -0.4037  0.2780 -0.0497
19107TIP3    H178812   3.314   6.078   4.255 -0.0297  1.0685  0.4525
19107TIP3    H278813   3.317   6.219   4.201 -1.4330  0.8920 -0.1345
19108TIP3   OH278814   3.793   4.907   2.509 -0.3003 -0.2004 -0.6545
19108TIP3    H178815   3.833   4.896   2.595  0.0881 -0.1160 -0.8202
19108TIP3    H278816   3.749   4.992   2.514  0.7450  0.3709 -0.9238
19109TIP3   OH278817   5.103   6.494   2.340  0.0239 -0.4046 -0.3092
19109TIP3    H178818   5.165   6.558   2.306  0.5496  0.1132  1.5231
19109TIP3    H278819   5.094   6.430   2.269  2.2147 -0.2007 -0.8389
19110TIP3   OH278820   6.332   6.043   2.473 -0.8259 -0.3598  0.2166
19110TIP3    H178821   6.275   6.079   2.405 -2.8036 -2.1634  0.8179
19110TIP3    H278822   6.403   6.002   2.424  0.0783  1.9120 -0.5469
19111TIP3   OH278823   2.804   4.731   5.399  1.0862 -0.7265  0.1214
19111TIP3    H178824   2.816   4.779   5.317  2.2996 -0.9700  0.1394
19111TIP3    H278825   2.884   4.747   5.448 -0.6708  1.6617  2.4776
19112TIP3   OH278826   0.597   1.201  17.032  0.5291 -0.7685  0.1793
19112TIP3    H178827   0.610   1.262  17.105  0.4410  0.1949 -0.5851
19112TIP3    H278828   0.543   1.250  16.970 -0.7211 -2.1426  0.1452
19113TIP3   OH278829   0.009   6.321  11.854  0.5828  0.1047  0.0195
19113TIP3    H178830  -0.011   6.326  11.760 -1.7401 -0.7924  0.4091
19113TIP3    H278831  -0.051   6.384  11.894  0.6029 -0.5043  1.0207
19114TIP3   OH278832   2.996   4.139   2.029  0.4585 -0.4944 -0.0644
19114TIP3    H178833   3.065   4.106   2.087  1.4502 -0.6144 -1.2721
19114TIP3    H278834   3.010   4.093   1.947 -0.2724  0.4344 -0.7259
19115TIP3   OH278835   2.012   0.072   2.471  0.0054  0.1028  0.0006
19115TIP3    H178836   2.069   0.016   2.524  0.3233  0.3550 -0.0713
19115TIP3    H278837   2.044   0.161   2.487 -1.1840  0.3924  0.9803
19116TIP3   OH278838   0.800   3.324   0.659 -0.1002  0.3883 -0.5173
19116TIP3    H178839   0.803   3.393   0.593  1.4296  1.2525  0.3816
19116TIP3    H278840   0.797   3.243   0.609 -0.2216  1.0551 -1.6271
19117TIP3   OH278841   3.332   2.223  13.670 -0.0865 -0.8024  0.3655
19117TIP3    H178842   3.361   2.136  13.696 -1.1047 -1.3058 -0.1533
19117TIP3    H278843   3.341   2.276  13.749 -1.1313 -1.8038  1.1801
19118TIP3   OH278844   4.147   0.007  11.540 -0.3690 -0.6069 -0.1763
19118TIP3    H178845   4.167   0.092  11.502 -1.2442 -1.0164 -1.6506
19118TIP3    H278846   4.226  -0.018  11.587 -0.2283  1.1675  0.6000
19119TIP3   OH278847   5.032   1.577  13.577 -0.0534  0.0304 -0.1657
19119TIP3    H178848   5.006   1.667  13.593  0.9784  0.4041 -0.4934
19119TIP3    H278849   4.962   1.541  13.522  0.9762  1.5847 -2.6682
19120TIP3   OH278850   2.106   4.443  15.358 -0.0084 -0.7191 -0.2050
19120TIP3    H178851   2.192   4.402  15.362  0.0321 -0.6524 -0.4005
19120TIP3    H278852   2.096   4.487  15.443  1.1535  1.2997 -1.0314
19121TIP3   OH278853   5.685   0.727  17.201 -0.7535  0.1751 -0.3875
19121TIP3    H178854   5.621   0.734  17.272  0.0503  0.1165  0.3638
19121TIP3    H278855   5.735   0.809  17.205  0.1677 -0.3836 -0.0032
19122TIP3   OH278856   6.331   2.561   2.941  0.5066  0.3997 -0.2677
19122TIP3    H178857   6.318   2.651   2.912 -0.2128  0.1797 -0.6538
19122TIP3    H278858   6.349   2.513   2.860  1.6251  0.3214  0.0225
19123TIP3   OH278859   6.562   0.182  11.469  0.5021  0.2323  0.4812
19123TIP3    H178860   6.570   0.206  11.561  1.2243 -1.7467  0.9878
19123TIP3    H278861   6.468   0.174  11.454  0.3172  1.6522  0.7004
19124TIP3   OH278862   1.463   6.732   0.937  0.2065  0.3736  0.6021
19124TIP3    H178863   1.492   6.797   1.002 -0.4092  2.3478 -0.9849
19124TIP3    H278864   1.384   6.771   0.899  0.4761 -0.7789 -1.2272
19125TIP3   OH278865   2.997   1.659   3.735 -0.0367 -0.1315 -0.2709
19125TIP3    H178866   3.068   1.723   3.743 -2.0118  2.2938 -0.9435
19125TIP3    H278867   2.984   1.649   3.641 -0.3609 -0.8590 -0.1614
19126TIP3   OH278868   3.666   1.853   5.235  0.3758  0.0238  0.2252
19126TIP3    H178869   3.575   1.843   5.262  0.3846  3.5686  2.0639
19126TIP3    H278870   3.664   1.841   5.140 -1.8086 -0.8721  0.3242
19127TIP3   OH278871   2.626   2.146  10.757 -0.1394 -0.2675  0.0410
19127TIP3    H178872   2.678   2.222  10.733 -0.7582  0.4396  0.8696
19127TIP3    H278873   2.689   2.075  10.764  0.3210 -0.1025 -1.7817
19128TIP3   OH278874   4.827   5.001   3.388 -0.4666  0.4112 -0.2547
19128TIP3    H178875   4.830   5.082   3.439  1.3489  0.8059 -0.8996
19128TIP3    H278876   4.825   5.031   3.297 -0.5552 -0.2707 -0.4843
19129TIP3   OH278877   5.952   6.082  13.669 -0.1334 -0.5707 -0.2593
19129TIP3    H178878   5.874   6.058  13.619 -0.6380 -0.7298  0.5920
19129TIP3    H278879   5.926   6.160  13.717  0.3425 -0.4393 -0.2094
19130TIP3   OH278880   3.049   5.134  12.088  0.0153 -0.2165 -0.1776
19130TIP3    H178881   3.102   5.055  12.085  0.1474 -0.1452  0.1360
19130TIP3    H278882   2.958   5.103  12.081  0.1347 -0.2390 -2.0446
19131TIP3   OH278883   2.123   1.770   5.490 -0.0725  0.2009 -0.3800
19131TIP3    H178884   2.068   1.826   5.545 -0.8712 -1.5803  0.7036
19131TIP3    H278885   2.087   1.781   5.402 -1.5135 -0.1400  0.1481
19132TIP3   OH278886   1.145   0.913   5.597  0.5912  0.3832 -0.1809
19132TIP3    H178887   1.219   0.917   5.658 -1.3905  2.2526  2.3559
19132TIP3    H278888   1.092   0.840   5.628 -0.1812  1.0225  0.0218
19133TIP3   OH278889   0.542   4.612   3.682 -0.2552  0.0291 -0.9873
19133TIP3    H178890   0.495   4.637   3.603  0.6148  0.2192 -1.4598
19133TIP3    H278891   0.599   4.687   3.701  0.2857 -0.4224 -0.7808
19134TIP3   OH278892   4.631   6.447  15.224 -0.8037  0.1811 -0.2368
19134TIP3    H178893   4.687   6.411  15.293  1.3484  2.4176 -0.6505
19134TIP3    H278894   4.648   6.391  15.148 -0.1081  0.0514  0.0069
19135TIP3   OH278895   2.015   5.558  12.904  0.2923 -0.4410 -0.2087
19135TIP3    H178896   2.099   5.586  12.869  0.6375 -0.4468  0.5964
19135TIP3    H278897   2.007   5.466  12.879  0.0160 -0.1535 -1.2278
19136TIP3   OH278898   0.832   1.331  15.864  0.1566 -0.0736 -0.6154
19136TIP3    H178899   0.907   1.383  15.834 -0.7192  0.5338 -1.7863
19136TIP3    H278900   0.817   1.361  15.954  0.0196  1.2906 -1.0803
19137TIP3   OH278901   1.351   0.775  15.143  0.2733 -0.6094 -0.4652
19137TIP3    H178902   1.397   0.726  15.210 -1.6008 -0.4485  1.0332
19137TIP3    H278903   1.265   0.734  15.137 -0.7206  1.3343 -0.4576
19138TIP3   OH278904   3.768   0.988  15.190 -0.9542  0.5858  0.4713
19138TIP3    H178905   3.697   0.939  15.233  0.7981 -1.2813  1.4139
19138TIP3    H278906   3.729   1.072  15.167 -3.2889 -0.1325  1.5136
19139TIP3   OH278907   5.454   3.319   3.461 -0.0429 -0.3361  0.1363
19139TIP3    H178908   5.386   3.312   3.529 -0.8735  0.6358 -0.5694
19139TIP3    H278909   5.419   3.268   3.388 -0.4955  0.9684 -0.5867
19140TIP3   OH278910   3.645   4.066  11.647 -0.1811  0.6678  0.1947
19140TIP3    H178911   3.689   4.061  11.732 -1.1337  0.2855  0.6738
19140TIP3    H278912   3.712   4.039  11.584 -0.3203 -2.1567  1.1134
19141TIP3   OH278913   5.812   5.667   3.891 -0.3130  0.5591 -0.6015
19141TIP3    H178914   5.898   5.686   3.853 -0.2190  0.5522 -0.3952
19141TIP3    H278915   5.753   5.664   3.816  0.1309 -0.9802 -0.9447
19142TIP3   OH278916   5.835   2.014  14.116 -0.2857  0.0876  0.1404
19142TIP3    H178917   5.784   1.955  14.170  0.1017  1.8554  2.6048
19142TIP3    H278918   5.926   1.997  14.140 -0.1054  0.9514  0.1141
19143TIP3   OH278919   6.717   3.207  14.949  0.4425  0.3399 -0.0084
19143TIP3    H178920   6.711   3.111  14.951  2.0704  0.1968 -0.1365
19143TIP3    H278921   6.655   3.237  15.015 -1.1990 -0.7197 -1.0165
19144TIP3   OH278922   4.107   0.529   3.735  0.5332 -0.2765 -0.3905
19144TIP3    H178923   4.199   0.521   3.759  1.0433 -0.3938 -2.1850
19144TIP3    H278924   4.084   0.442   3.701  0.4384  0.3409 -2.0068
19145TIP3   OH278925   0.986   5.534  13.025 -0.4631 -0.4692  0.1656
19145TIP3    H178926   0.894   5.561  13.031 -0.1923  0.8733 -1.2205
19145TIP3    H278927   1.035   5.616  13.018  0.8770 -1.1628  0.9116
19146TIP3   OH278928   2.865   2.300   1.577 -0.0112 -0.0591 -0.1218
19146TIP3    H178929   2.804   2.373   1.587 -0.2295 -0.0138 -1.6819
19146TIP3    H278930   2.902   2.309   1.489  0.4497 -1.4570 -0.1113
19147TIP3   OH278931   4.261   2.526  16.772  0.2385  0.8076  0.3271
19147TIP3    H178932   4.190   2.583  16.802 -1.1737 -0.4168 -0.5699
19147TIP3    H278933   4.231   2.438  16.791  0.8305  0.1770 -1.5019
19148TIP3   OH278934   3.418   2.807   4.585  0.5211  0.7717  0.3691
19148TIP3    H178935   3.490   2.763   4.540 -0.1396  0.5029 -0.4486
19148TIP3    H278936   3.346   2.743   4.583  0.6947  0.4416  2.4824
19149TIP3   OH278937   4.550   1.515  12.810  1.1958 -0.1693 -0.0561
19149TIP3    H178938   4.577   1.560  12.730  0.4408  2.8035  1.2192
19149TIP3    H278939   4.501   1.581  12.860 -1.5039 -2.9051  1.2914
19150TIP3   OH278940   6.137   4.059  15.520  0.2628 -0.0439 -0.0679
19150TIP3    H178941   6.168   3.981  15.564  0.0413  0.4823  1.0665
19150TIP3    H278942   6.042   4.049  15.518  0.0922  0.9008  1.5410
19151TIP3   OH278943   5.733   1.938  11.046  0.1365 -0.5393  0.5164
19151TIP3    H178944   5.662   1.915  11.106  0.1853  0.7733  1.1061
19151TIP3    H278945   5.801   1.974  11.103  0.7240 -0.5079 -0.1895
19152TIP3   OH278946   0.116   5.606  11.632  0.0802 -0.6234  0.1384
19152TIP3    H178947   0.031   5.571  11.607  0.2212 -0.6849 -0.2719
19152TIP3    H278948   0.165   5.531  11.664  0.0304 -0.6158  0.2305
19153TIP3   OH278949   1.111   3.538   6.041  0.4623  0.7028  0.1854
19153TIP3    H178950   1.120   3.442   6.038 -0.2096  0.6350  0.1668
19153TIP3    H278951   1.198   3.569   6.067  0.9277  0.1392 -0.6055
19154TIP3   OH278952   1.687   4.233  12.281  0.4341  0.5141  0.1048
19154TIP3    H178953   1.749   4.292  12.325  0.4687  1.8467 -1.5931
19154TIP3    H278954   1.742   4.170  12.235  0.5955  1.5001 -1.1349
19155TIP3   OH278955   5.316   4.743   0.737  0.7494  0.5966  0.0098
19155TIP3    H178956   5.260   4.779   0.805 -0.3822  0.9833 -1.1054
19155TIP3    H278957   5.345   4.818   0.686 -0.8152  0.0874 -1.7189
19156TIP3   OH278958   0.666   3.835   1.654  0.5855  0.5193  0.0882
19156TIP3    H178959   0.695   3.745   1.671  0.6566  0.4602 -0.3296
19156TIP3    H278960   0.618   3.860   1.733  0.2095 -0.0354  0.0444
19157TIP3   OH278961   0.405   1.685   5.334 -0.2416 -0.2270 -0.3240
19157TIP3    H178962   0.474   1.634   5.375 -0.4074 -0.1062  0.1152
19157TIP3    H278963   0.420   1.775   5.365 -0.4359 -0.1538 -0.4392
19158TIP3   OH278964   1.936   4.217  15.717 -0.2428 -0.0210 -0.4815
19158TIP3    H178965   1.912   4.309  15.711 -0.5774 -0.0239  0.6127
19158TIP3    H278966   2.030   4.217  15.736 -0.0587  0.0649 -1.3508
19159TIP3   OH278967   5.606   3.878   5.468  0.0230  1.0251 -0.3166
19159TIP3    H178968   5.607   3.825   5.389 -0.3940  1.3607 -0.5499
19159TIP3    H278969   5.524   3.856   5.511  0.2243  0.8807 -0.0016
19160TIP3   OH278970   4.476   3.549   2.887  0.1070 -0.2635 -0.2692
19160TIP3    H178971   4.488   3.526   2.795  1.5769  0.5794 -0.3185
19160TIP3    H278972   4.472   3.645   2.888  1.2832 -0.1852  0.6240
19161TIP3   OH278973   5.218   0.874   1.824 -0.1455 -0.5981  0.2241
19161TIP3    H178974   5.131   0.884   1.861 -0.9689 -0.4842 -1.6052
19161TIP3    H278975   5.210   0.799   1.765  1.4605 -1.6315  1.2309
19162TIP3   OH278976   3.941   3.062   5.064 -0.2310  0.1063 -0.0797
19162TIP3    H178977   3.889   3.052   5.144  2.3614  2.1425  2.0584
19162TIP3    H278978   3.951   3.157   5.054  1.1795 -0.1571 -1.6590
19163TIP3   OH278979   2.038   3.589   0.444 -0.1412  0.1769  0.2937
19163TIP3    H178980   1.951   3.616   0.416 -0.5541  1.6793  2.7549
19163TIP3    H278981   2.098   3.643   0.392 -0.3663 -2.8205 -3.5073
19164TIP3   OH278982   0.421   3.778  12.236 -1.3623  0.4288  0.6386
19164TIP3    H178983   0.407   3.820  12.151  0.3789 -0.2012 -0.0111
19164TIP3    H278984   0.465   3.845  12.289 -0.2717  0.0688  0.2189
19165TIP3   OH278985   6.410   1.795  13.175 -0.3588 -0.2084  0.5638
19165TIP3    H178986   6.414   1.888  13.197 -0.8103 -0.0702  0.0805
19165TIP3    H278987   6.493   1.778  13.130  0.1210 -0.2569  1.4406
19166TIP3   OH278988   2.277   4.434   4.218 -0.2932  0.0593  0.3870
19166TIP3    H178989   2.325   4.508   4.255 -0.3619 -0.3251  1.2620
19166TIP3    H278990   2.198   4.472   4.181  1.3762  0.9729 -2.5982
19167TIP3   OH278991   2.714   5.788  15.629  0.5449 -0.2085  0.0269
19167TIP3    H178992   2.756   5.822  15.708  1.3811 -1.5739  0.1975
19167TIP3    H278993   2.635   5.841  15.619  1.0047  0.7225  1.1450
19168TIP3   OH278994   1.459   3.221  15.047 -0.0704  0.0523  0.2824
19168TIP3    H178995   1.476   3.286  14.979  1.7352 -0.0169  0.6216
19168TIP3    H278996   1.475   3.268  15.129 -3.0217  0.3823  0.7833
19169TIP3   OH278997   4.735   3.008   3.383  0.4163  0.0399  0.7115
19169TIP3    H178998   4.655   3.040   3.423 -0.5072 -0.3227 -0.7827
19169TIP3    H278999   4.745   2.919   3.417  1.4776  0.8552  2.6893
19170TIP3   OH279000   6.573   6.252   3.338 -0.3063  0.0300  0.1819
19170TIP3    H179001   6.615   6.229   3.421  1.9775 -1.4853 -1.2501
19170TIP3    H279002   6.628   6.210   3.272 -1.5903  1.7926 -2.1582
19171TIP3   OH279003   0.832   3.252   3.692 -0.5518  0.2469  0.4504
19171TIP3    H179004   0.924   3.247   3.668 -0.3681  0.6221  1.0516
19171TIP3    H279005   0.832   3.279   3.784 -1.2043 -2.1997  1.2547
19172TIP3   OH279006   6.327   5.720   5.190 -0.1581  0.4993  0.3020
19172TIP3    H179007   6.323   5.640   5.244 -0.5134 -0.0266 -0.4876
19172TIP3    H279008   6.381   5.780   5.241  1.9366 -0.9802 -0.0354
19173TIP3   OH279009   2.584   6.495  11.599  0.3985 -0.7357 -0.8940
19173TIP3    H179010   2.632   6.415  11.621 -1.2200 -1.3775  0.5477
19173TIP3    H279011   2.514   6.499  11.664 -0.1115  1.3874 -1.5037
19174TIP3   OH279012   3.731   3.717  12.973 -0.5532  0.1226 -0.1582
19174TIP3    H179013   3.690   3.803  12.986  0.0419  0.3655  0.1285
19174TIP3    H279014   3.772   3.724  12.886  0.5964  0.5930  0.3937
19175TIP3   OH279015   4.866   4.453   3.687  0.2068 -0.9313  0.1031
19175TIP3    H179016   4.908   4.440   3.772 -1.8354 -3.3260  0.8681
19175TIP3    H279017   4.887   4.374   3.638 -0.7885 -0.7356 -0.6618
19176TIP3   OH279018   2.403   4.041  15.424  0.1628 -0.0767 -0.2384
19176TIP3    H179019   2.479   4.041  15.365  0.1229 -1.4201 -0.3102
19176TIP3    H279020   2.441   4.038  15.512  0.2034 -1.4576 -0.2906
19177TIP3   OH279021   2.181   3.237  12.806  0.4930 -0.3629 -0.1830
19177TIP3    H179022   2.217   3.172  12.866 -0.1539  1.3883  2.2465
19177TIP3    H279023   2.245   3.309  12.807 -0.1107  0.1949 -0.6241
19178TIP3   OH279024   3.847   0.178  11.376 -0.2508  0.2230  0.2871
19178TIP3    H179025   3.880   0.249  11.321  1.4997  0.0043  1.0089
19178TIP3    H279026   3.849   0.101  11.319 -0.7223  0.4384 -0.0358
19179TIP3   OH279027   0.178   5.102  11.843  0.0412 -0.1253 -0.2767
19179TIP3    H179028   0.097   5.057  11.820 -0.5844  0.0569  1.4076
19179TIP3    H279029   0.196   5.075  11.933  2.1086 -0.4982 -0.7363
19180TIP3   OH279030   3.278   5.131  13.472  0.3671 -0.1147  0.1645
19180TIP3    H179031   3.289   5.047  13.516  0.5324  0.1792  0.6929
19180TIP3    H279032   3.188   5.129  13.439 -0.7718  0.7674  2.9777
19181TIP3   OH279033   6.405   0.032  12.740 -0.2260  0.1107  0.0679
19181TIP3    H179034   6.433  -0.059  12.745  0.6747  0.3234 -0.7432
19181TIP3    H279035   6.480   0.082  12.772  1.1583  0.7843 -3.6675
19182TIP3   OH279036   3.054   5.624  16.144 -0.2832  0.0700  0.4657
19182TIP3    H179037   3.131   5.579  16.110 -1.3904 -0.1412 -1.9753
19182TIP3    H279038   2.981   5.565  16.123 -1.4147  1.5525  0.0379
19183TIP3   OH279039   2.471   4.936  14.752 -0.4346 -0.2031  0.3907
19183TIP3    H179040   2.545   4.997  14.750 -1.8046  1.5383  0.7507
19183TIP3    H279041   2.479   4.891  14.836  0.2459 -0.1052  0.3819
19184TIP3   OH279042   4.463   2.138   0.775  0.0407  0.1303 -0.1053
19184TIP3    H179043   4.393   2.187   0.731  1.0834  2.8949  1.0611
19184TIP3    H279044   4.441   2.046   0.761 -1.6301  0.8586 -3.1767
19185TIP3   OH279045   2.903   1.021  12.875 -0.1457  0.1796 -0.5586
19185TIP3    H179046   2.879   0.951  12.813 -2.6384 -0.2184  0.7277
19185TIP3    H279047   2.941   0.974  12.949 -3.0035 -0.0652  0.8682
19186TIP3   OH279048   4.336   1.833   0.855  0.2617 -0.0193 -0.1092
19186TIP3    H179049   4.386   1.751   0.847 -1.6815 -1.3801  0.9232
19186TIP3    H279050   4.269   1.827   0.787 -0.3877  0.3447  0.4914
19187TIP3   OH279051   0.413   6.635  12.699  0.1582  0.2819  0.4395
19187TIP3    H179052   0.359   6.611  12.624  2.0938  0.9801 -1.2753
19187TIP3    H279053   0.369   6.711  12.737 -0.9405 -0.1881  0.1511
19188TIP3   OH279054   3.597   5.753   5.831 -0.4431  0.7175 -0.5155
19188TIP3    H179055   3.655   5.798   5.769  1.4228  0.0707  0.6799
19188TIP3    H279056   3.589   5.813   5.905  0.5500 -0.1114  0.2862
19189TIP3   OH279057   3.030   0.244   1.729 -0.2441 -0.2298 -0.4630
19189TIP3    H179058   3.023   0.338   1.717  1.4361  0.0387  0.4127
19189TIP3    H279059   2.956   0.208   1.680  0.0828  1.4290 -2.2786
19190TIP3   OH279060   0.407   2.647   0.618  0.1344 -0.4281 -0.1277
19190TIP3    H179061   0.409   2.595   0.537  0.6942  2.3246 -1.9925
19190TIP3    H279062   0.313   2.661   0.634 -0.0000 -1.4190  0.0533
19191TIP3   OH279063   0.882   0.668  15.281  0.4431  0.0400  0.1995
19191TIP3    H179064   0.817   0.712  15.336  1.3831  0.3018  1.1674
19191TIP3    H279065   0.868   0.575  15.296  1.2945  0.1138  1.6977
19192TIP3   OH279066   1.232   4.968  11.732 -0.3058 -0.4845 -0.1978
19192TIP3    H179067   1.223   5.028  11.658  1.9654 -0.0601 -0.1819
19192TIP3    H279068   1.290   4.899  11.700  1.4820  0.1946  1.4137
19193TIP3   OH279069   2.299   5.619   4.776  0.1119  0.1666  0.4678
19193TIP3    H179070   2.225   5.559   4.778 -0.0420  0.3836  1.9245
19193TIP3    H279071   2.278   5.680   4.705  0.0772 -1.2164 -0.7542
19194TIP3   OH279072   5.504   1.113   0.666  0.3588  0.3923  0.3227
19194TIP3    H179073   5.570   1.078   0.726 -0.0758  0.0843  0.6280
19194TIP3    H279074   5.424   1.118   0.719 -0.7130 -2.2921 -0.8477
19195TIP3   OH279075   4.342   4.784  14.098  0.4574  0.2475  0.8369
19195TIP3    H179076   4.254   4.747  14.096  0.3477  0.5188  0.4680
19195TIP3    H279077   4.337   4.861  14.041  1.2114 -0.3534 -0.0735
19196TIP3   OH279078   4.566   4.026  12.930 -0.2262  0.4299  0.0266
19196TIP3    H179079   4.600   3.944  12.966 -0.7105 -0.3378 -1.1999
19196TIP3    H279080   4.546   4.079  13.007  2.7863  0.5626  0.8264
19197TIP3   OH279081   3.925   6.288  17.090 -0.5218 -0.1264 -0.4936
19197TIP3    H179082   3.954   6.242  17.169 -1.6223  1.1059  0.6803
19197TIP3    H279083   3.864   6.228  17.048 -0.3245 -0.5962 -0.1099
19198TIP3   OH279084   4.276   6.178   2.831 -0.8343 -0.2373 -0.4032
19198TIP3    H179085   4.312   6.179   2.742 -0.4026  1.1514 -0.2258
19198TIP3    H279086   4.220   6.256   2.835 -0.3050  0.1039  0.7609
19199TIP3   OH279087   6.750   4.651   0.808  0.0112  0.3910  0.1414
19199TIP3    H179088   6.764   4.645   0.902 -0.8528 -0.6363  0.2297
19199TIP3    H279089   6.686   4.582   0.789  1.5516 -0.6841 -1.4757
19200TIP3   OH279090   2.167   0.804  17.181  0.4095  0.2529  0.7032
19200TIP3    H179091   2.161   0.826  17.274  0.9591 -0.6588  0.9661
19200TIP3    H279092   2.238   0.741  17.175  0.1933  0.0774 -0.3045
19201TIP3   OH279093   0.363   0.315   3.553  0.0170 -0.1463 -0.1273
19201TIP3    H179094   0.350   0.331   3.646 -0.3580  1.1933 -0.3886
19201TIP3    H279095   0.446   0.359   3.533 -0.7343  1.0575 -0.7427
19202TIP3   OH279096   5.614   5.088   3.473 -0.2696  0.4850 -0.4846
19202TIP3    H179097   5.565   5.063   3.551  0.6529 -0.9661 -0.3181
19202TIP3    H279098   5.611   5.183   3.471  2.1568  0.8022  2.9975
19203TIP3   OH279099   0.814   1.061   5.610  0.2514  0.2451 -0.0015
19203TIP3    H179100   0.842   1.111   5.687 -1.0250 -0.0968  0.7125
19203TIP3    H279101   0.812   1.126   5.539  2.0659  0.4247  0.0865
19204TIP3   OH279102   6.025   3.567  15.193  0.1807 -0.3638  0.2223
19204TIP3    H179103   6.014   3.547  15.286  0.2965  4.3835  1.5308
19204TIP3    H279104   6.119   3.585  15.184 -0.0248  0.4475 -0.4460
19205TIP3   OH279105   1.679   2.160  15.429 -0.0338 -0.0663  0.0901
19205TIP3    H179106   1.619   2.094  15.463  1.3551 -1.0111  0.8023
19205TIP3    H279107   1.628   2.207  15.363 -1.8941 -0.1014  1.4247
19206TIP3   OH279108   6.436   6.539  15.351 -0.1521  0.1276 -0.0691
19206TIP3    H179109   6.496   6.562  15.422  0.1833 -0.2131 -0.2362
19206TIP3    H279110   6.349   6.553  15.387  0.0266  1.9178 -0.2466
19207TIP3   OH279111   2.996   1.236  12.581 -0.3015  0.4167  0.1465
19207TIP3    H179112   3.081   1.223  12.623 -0.8652 -0.0310  1.2082
19207TIP3    H279113   2.990   1.165  12.517 -0.1013  0.0982  0.4734
19208TIP3   OH279114   6.706   3.740  11.446 -0.2832 -0.1278 -0.1522
19208TIP3    H179115   6.637   3.673  11.445 -0.4440  0.0346 -0.1383
19208TIP3    H279116   6.663   3.817  11.483 -0.2943  0.1876 -0.8039
19209TIP3   OH279117   4.043   2.000  11.836 -0.5528  0.3061  0.1656
19209TIP3    H179118   3.951   2.018  11.818 -0.3224  0.6414 -0.7229
19209TIP3    H279119   4.050   1.904  11.833 -0.7332  0.3119 -0.4829
19210TIP3   OH279120   1.477   6.234  12.694 -0.0740  0.1607 -0.0072
19210TIP3    H179121   1.552   6.276  12.652  0.5213 -1.0496 -0.2302
19210TIP3    H279122   1.478   6.268  12.784  1.3913 -0.5818  0.2947
19211TIP3   OH279123   2.304   4.940  16.781 -0.4466  0.0706  0.3661
19211TIP3    H179124   2.285   4.936  16.688 -0.6683 -0.0177  0.4138
19211TIP3    H279125   2.221   4.968  16.821 -0.3045  0.2748  0.5178
19212TIP3   OH279126   1.785   6.574   4.684 -0.1597  0.7074 -0.1958
19212TIP3    H179127   1.837   6.626   4.623 -0.2523 -0.0818 -0.9734
19212TIP3    H279128   1.807   6.608   4.771 -0.3959  2.1876 -0.6842
19213TIP3   OH279129   3.020   1.568  13.904  0.5553  0.5290  0.2096
19213TIP3    H179130   3.101   1.617  13.889  0.8064 -0.0298 -0.3392
19213TIP3    H279131   2.952   1.620  13.862  0.4321  1.5797  1.6502
19214TIP3   OH279132   1.315   4.536   4.586  0.2696 -0.8521 -0.3462
19214TIP3    H179133   1.299   4.613   4.531 -0.6379 -0.5868  0.2806
19214TIP3    H279134   1.278   4.463   4.536 -1.8565 -0.4222  0.5093
19215TIP3   OH279135   0.467   0.684  13.496 -0.2813 -0.7540  0.2141
19215TIP3    H179136   0.458   0.732  13.413 -0.0266 -0.9788  0.0541
19215TIP3    H279137   0.524   0.740  13.550 -1.6255  0.0971  0.7885
19216TIP3   OH279138   0.098   3.889  16.012  0.0069  0.4736  0.3025
19216TIP3    H179139   0.104   3.965  16.070  0.1378  0.1431  0.7286
19216TIP3    H279140   0.052   3.921  15.934 -0.0735  0.9492  0.5442
19217TIP3   OH279141   1.433   6.803   3.048  0.2126  0.3680 -0.4841
19217TIP3    H179142   1.526   6.792   3.064 -0.4397 -3.4193  1.9149
19217TIP3    H279143   1.418   6.897   3.054  3.5837  0.9380  0.7990
19218TIP3   OH279144   3.403   5.080   6.110 -0.1578  0.1739  0.2107
19218TIP3    H179145   3.331   5.055   6.168  0.2538  0.3019  0.7903
19218TIP3    H279146   3.374   5.162   6.069 -0.2672  0.3139  0.5677
19219TIP3   OH279147   4.839   1.781   4.456  0.5999  0.2935 -0.3057
19219TIP3    H179148   4.823   1.824   4.372  0.6759  0.1349 -0.4030
19219TIP3    H279149   4.842   1.852   4.520 -0.3149  0.3458 -0.3105
19220TIP3   OH279150   3.596   1.510  15.715 -0.3025 -0.5624 -0.0564
19220TIP3    H179151   3.513   1.494  15.669 -0.8572 -1.0836  1.0809
19220TIP3    H279152   3.644   1.570  15.658 -1.3641 -0.4408 -0.8513
19221TIP3   OH279153   4.643   6.211   1.704 -0.5005 -0.0793 -0.0801
19221TIP3    H179154   4.667   6.296   1.667 -0.0855 -0.3483 -0.4443
19221TIP3    H279155   4.653   6.150   1.631  0.3442 -0.6236  0.4793
19222TIP3   OH279156   6.759   3.957  12.114  0.2599  0.8966 -0.1754
19222TIP3    H179157   6.785   3.917  12.197 -0.6486  0.4545 -0.0965
19222TIP3    H279158   6.812   3.911  12.048  0.4656  0.7502  0.0900
19223TIP3   OH279159   2.699   1.694   4.542 -0.1002 -0.0967  0.4619
19223TIP3    H179160   2.613   1.694   4.585 -0.9990  2.5706 -1.0935
19223TIP3    H279161   2.757   1.739   4.604 -0.5780  0.7411  0.3218
19224TIP3   OH279162   3.824   3.251   6.002 -0.1630  0.2858  0.3097
19224TIP3    H179163   3.749   3.237   6.061 -0.8247  0.7032 -0.4127
19224TIP3    H279164   3.786   3.248   5.914  0.5821  1.0635 -0.0490
19225TIP3   OH279165   1.653   5.241   6.060  0.1666  0.3564 -0.3868
19225TIP3    H179166   1.614   5.207   6.141 -0.2430 -0.1675 -0.7902
19225TIP3    H279167   1.715   5.307   6.088 -0.7520  0.9464  0.3085
19226TIP3   OH279168   6.731   6.789   1.246 -0.4440  0.2109 -0.2473
19226TIP3    H179169   6.794   6.845   1.291  0.7039 -0.0200 -1.4847
19226TIP3    H279170   6.769   6.776   1.159 -1.1171 -1.7445 -0.2984
19227TIP3   OH279171   1.796   4.999  13.322 -0.1277 -0.1105  0.0447
19227TIP3    H179172   1.819   4.933  13.256 -2.7159  0.1081 -1.2210
19227TIP3    H279173   1.777   4.949  13.401  0.9765 -0.5747  0.0311
19228TIP3   OH279174   5.344   2.352   0.462 -0.1100 -0.2309  0.2791
19228TIP3    H179175   5.358   2.331   0.555  1.0742  0.9699  0.4059
19228TIP3    H279176   5.257   2.390   0.459 -0.4512 -0.9481  0.7737
19229TIP3   OH279177   6.168   2.741   0.817 -0.0057 -0.4548  0.1003
19229TIP3    H179178   6.224   2.778   0.749  1.3886 -0.8587  0.9914
19229TIP3    H279179   6.140   2.817   0.868 -0.6958 -0.2003 -0.6311
19230TIP3   OH279180   3.317   3.616   1.111 -0.4507 -0.4665 -0.0689
19230TIP3    H179181   3.381   3.623   1.181 -2.0279 -1.6480  1.5671
19230TIP3    H279182   3.355   3.553   1.050  0.6254  0.0463  0.0444
19231TIP3   OH279183   3.216   3.458   4.487  0.5442 -0.6641 -0.7678
19231TIP3    H179184   3.255   3.386   4.536  2.5879 -0.0030 -1.3116
19231TIP3    H279185   3.149   3.417   4.432  1.2684 -2.0546 -0.6461
19232TIP3   OH279186   4.799   4.990  14.157 -0.0696  0.4745  0.4004
19232TIP3    H179187   4.894   4.980  14.164  0.2199  2.6417  0.3533
19232TIP3    H279188   4.779   5.066  14.213 -1.3692  1.7575 -1.6776
19233TIP3   OH279189   2.576   5.346  16.807  0.1972 -0.4757  0.1276
19233TIP3    H179190   2.606   5.256  16.820  0.6806 -0.3285  0.0371
19233TIP3    H279191   2.645   5.388  16.755 -0.6744 -0.4458 -1.0611
19234TIP3   OH279192   2.038   4.008   3.807 -0.3789 -0.0373  0.0962
19234TIP3    H179193   2.074   4.023   3.894 -0.3029 -0.1580  0.0868
19234TIP3    H279194   2.107   4.036   3.747  1.2861 -3.6139  0.0365
19235TIP3   OH279195   3.132   2.772  14.864 -0.6104  0.1841 -0.0587
19235TIP3    H179196   3.134   2.679  14.889  0.6905  0.5599  1.4057
19235TIP3    H279197   3.117   2.771  14.769 -0.2771 -1.5411 -0.1289
19236TIP3   OH279198   1.682   0.063   3.153  0.0332  0.1743  0.2346
19236TIP3    H179199   1.745   0.009   3.201  1.6590  2.2639  0.5806
19236TIP3    H279200   1.655   0.130   3.216 -1.0358  0.4726 -0.5149
19237TIP3   OH279201   5.127   1.854   2.968 -0.2389 -0.3673  0.0399
19237TIP3    H179202   5.219   1.842   2.942 -0.3517 -0.6110 -0.2587
19237TIP3    H279203   5.086   1.894   2.892 -0.3873 -0.2836  0.1644
19238TIP3   OH279204   0.608   4.513   0.394 -0.1179  0.0623 -0.0691
19238TIP3    H179205   0.650   4.452   0.454 -0.5337  0.6747  0.8547
19238TIP3    H279206   0.650   4.597   0.411 -0.0978  0.2064 -0.7846
19239TIP3   OH279207   4.926   6.662   0.410 -0.0677  0.1816 -0.4827
19239TIP3    H179208   4.991   6.640   0.344 -1.0290 -0.1631 -1.3420
19239TIP3    H279209   4.972   6.652   0.493  0.6935 -1.0492 -1.0188
19240TIP3   OH279210   0.646   0.964  10.800  0.1125 -0.7899  0.2492
19240TIP3    H179211   0.638   0.869  10.809 -0.8089 -0.6971  0.5562
19240TIP3    H279212   0.681   0.978  10.712 -1.4740 -1.3645 -0.5068
19241TIP3   OH279213   0.121   5.131   4.072 -0.0877 -0.1365  0.3290
19241TIP3    H179214   0.180   5.138   4.147 -1.0957 -2.5339  1.4377
19241TIP3    H279215   0.100   5.038   4.067 -2.4809  0.4026 -1.0379
19242TIP3   OH279216   5.986   5.038   4.107  0.3568  0.5480 -0.3257
19242TIP3    H179217   5.935   5.017   4.029 -1.8466 -0.3228  1.2428
19242TIP3    H279218   5.990   5.134   4.108  0.5032  0.5628 -1.5388
19243TIP3   OH279219   0.141   4.132  12.703  0.1319 -0.6517 -0.5243
19243TIP3    H179220   0.074   4.072  12.735 -0.7388  0.6536  0.2074
19243TIP3    H279221   0.098   4.180  12.631  0.4535 -0.1927 -0.4165
19244TIP3   OH279222   2.070   4.943  16.297  0.1680 -0.6744 -0.3743
19244TIP3    H179223   2.008   5.015  16.289  1.0302 -0.1056 -3.7140
19244TIP3    H279224   2.015   4.864  16.296 -0.6745 -0.1543  1.3419
19245TIP3   OH279225   1.951   1.110  12.113  0.5201  0.1852  0.3528
19245TIP3    H179226   2.008   1.167  12.165  1.2951 -0.9781  0.8172
19245TIP3    H279227   1.876   1.093  12.171  0.2240  0.8168  0.1642
19246TIP3   OH279228   1.662   2.710   2.027  0.5036  0.1403 -0.1514
19246TIP3    H179229   1.617   2.746   1.951  1.6715 -0.6141 -1.2411
19246TIP3    H279230   1.658   2.615   2.015  1.1358  0.0246  0.4784
19247TIP3   OH279231   6.441   3.676   4.995  0.2176  0.3844 -0.2800
19247TIP3    H179232   6.388   3.611   5.041  0.0289  0.2873 -0.6291
19247TIP3    H279233   6.484   3.726   5.064  0.8262 -0.4874 -0.0048
19248TIP3   OH279234   4.335   3.673   4.008 -0.2356  0.2322 -0.5716
19248TIP3    H179235   4.390   3.699   4.082  0.4349  0.8321 -1.2743
19248TIP3    H279236   4.247   3.703   4.032 -0.7444 -2.4625  1.4739
19249TIP3   OH279237   2.003   3.237   2.905  0.1302 -0.2283  0.2397
19249TIP3    H179238   2.087   3.242   2.860 -0.6939  1.2740 -1.2267
19249TIP3    H279239   1.943   3.202   2.839 -1.0502  1.7333  0.2088
19250TIP3   OH279240   5.208   3.744  16.360 -0.0334  0.0519  0.3447
19250TIP3    H179241   5.242   3.817  16.309 -2.8258  0.2239 -1.4312
19250TIP3    H279242   5.223   3.667  16.305 -2.1183  0.1029 -0.3864
19251TIP3   OH279243   6.269   4.288  17.016 -0.1205 -0.2038  0.3578
19251TIP3    H179244   6.308   4.275  17.102 -0.5530 -1.0219  0.4417
19251TIP3    H279245   6.195   4.227  17.014  0.2458 -0.6346 -0.8092
19252TIP3   OH279246   5.079   1.059  12.376 -0.4810 -0.1418  0.4537
19252TIP3    H179247   4.995   1.042  12.419 -1.1234 -0.1351 -0.7658
19252TIP3    H279248   5.140   0.999  12.419 -1.3997 -1.1023  0.4549
19253TIP3   OH279249   6.538   5.263  16.583  0.4838 -0.4481  0.5534
19253TIP3    H179250   6.557   5.179  16.623  0.2708 -0.3436  0.8853
19253TIP3    H279251   6.516   5.242  16.492  0.7723 -0.7095  0.5432
19254TIP3   OH279252   4.989   1.871  16.645 -0.0545  0.3832  0.0564
19254TIP3    H179253   5.066   1.926  16.656 -1.5301  2.4530  0.6489
19254TIP3    H279254   4.967   1.842  16.733 -0.9828  1.3017  0.1347
19255TIP3   OH279255   5.328   5.819   6.289 -0.3193 -0.2585 -0.0413
19255TIP3    H179256   5.351   5.911   6.299  0.7466 -0.3154 -1.6376
19255TIP3    H279257   5.379   5.773   6.356  0.9601  0.0729 -0.7786
19256TIP3   OH279258   2.119   6.113  11.514 -0.2469  0.2941  0.0232
19256TIP3    H179259   2.074   6.072  11.588 -1.7812 -0.3518 -1.2166
19256TIP3    H279260   2.211   6.089  11.526 -0.9220 -2.7338 -0.0689
19257TIP3   OH279261   4.256   4.172  16.452 -0.1585  0.1293  0.3177
19257TIP3    H179262   4.273   4.119  16.530  1.7193  0.1067 -0.0518
19257TIP3    H279263   4.246   4.108  16.381  0.4631  0.1991  0.1588
19258TIP3   OH279264   1.679   2.424   1.310 -0.1549 -0.1743  0.1538
19258TIP3    H179265   1.714   2.512   1.293 -1.3102  0.3331  0.2236
19258TIP3    H279266   1.584   2.437   1.310 -0.3356 -1.3997  0.3718
19259TIP3   OH279267   5.144   4.262  16.032 -0.2698 -0.1121  0.0503
19259TIP3    H179268   5.049   4.262  16.045 -0.7637  0.7071 -2.8084
19259TIP3    H279269   5.180   4.231  16.115 -2.8342  2.8048  2.4986
19260TIP3   OH279270   0.823   1.360   6.260 -0.5848  0.4405  0.4613
19260TIP3    H179271   0.840   1.281   6.311 -0.1180 -0.9413 -1.7188
19260TIP3    H279272   0.735   1.349   6.226 -0.7065  1.1061  0.5407
19261TIP3   OH279273   2.568   2.804   0.692 -0.0331  0.1964 -0.2974
19261TIP3    H179274   2.664   2.799   0.690  0.1530  2.8884 -1.0589
19261TIP3    H279275   2.540   2.737   0.629  1.3103 -0.7697  0.0847
19262TIP3   OH279276   4.258   5.459  12.204  0.0825  0.2347 -0.6406
19262TIP3    H179277   4.353   5.454  12.218 -0.2836 -0.9711  2.0152
19262TIP3    H279278   4.226   5.514  12.275 -1.1153  1.9322 -2.4064
19263TIP3   OH279279   1.944   3.829  14.229 -0.2381  0.5009 -0.2155
19263TIP3    H179280   1.946   3.757  14.291  0.0916  1.0202  0.3926
19263TIP3    H279281   1.950   3.788  14.143  3.3595 -0.0945  0.1727
19264TIP3   OH279282   2.981   1.703  12.786  0.3961 -0.1908  0.4713
19264TIP3    H179283   3.053   1.714  12.848  1.2818 -2.3913 -0.0611
19264TIP3    H279284   3.009   1.631  12.729 -1.4190  0.1556 -0.9762
19265TIP3   OH279285   3.988   4.793   3.632 -0.1557 -0.2097 -0.9469
19265TIP3    H179286   4.053   4.832   3.691 -0.7960 -0.2675 -0.1876
19265TIP3    H279287   3.906   4.837   3.654 -0.6155 -1.0079 -1.0253
19266TIP3   OH279288   6.073   5.310   4.114  0.0090  0.2283 -0.1593
19266TIP3    H179289   6.027   5.329   4.033 -0.7235  0.0457  0.2042
19266TIP3    H279290   6.058   5.386   4.170  0.3360  0.2656 -0.1197
19267TIP3   OH279291   2.580   3.422  11.380  0.2664 -0.8539 -0.2384
19267TIP3    H179292   2.603   3.504  11.424  1.1751 -1.1117 -0.2087
19267TIP3    H279293   2.605   3.437  11.288  0.1157 -0.9727 -0.2978
19268TIP3   OH279294   6.800   0.673   2.619 -0.5127  0.4817  0.5212
19268TIP3    H179295   6.875   0.729   2.596 -0.4332  0.7112  1.3143
19268TIP3    H279296   6.789   0.686   2.713 -1.1069 -0.1013  0.5332
19269TIP3   OH279297   1.127   0.956  11.243 -0.8669  0.3703 -0.1544
19269TIP3    H179298   1.197   0.913  11.291 -0.5971  0.5166 -0.4116
19269TIP3    H279299   1.047   0.928  11.287 -0.5290  2.5655  2.0923
19270TIP3   OH279300   6.142   4.262  10.481  0.1875  0.0072 -0.1439
19270TIP3    H179301   6.175   4.304  10.560 -0.6395  0.6890 -0.1504
19270TIP3    H279302   6.202   4.189  10.466 -0.2709 -0.8082  1.7261
19271TIP3   OH279303   5.686   4.432  16.171 -0.2325  0.2102 -0.1698
19271TIP3    H179304   5.691   4.493  16.097  0.6001  2.4137  1.6096
19271TIP3    H279305   5.756   4.368  16.154 -0.0490  0.6764 -1.2690
19272TIP3   OH279306   0.813   2.869  12.731 -0.0804 -0.2555  0.4352
19272TIP3    H179307   0.779   2.787  12.768  0.2530 -0.3912  0.4414
19272TIP3    H279308   0.736   2.925  12.723 -0.5593 -1.0663 -0.8935
19273TIP3   OH279309   3.248   2.472   1.438  0.4441  0.2069 -0.5082
19273TIP3    H179310   3.306   2.397   1.427  1.6956  0.8795  1.1520
19273TIP3    H279311   3.298   2.534   1.491 -1.7167  0.9214  0.8160
19274TIP3   OH279312   1.003   0.569  14.032  0.2623  1.0103 -0.4280
19274TIP3    H179313   1.068   0.500  14.018 -0.7096 -0.0155 -0.0051
19274TIP3    H279314   0.963   0.581  13.946 -0.1833  0.3936 -0.3154
19275TIP3   OH279315   4.332   3.364  16.183  0.0556  0.3568 -0.0738
19275TIP3    H179316   4.294   3.448  16.161 -1.2424  0.1457  1.2043
19275TIP3    H279317   4.321   3.310  16.105  0.8563  1.3264 -0.8801
19276TIP3   OH279318   5.103   2.153   1.874  0.7822 -0.4694  0.0149
19276TIP3    H179319   5.015   2.188   1.884  0.0462 -1.7388 -1.5452
19276TIP3    H279320   5.144   2.164   1.960 -1.2248 -0.7475  1.0625
19277TIP3   OH279321   3.778   4.555  13.236 -0.4650 -0.0752  0.5950
19277TIP3    H179322   3.751   4.469  13.201 -1.7332  1.8347 -3.8515
19277TIP3    H279323   3.873   4.555  13.227 -0.1053 -1.8454  3.2404
19278TIP3   OH279324   5.812   0.069  11.187  0.1362 -0.9786 -0.1820
19278TIP3    H179325   5.794   0.073  11.093 -0.0348  2.0150 -0.1115
19278TIP3    H279326   5.731   0.037  11.226 -1.0363  0.9674 -0.8556
19279TIP3   OH279327   5.116   4.993  16.959  0.1290 -0.6331 -0.7062
19279TIP3    H179328   5.049   4.946  17.010 -0.8837  0.2768 -1.1483
19279TIP3    H279329   5.080   5.081  16.950  1.0105 -0.3666 -1.6928
19280TIP3   OH279330   5.834   3.411  14.258 -0.3346 -0.1013  0.7547
19280TIP3    H179331   5.852   3.486  14.201 -0.4891 -0.2334  0.5312
19280TIP3    H279332   5.897   3.420  14.330  2.2565 -1.7636 -1.1210
19281TIP3   OH279333   2.415   6.070   5.129  0.9126  0.6048 -0.1008
19281TIP3    H179334   2.402   6.052   5.036 -0.9478 -0.7998  0.3737
19281TIP3    H279335   2.456   5.990   5.164 -2.1254 -0.6158  0.9688
19282TIP3   OH279336   5.918   1.246  14.517 -0.1837 -0.1784 -0.1506
19282TIP3    H179337   5.930   1.191  14.439  0.9405 -0.0262 -0.1103
19282TIP3    H279338   5.973   1.322  14.500  0.2403 -0.2418  0.8724
19283TIP3   OH279339   1.972   2.738  13.846 -0.2871  0.3146  0.4895
19283TIP3    H179340   1.905   2.701  13.904  0.4753  0.9232  1.8111
19283TIP3    H279341   1.945   2.829  13.833 -0.9579 -0.0459 -0.9397
19284TIP3   OH279342   6.225   1.706   3.302  0.1064  0.0337 -0.5700
19284TIP3    H179343   6.184   1.620   3.305  1.6201 -0.7016  1.9650
19284TIP3    H279344   6.272   1.714   3.385  0.7966  2.9395 -1.0998
19285TIP3   OH279345   6.275   5.901  14.232  0.3284  0.6577 -0.7118
19285TIP3    H179346   6.314   5.944  14.308 -0.4269  1.2883 -0.6779
19285TIP3    H279347   6.190   5.944  14.221 -0.5776 -1.0101 -0.5045
19286TIP3   OH279348   0.326   2.681  15.592  0.3967  0.0666 -0.6680
19286TIP3    H179349   0.390   2.693  15.522 -0.3028 -1.3510 -1.5959
19286TIP3    H279350   0.293   2.592  15.579  0.7531 -0.5148  1.8934
19287TIP3   OH279351   5.120   5.077   3.179  0.1143  0.7696  0.4792
19287TIP3    H179352   5.197   5.083   3.122  0.0788  1.6192  0.4990
19287TIP3    H279353   5.148   5.019   3.250  0.4890  0.4883  0.1109
19288TIP3   OH279354   3.706   1.145  13.305 -0.2528 -0.1985  0.2112
19288TIP3    H179355   3.657   1.093  13.369 -0.7712  1.0664  0.8811
19288TIP3    H279356   3.653   1.143  13.226 -0.6631 -0.0580  0.4785
19289TIP3   OH279357   5.758   2.579  17.161  0.1148 -0.3365  0.5147
19289TIP3    H179358   5.846   2.599  17.128  0.6856 -0.1965  2.0295
19289TIP3    H279359   5.722   2.516  17.098  1.4822 -0.7575  0.1216
19290TIP3   OH279360   4.133   3.381   0.192 -0.6701  0.2280  0.0744
19290TIP3    H179361   4.136   3.304   0.249  0.6257 -2.0895 -2.8332
19290TIP3    H279362   4.174   3.352   0.111 -2.1142  3.3720 -1.9784
19291TIP3   OH279363   4.771   6.538  11.834 -0.5623  0.3742 -0.0950
19291TIP3    H179364   4.677   6.533  11.847 -0.5093  1.4185  0.8299
19291TIP3    H279365   4.794   6.629  11.856  0.9018 -0.3254  1.4554
19292TIP3   OH279366   1.018   0.714  12.695  0.4967 -0.0357 -0.0587
19292TIP3    H179367   0.978   0.726  12.609  0.5531 -0.3557 -0.1306
19292TIP3    H279368   0.950   0.741  12.757 -0.6214 -2.5042 -0.0979
19293TIP3   OH279369   3.645   2.273  16.375 -0.1752  0.1783 -0.3434
19293TIP3    H179370   3.674   2.196  16.425  1.1304  1.0090  0.2366
19293TIP3    H279371   3.553   2.284  16.400 -0.0325 -0.4563  0.5263
19294TIP3   OH279372   1.893   0.731   3.002 -0.0264  0.1079 -0.0054
19294TIP3    H179373   1.928   0.643   3.019  0.8424  0.4803  0.1942
19294TIP3    H279374   1.807   0.715   2.964  0.6394 -0.8639 -1.1935
19295TIP3   OH279375   0.191   5.296  16.789  0.7453 -0.0160  0.3256
19295TIP3    H179376   0.207   5.204  16.811  2.1162  0.0249 -0.3931
19295TIP3    H279377   0.151   5.293  16.702  1.0964  0.0802  0.1600
19296TIP3   OH279378   5.192   3.993   6.900 -0.3057 -0.7650  0.3051
19296TIP3    H179379   5.277   4.001   6.857  0.6863 -3.5076  1.5025
19296TIP3    H279380   5.132   3.963   6.831 -0.4042  1.2682 -0.5637
19297TIP3   OH279381   5.114   6.763  16.118  0.1448  0.2366 -0.6943
19297TIP3    H179382   5.129   6.815  16.197 -0.5462 -0.2122 -0.2657
19297TIP3    H279383   5.131   6.824  16.046  1.1816  0.5415 -0.2188
19298TIP3   OH279384   4.665   0.838   3.923  0.5711  0.0541  0.1053
19298TIP3    H179385   4.677   0.840   4.018 -0.3342  1.6443  0.2203
19298TIP3    H279386   4.572   0.823   3.910  0.5325  0.7343 -0.4987
19299TIP3   OH279387   0.428   5.750   0.489  0.1704  0.1149  0.3246
19299TIP3    H179388   0.341   5.753   0.528  0.3083 -0.3929  0.6739
19299TIP3    H279389   0.447   5.841   0.465 -1.0362  0.0393 -1.0635
19300TIP3   OH279390   1.190   3.221  13.634  0.2258 -0.4386 -0.0314
19300TIP3    H179391   1.245   3.299  13.644  0.2280 -0.4025 -0.2982
19300TIP3    H279392   1.106   3.254  13.603  0.3955 -0.5849 -0.6657
19301TIP3   OH279393   1.157   4.204   5.677 -0.4176  0.2401  0.1178
19301TIP3    H179394   1.222   4.253   5.728  0.7534 -1.4432  0.3064
19301TIP3    H279395   1.151   4.253   5.595  1.6139  0.0955 -0.1759
19302TIP3   OH279396   2.197   1.180  15.079 -0.0600  0.7734  0.0984
19302TIP3    H179397   2.245   1.099  15.098 -0.0752  0.8453  0.4522
19302TIP3    H279398   2.265   1.244  15.058  0.0853  1.1767  1.7131
19303TIP3   OH279399   0.154   1.368  11.579  0.4932 -0.5718 -0.0925
19303TIP3    H179400   0.228   1.312  11.601  0.0170 -0.4735  1.9152
19303TIP3    H279401   0.140   1.354  11.485  1.0492 -2.9958  0.1268
19304TIP3   OH279402   1.338   2.285  11.193 -0.1260 -0.3587 -0.4994
19304TIP3    H179403   1.375   2.299  11.105  0.8914  0.2420  0.0003
19304TIP3    H279404   1.385   2.348  11.248 -2.2429  0.7717  0.1121
19305TIP3   OH279405   4.559   0.243   3.811  0.0392 -0.1495  0.2094
19305TIP3    H179406   4.573   0.231   3.905 -2.7208  1.0072  0.8882
19305TIP3    H279407   4.592   0.331   3.792 -0.3582  0.0304  0.3445
19306TIP3   OH279408   4.213   0.582   0.130  0.3283  0.3200  0.1586
19306TIP3    H179409   4.269   0.571   0.206 -1.4547 -0.8417  1.3888
19306TIP3    H279410   4.176   0.495   0.114 -0.8223  0.9472 -0.7997
19307TIP3   OH279411   6.399   2.739  14.641  0.1797 -0.9703  0.4329
19307TIP3    H179412   6.404   2.710  14.732  0.6906 -1.3920  0.2814
19307TIP3    H279413   6.408   2.658  14.590 -0.3078 -0.7605  0.0106
19308TIP3   OH279414   0.710   0.129   6.222  0.1435  0.4442 -0.2296
19308TIP3    H179415   0.771   0.201   6.205 -0.2898  0.8230 -0.1897
19308TIP3    H279416   0.737   0.095   6.308  1.5440 -0.6733 -1.0590
19309TIP3   OH279417   1.121   5.466  14.327  0.2612 -0.3762  0.5970
19309TIP3    H179418   1.121   5.459  14.231  1.2111 -0.6491  0.6031
19309TIP3    H279419   1.115   5.375  14.357  1.3178 -0.3965  0.7782
19310TIP3   OH279420   4.095   1.749   6.227 -0.7709 -0.1351 -0.2817
19310TIP3    H179421   4.182   1.736   6.265 -0.9375 -1.9901 -0.4388
19310TIP3    H279422   4.055   1.662   6.228 -2.1878  0.4592 -1.2932
19311TIP3   OH279423   0.827   2.670   1.083  0.4424 -0.0977 -0.0322
19311TIP3    H179424   0.734   2.647   1.091  0.6552 -0.5557  1.6488
19311TIP3    H279425   0.836   2.704   0.994 -1.9685  2.7882  0.6327
19312TIP3   OH279426   5.973   6.027   0.978 -0.1844  0.0203 -0.6521
19312TIP3    H179427   6.012   6.093   1.037 -0.9423 -0.5761  0.5556
19312TIP3    H279428   5.879   6.044   0.982 -0.4470 -1.4430  0.1070
19313TIP3   OH279429   5.943   6.291   3.696 -0.0144  0.9140  0.1369
19313TIP3    H179430   5.851   6.274   3.678  0.8109 -2.1732 -1.9861
19313TIP3    H279431   5.962   6.241   3.776 -0.0525  1.0897  0.2563
19314TIP3   OH279432   0.408   2.865  12.284 -0.2344  0.8325  0.2514
19314TIP3    H179433   0.477   2.805  12.312  0.2012  0.1712 -2.0024
19314TIP3    H279434   0.327   2.815  12.294 -0.1337  0.7515  0.6696
19315TIP3   OH279435   3.212   2.443   1.804  0.7482 -0.3467  0.1716
19315TIP3    H179436   3.305   2.458   1.788  0.9688 -2.3236 -0.7855
19315TIP3    H279437   3.192   2.364   1.753 -2.0499  1.4044 -1.7335
19316TIP3   OH279438   1.065   0.188  14.911 -0.0443  0.6638  0.2970
19316TIP3    H179439   1.009   0.238  14.970  0.6206  2.3662 -0.4685
19316TIP3    H279440   1.116   0.254  14.863  1.5242 -0.7696 -0.1142
19317TIP3   OH279441   5.544   2.576  11.029  0.0996 -0.5944  0.4062
19317TIP3    H179442   5.579   2.495  10.992 -0.8353 -0.5963 -0.5423
19317TIP3    H279443   5.450   2.572  11.009 -0.0144  0.5605  0.6591
19318TIP3   OH279444   3.161   5.324  15.852  0.0547  0.1099 -0.7541
19318TIP3    H179445   3.168   5.311  15.757 -0.5911  0.1747 -0.8160
19318TIP3    H279446   3.083   5.379  15.863 -1.8695 -2.5545  0.0131
19319TIP3   OH279447   1.262   2.757  15.175 -0.1883  0.5154  0.3819
19319TIP3    H179448   1.179   2.709  15.171  1.0583 -1.9446  1.2921
19319TIP3    H279449   1.323   2.703  15.124  0.2946  3.8121 -2.8993
19320TIP3   OH279450   3.933   1.645   5.137  0.1076  0.2628 -0.0323
19320TIP3    H179451   3.848   1.600   5.138 -0.4476  1.2946  1.3451
19320TIP3    H279452   3.996   1.576   5.157 -0.7368  0.0120  2.0772
19321TIP3   OH279453   4.250   0.803  15.640 -0.5386 -0.1758 -0.0898
19321TIP3    H179454   4.168   0.809  15.591 -1.5780 -1.9181  1.3255
19321TIP3    H279455   4.277   0.894  15.653 -2.6428  0.4864  0.0288
19322TIP3   OH279456   0.844   3.792   2.797  0.0943 -0.4113  0.6201
19322TIP3    H179457   0.901   3.780   2.721  0.1706  1.0422  0.4069
19322TIP3    H279458   0.778   3.724   2.788  1.8262 -2.2098  0.9481
19323TIP3   OH279459   2.935   3.823   0.574 -0.3948 -0.2055  0.1092
19323TIP3    H179460   2.985   3.756   0.620  2.9186  1.0497 -1.3350
19323TIP3    H279461   2.951   3.903   0.622  0.4799  0.5283 -1.3261
19324TIP3   OH279462   0.605   0.949  17.186 -0.2038  0.3923 -0.1489
19324TIP3    H179463   0.560   1.021  17.143  1.4691  0.9387 -1.0719
19324TIP3    H279464   0.675   0.925  17.126  0.3390 -0.8521  0.9329
19325TIP3   OH279465   3.799   2.901   4.887 -0.1345  0.4587  0.3330
19325TIP3    H179466   3.836   2.925   4.972 -2.1589 -0.1614  1.4472
19325TIP3    H279467   3.738   2.972   4.866 -0.7604 -0.1206  0.1375
19326TIP3   OH279468   1.401   3.523   3.139  0.1439 -0.3597  0.2265
19326TIP3    H179469   1.317   3.542   3.181 -1.2189 -2.1667 -1.4945
19326TIP3    H279470   1.460   3.592   3.171 -1.9913  1.0267  1.4249
19327TIP3   OH279471   4.843   1.505   3.061  0.3877  0.6556 -0.5315
19327TIP3    H179472   4.877   1.591   3.034 -1.2748  1.0486 -1.5480
19327TIP3    H279473   4.785   1.525   3.134  1.2120  0.1653  0.2804
19328TIP3   OH279474   4.030   5.973  15.239 -0.4034 -0.6086  0.0425
19328TIP3    H179475   4.104   5.920  15.268  0.3258  0.4291  0.1375
19328TIP3    H279476   4.029   6.047  15.299  2.2426  2.5668 -3.3428
19329TIP3   OH279477   6.603   1.861   1.866 -0.0923 -0.1057  0.1043
19329TIP3    H179478   6.608   1.805   1.943  1.5365 -0.2909 -0.1005
19329TIP3    H279479   6.612   1.950   1.901 -0.1780 -0.1361  0.2046
19330TIP3   OH279480   0.113   6.769   2.782  0.5256 -0.4628  0.2547
19330TIP3    H179481   0.115   6.835   2.851  0.3316 -0.9666  0.7518
19330TIP3    H279482   0.035   6.791   2.730  0.0141 -0.7622  0.8852
19331TIP3   OH279483   4.873   6.612   5.039 -0.0061 -0.2248  0.3347
19331TIP3    H179484   4.783   6.610   5.007  0.0110 -2.6190  0.2302
19331TIP3    H279485   4.927   6.606   4.961  0.1155 -2.0822  0.5012
19332TIP3   OH279486   5.929   5.401   3.907  0.4307  0.3213  0.3300
19332TIP3    H179487   5.918   5.347   3.829  1.7178 -0.1866  0.4806
19332TIP3    H279488   5.878   5.480   3.889 -0.6570 -0.5025 -0.3162
19333TIP3   OH279489   3.837   5.382   1.678  0.0515 -0.9316 -0.0915
19333TIP3    H179490   3.790   5.300   1.664 -0.4644 -0.9214  1.3581
19333TIP3    H279491   3.916   5.356   1.725 -0.9230 -0.4922  1.9222
19334TIP3   OH279492   3.038   5.174  12.870 -0.1320 -0.1752  0.2655
19334TIP3    H179493   3.050   5.240  12.802  1.4391 -0.5548  0.1236
19334TIP3    H279494   3.057   5.220  12.952  2.1743 -0.6556  0.0788
19335TIP3   OH279495   0.054   4.189  14.349 -0.3759 -0.6292 -0.7264
19335TIP3    H179496   0.121   4.126  14.322 -1.6806 -1.9220 -1.1151
19335TIP3    H279497   0.054   4.185  14.445  0.3123 -0.3825 -0.7144
19336TIP3   OH279498   2.344   2.114  15.301  0.3635  0.1245 -0.3780
19336TIP3    H179499   2.406   2.042  15.312  0.5918  0.2543 -0.7797
19336TIP3    H279500   2.302   2.124  15.386  0.0078 -0.7799 -0.4325
19337TIP3   OH279501   0.581   4.219   4.530 -0.0686 -0.3769 -0.4190
19337TIP3    H179502   0.607   4.129   4.548  0.9691 -0.2082 -0.9829
19337TIP3    H279503   0.614   4.268   4.605 -1.1161 -0.5379  0.1540
19338TIP3   OH279504   0.666   2.381   0.322  0.3221 -0.1428 -0.0438
19338TIP3    H179505   0.650   2.293   0.289  0.4854 -0.5850  1.0292
19338TIP3    H279506   0.716   2.424   0.253 -1.2393 -0.3064 -1.3497
19339TIP3   OH279507   5.305   1.328   2.140  0.6019  0.6125  0.2974
19339TIP3    H179508   5.312   1.415   2.102  1.8298 -0.5775 -2.4663
19339TIP3    H279509   5.291   1.270   2.065 -0.5662 -1.5675  2.0654
19340TIP3   OH279510   6.087   0.948  11.045 -0.0295  0.1443 -0.7929
19340TIP3    H179511   6.042   0.993  10.973 -1.7278  0.7304  0.5707
19340TIP3    H279512   6.020   0.935  11.111  0.7560 -3.0403 -0.4464
19341TIP3   OH279513   1.869   4.204  16.027  0.3276 -0.1464 -0.2270
19341TIP3    H179514   1.849   4.213  16.120 -2.0744 -0.3553 -0.6708
19341TIP3    H279515   1.813   4.268  15.984  0.4050 -0.9919 -1.6497
19342TIP3   OH279516   0.037   0.377  12.528  0.3238 -0.5705 -0.3940
19342TIP3    H179517   0.014   0.463  12.494  1.5899  0.7377  1.8530
19342TIP3    H279518  -0.046   0.331  12.537 -0.2878  0.0072 -2.4945
19343TIP3   OH279519   4.324   1.968   0.526 -0.3067  0.0540 -0.2557
19343TIP3    H179520   4.395   1.907   0.544 -0.1037  0.3675  0.0311
19343TIP3    H279521   4.247   1.928   0.565 -0.4601 -0.6763 -1.2698
19344TIP3   OH279522   2.545   2.465  14.001 -0.5339  0.7653 -0.1779
19344TIP3    H179523   2.623   2.496  14.047 -0.0974  1.8640 -1.5853
19344TIP3    H279524   2.477   2.465  14.068  0.9691 -1.9140  1.5384
19345TIP3   OH279525   4.878   4.495   3.120  0.4202 -0.4547 -0.4406
19345TIP3    H179526   4.972   4.501   3.104  0.8150 -0.4720  1.5426
19345TIP3    H279527   4.871   4.481   3.215 -1.6656  2.4905 -0.0344
19346TIP3   OH279528   2.206   4.216  11.812 -0.2989 -0.5802 -0.3657
19346TIP3    H179529   2.118   4.203  11.848 -0.0658 -0.0173  0.4506
19346TIP3    H279530   2.263   4.169  11.873 -0.0999 -1.6683 -1.3703
19347TIP3   OH279531   1.406   6.119  16.526 -0.3207 -0.4787 -0.0593
19347TIP3    H179532   1.370   6.052  16.468  1.5889 -1.3234 -0.3268
19347TIP3    H279533   1.413   6.076  16.611  0.3339 -0.4323 -0.0870
19348TIP3   OH279534   2.285   5.661  15.044  0.4786 -0.2579 -0.1409
19348TIP3    H179535   2.318   5.698  15.126  0.0735  0.8321 -0.4524
19348TIP3    H279536   2.262   5.571  15.066 -1.0602  0.4381  1.3624
19349TIP3   OH279537   0.829   2.054  11.678  0.6354  0.2308  0.2384
19349TIP3    H179538   0.879   2.114  11.621 -2.2096  0.0757 -2.6857
19349TIP3    H279539   0.819   1.975  11.626 -0.9524 -0.4693  1.5406
19350TIP3   OH279540   0.755   2.103  13.150  0.0766  0.0598 -0.7106
19350TIP3    H179541   0.822   2.047  13.112  0.8630  0.0348  0.6455
19350TIP3    H279542   0.749   2.075  13.241 -1.1407  0.6717 -0.5710
19351TIP3   OH279543   3.561   0.376   5.399 -0.2275 -0.2483 -0.1172
19351TIP3    H179544   3.600   0.296   5.364 -0.4531 -0.4502  0.0840
19351TIP3    H279545   3.475   0.380   5.357  0.6110  1.0674 -1.8389
19352TIP3   OH279546   4.947   1.021   3.406 -0.2653 -0.0031 -0.8043
19352TIP3    H179547   4.943   1.068   3.323 -0.8429  0.3108 -0.6059
19352TIP3    H279548   4.950   0.928   3.380 -1.6987  0.0293 -1.1785
19353TIP3   OH279549   3.984   0.168  16.810 -0.2420 -0.1556 -0.0058
19353TIP3    H179550   4.064   0.135  16.771 -0.3401  0.3276 -0.6301
19353TIP3    H279551   4.004   0.258  16.836 -0.5795 -0.0339 -0.1563
19354TIP3   OH279552   4.780   2.929  11.455 -0.0028 -0.3416 -0.7355
19354TIP3    H179553   4.815   2.860  11.398  0.5783 -1.5769  1.0297
19354TIP3    H279554   4.687   2.908  11.463  0.0785 -0.6555 -0.5866
19355TIP3   OH279555   4.243   5.496   4.296 -0.2785  0.3121  0.2718
19355TIP3    H179556   4.310   5.552   4.256 -0.7794  0.3654 -0.4922
19355TIP3    H279557   4.293   5.438   4.354  0.3850  0.6369  0.0375
19356TIP3   OH279558   4.930   1.765  14.532  0.0428  0.1329 -0.1464
19356TIP3    H179559   4.857   1.708  14.556 -0.8007  1.3159  0.1944
19356TIP3    H279560   4.916   1.845  14.583 -0.4344  1.7890 -2.7097
19357TIP3   OH279561   5.696   2.770   6.565 -0.4535  0.5585  0.0668
19357TIP3    H179562   5.639   2.762   6.488  1.3732 -0.2511 -1.3056
19357TIP3    H279563   5.644   2.735   6.637 -1.5545 -0.5925 -1.2104
19358TIP3   OH279564   0.911   1.996   3.401 -0.1302  0.2038  0.0614
19358TIP3    H179565   0.816   1.988   3.405 -0.1124  0.3585  1.2371
19358TIP3    H279566   0.943   1.906   3.407 -0.2093  0.0854 -1.1539
19359TIP3   OH279567   6.696   6.563  13.444  0.0252 -0.1651  0.1607
19359TIP3    H179568   6.778   6.585  13.488  0.4574 -0.6438 -0.3880
19359TIP3    H279569   6.679   6.472  13.467 -0.4844  0.0058  0.4706
19360TIP3   OH279570   1.639   5.309  13.963  0.1243  0.0423  0.7801
19360TIP3    H179571   1.556   5.345  13.993 -0.8990 -1.2543 -0.3603
19360TIP3    H279572   1.694   5.386  13.947 -1.2898  0.9970  0.3341
19361TIP3   OH279573   6.813   1.875  15.417  0.1581 -0.0328  0.0846
19361TIP3    H179574   6.798   1.887  15.323 -0.4472 -0.2732  0.1463
19361TIP3    H279575   6.729   1.897  15.458  0.2730 -0.3991  0.5256
19362TIP3   OH279576   6.513   3.206  11.190 -0.3498  0.4243 -0.8963
19362TIP3    H179577   6.445   3.182  11.253  3.0963 -4.1993  1.6303
19362TIP3    H279578   6.486   3.163  11.109  0.8763 -4.5552  1.0036
19363TIP3   OH279579   4.570   0.996  14.452  0.2670 -0.1045 -0.1231
19363TIP3    H179580   4.645   0.996  14.511  0.8512  1.1411 -0.8146
19363TIP3    H279581   4.580   1.077  14.401 -0.3244 -1.0174 -1.7818
19364TIP3   OH279582   2.803   6.706   3.981 -0.6995 -0.4260  0.7769
19364TIP3    H179583   2.789   6.786   4.031 -0.3907 -0.5323  1.0349
19364TIP3    H279584   2.738   6.710   3.911 -1.3411 -0.4329  1.3680
19365TIP3   OH279585   0.056   2.192   3.173 -0.1052 -0.3076 -0.1925
19365TIP3    H179586   0.073   2.099   3.187 -0.2598 -0.5573 -1.5102
19365TIP3    H279587  -0.039   2.198   3.162 -0.2334  0.1875  1.0191
19366TIP3   OH279588   4.486   4.679  12.211  0.3573  0.3722  0.6125
19366TIP3    H179589   4.516   4.595  12.244 -1.2989 -0.3713  0.3365
19366TIP3    H279590   4.562   4.716  12.166  1.6520 -0.0982  2.3128
19367TIP3   OH279591   5.219   3.771  15.538 -0.4588 -0.2340  0.5347
19367TIP3    H179592   5.297   3.758  15.486  0.3872  1.3303  1.3506
19367TIP3    H279593   5.251   3.788  15.626 -1.6772  1.0152  0.7728
19368TIP3   OH279594   0.072   3.738   1.029  0.2408  0.6494  0.4490
19368TIP3    H179595   0.098   3.737   0.937 -1.5089 -0.8099 -0.0917
19368TIP3    H279596   0.024   3.656   1.041  0.4133  0.8198  2.6739
19369TIP3   OH279597   0.736   4.850   1.028 -0.8668  0.1583 -0.2019
19369TIP3    H179598   0.736   4.918   1.095 -1.4291 -0.9919  1.0010
19369TIP3    H279599   0.820   4.861   0.983 -0.2492  0.6314  1.0258
19370TIP3   OH279600   5.417   3.683  15.983  0.6220  1.0885 -0.0736
19370TIP3    H179601   5.462   3.623  16.042 -1.7655 -0.1359  0.6530
19370TIP3    H279602   5.379   3.749  16.041 -0.1641  0.9471 -0.4040
19371TIP3   OH279603   3.913   0.066  10.576  0.3649 -0.2825  0.4852
19371TIP3    H179604   3.886   0.044  10.665 -1.2054  0.0959  0.1480
19371TIP3    H279605   3.890   0.159  10.566 -2.5479 -1.0205 -1.2627
19372TIP3   OH279606   0.423   6.257   5.789 -0.3200  0.4571 -0.2324
19372TIP3    H179607   0.400   6.167   5.764  0.1200  0.9189 -2.5148
19372TIP3    H279608   0.506   6.274   5.744 -1.0116  2.3934 -0.8766
19373TIP3   OH279609   0.439   4.921   4.231  0.1974  0.3688 -0.1360
19373TIP3    H179610   0.467   4.857   4.165 -1.6204  0.3107 -0.9107
19373TIP3    H279611   0.401   4.868   4.301 -0.9896  0.5497 -0.6210
19374TIP3   OH279612   0.380   3.404   1.036  0.3168 -0.0289  0.2869
19374TIP3    H179613   0.417   3.484   1.074 -0.2771  0.4572 -0.1396
19374TIP3    H279614   0.417   3.400   0.948  0.9161 -0.6259  0.5534
19375TIP3   OH279615   3.793   3.015  14.217 -0.0234 -0.5542  0.0795
19375TIP3    H179616   3.752   2.930  14.234  0.8559 -1.2088 -0.9326
19375TIP3    H279617   3.873   3.013  14.270  0.5976 -0.8677 -0.8453
19376TIP3   OH279618   2.014   1.943  11.813 -0.1007 -0.1472  0.2572
19376TIP3    H179619   1.927   1.974  11.789 -0.6881 -0.4673  1.8565
19376TIP3    H279620   2.071   1.973  11.742 -1.2060  1.5756  0.0585
19377TIP3   OH279621   5.159   6.428   0.528 -0.3788 -0.2289 -0.3428
19377TIP3    H179622   5.079   6.422   0.475  1.1362  1.3488 -3.0597
19377TIP3    H279623   5.148   6.363   0.597 -3.1344 -1.4472 -1.7987
19378TIP3   OH279624   1.265   2.833  12.506  0.3248 -0.7918 -0.1963
19378TIP3    H179625   1.212   2.879  12.570  0.3604 -0.2191 -0.5704
19378TIP3    H279626   1.239   2.742  12.513 -2.3943 -0.2543 -1.9601
19379TIP3   OH279627   4.700   1.230   4.584  0.1662  0.1429  0.1832
19379TIP3    H179628   4.639   1.297   4.614 -0.3069  0.3993 -1.2637
19379TIP3    H279629   4.663   1.147   4.617 -0.0216  0.4504  0.7604
19380TIP3   OH279630   5.452   1.862   3.262  0.3025  0.8093  0.5019
19380TIP3    H179631   5.495   1.946   3.277  1.0406  0.0882  2.8902
19380TIP3    H279632   5.380   1.860   3.326 -0.4317  0.0836 -0.3197
19381TIP3   OH279633   5.084   4.848  14.170  0.0485 -0.3268 -0.4056
19381TIP3    H179634   5.146   4.776  14.172 -0.9279 -1.2142 -1.0394
19381TIP3    H279635   5.102   4.893  14.087 -0.1219 -0.5609 -0.5710
19382TIP3   OH279636   2.043   5.262  10.700 -0.1490 -0.2141 -0.4805
19382TIP3    H179637   2.077   5.312  10.774  1.6123 -0.5831 -0.9985
19382TIP3    H279638   1.953   5.295  10.689  0.8196  2.6709 -0.6414
19383TIP3   OH279639   0.179   5.937  11.941 -0.0429  0.1869 -0.4829
19383TIP3    H179640   0.198   6.000  11.872 -1.4543 -0.1886 -1.2347
19383TIP3    H279641   0.263   5.925  11.986  1.2985 -0.6806 -3.0397
19384TIP3   OH279642   1.510   1.976   6.363 -0.1186  0.2017 -0.0967
19384TIP3    H179643   1.477   2.038   6.428 -1.5506 -0.6241  0.0275
19384TIP3    H279644   1.581   1.930   6.407  0.5958  1.3471 -0.0058
19385TIP3   OH279645   6.794   6.747   0.968  0.0150  0.1093 -0.7885
19385TIP3    H179646   6.764   6.669   0.922  0.5700 -0.2659 -0.5267
19385TIP3    H279647   6.714   6.797   0.983 -0.4874 -0.8253 -0.1882
19386TIP3   OH279648   4.778   4.835  13.174 -0.3422  0.3993 -0.1076
19386TIP3    H179649   4.696   4.884  13.164 -0.3691  0.6392  1.0875
19386TIP3    H279650   4.826   4.852  13.093 -1.2114  0.7540 -0.5686
19387TIP3   OH279651   3.515   5.726  13.091  0.0500  0.1991 -0.1965
19387TIP3    H179652   3.515   5.776  13.173  0.9044 -0.5689  0.2902
19387TIP3    H279653   3.424   5.704  13.076 -0.3964  2.0976 -0.5603
19388TIP3   OH279654   2.377   0.576   3.095  0.0827  0.5724 -0.1019
19388TIP3    H179655   2.292   0.532   3.086 -0.3239  1.1709  0.6448
19388TIP3    H279656   2.397   0.570   3.188  3.0712 -3.5207 -0.7611
19389TIP3   OH279657   5.671   4.026  16.215  0.1146  0.0698 -0.2959
19389TIP3    H179658   5.627   4.111  16.213  0.2663  0.1487 -0.3091
19389TIP3    H279659   5.638   3.983  16.294  1.0574  0.6934  0.4628
19390TIP3   OH279660   3.736   2.210   3.363  0.0772 -0.0938 -0.3114
19390TIP3    H179661   3.725   2.116   3.352 -3.0654  0.1286  0.0459
19390TIP3    H279662   3.802   2.219   3.431  0.1027 -2.0382 -0.0271
19391TIP3   OH279663   2.888   0.423  15.679 -0.1378 -0.0211  0.2844
19391TIP3    H179664   2.922   0.334  15.690  0.3835  0.1820  0.3566
19391TIP3    H279665   2.821   0.415  15.612  0.7705 -0.2616 -0.6299
19392TIP3   OH279666   6.118   0.446   5.679 -0.2739 -0.8090 -0.6469
19392TIP3    H179667   6.085   0.360   5.655 -0.6799 -1.0691  0.7303
19392TIP3    H279668   6.062   0.508   5.631 -1.0325 -1.2999 -0.4220
19393TIP3   OH279669   6.640   0.821   0.339 -0.2226 -0.4744  0.2262
19393TIP3    H179670   6.667   0.902   0.294 -1.5968 -0.8973 -1.4650
19393TIP3    H279671   6.548   0.835   0.361 -0.8059 -1.9251 -1.0650
19394TIP3   OH279672   4.539   1.549   3.781 -0.0259  0.4508 -0.3161
19394TIP3    H179673   4.502   1.468   3.745  2.4880 -1.3719  0.9423
19394TIP3    H279674   4.630   1.550   3.751  0.0872  2.7303 -0.0911
19395TIP3   OH279675   6.053   6.762   6.075  0.4629 -0.1221 -0.0410
19395TIP3    H179676   6.023   6.738   6.163  0.4748  0.6063  0.1661
19395TIP3    H279677   6.148   6.759   6.081  0.4997 -2.3720 -0.6817
19396TIP3   OH279678   4.282   2.641  15.238 -0.5025  0.1696  0.1120
19396TIP3    H179679   4.291   2.726  15.196  0.2024 -0.1271 -0.3537
19396TIP3    H279680   4.253   2.582  15.169 -2.4849  0.3068  0.7507
19397TIP3   OH279681   0.129   6.240   3.028 -0.2777 -0.1454  0.0311
19397TIP3    H179682   0.188   6.258   3.102 -0.9673  0.4719  0.4351
19397TIP3    H279683   0.182   6.186   2.969  1.3540  1.9692 -0.5316
19398TIP3   OH279684   2.072   5.448  13.342 -0.0030  0.0407 -0.3474
19398TIP3    H179685   2.106   5.433  13.431  0.9504 -0.4391 -0.7815
19398TIP3    H279686   1.977   5.437  13.350 -0.0799  1.2326  0.8643
19399TIP3   OH279687   5.802   2.940  13.985  0.0631  0.8064 -0.0011
19399TIP3    H179688   5.887   2.942  14.029  0.4688 -0.6269 -0.6475
19399TIP3    H279689   5.798   3.023  13.937  0.9646  1.0233  0.2746
19400TIP3   OH279690   4.061   1.224  13.634  0.1905 -0.3237 -0.2823
19400TIP3    H179691   4.135   1.215  13.695 -0.0296  0.7710  0.1625
19400TIP3    H279692   4.032   1.134  13.618  0.1061 -0.6262  1.4072
19401TIP3   OH279693   0.102   3.354   4.064  0.3831 -0.4277 -0.3310
19401TIP3    H179694   0.022   3.403   4.044 -0.2039 -0.5098  1.6237
19401TIP3    H279695   0.173   3.409   4.030 -0.3933  0.5808 -0.3725
19402TIP3   OH279696   0.279   4.525   3.192  0.8466 -0.1518  0.6506
19402TIP3    H179697   0.373   4.521   3.178  1.3575 -3.5810  3.6202
19402TIP3    H279698   0.269   4.542   3.286 -1.4395 -1.1969  0.6671
19403TIP3   OH279699   2.953   4.662  13.873  0.3613  0.3350  0.5382
19403TIP3    H179700   2.985   4.724  13.938 -1.4343  2.3157 -0.3420
19403TIP3    H279701   2.955   4.711  13.790 -0.2998 -1.0696 -0.3537
19404TIP3   OH279702   0.789   0.465   5.456  0.3079 -0.5573  0.0101
19404TIP3    H179703   0.780   0.370   5.457  0.0663 -0.5514  2.4071
19404TIP3    H279704   0.764   0.493   5.544  2.2716  1.5555 -0.0085
19405TIP3   OH279705   3.898   6.233  13.426 -0.5562  0.1135  0.0108
19405TIP3    H179706   3.909   6.284  13.346  0.0082 -0.2871 -0.1757
19405TIP3    H279707   3.874   6.146  13.397 -1.6766  0.2935  0.3351
19406TIP3   OH279708   2.300   0.492   0.568  0.2054  0.4320  0.1078
19406TIP3    H179709   2.301   0.587   0.553 -0.1858  0.8608  2.4750
19406TIP3    H279710   2.368   0.459   0.509  1.0445  2.3133 -0.0806
19407TIP3   OH279711   6.410   1.528   4.507  0.1931 -0.0615 -0.4043
19407TIP3    H179712   6.414   1.451   4.450  1.4765 -1.0488  0.9258
19407TIP3    H279713   6.353   1.502   4.579 -0.3478  0.6851 -0.5542
19408TIP3   OH279714   2.182   0.456  11.998  0.1996  0.1598  0.0444
19408TIP3    H179715   2.117   0.460  11.929  0.6377  2.9638 -0.3250
19408TIP3    H279716   2.183   0.544  12.035  1.7634 -0.5830  1.9710
19409TIP3   OH279717   1.432   5.449   5.479 -0.0030  0.0942  0.3440
19409TIP3    H179718   1.347   5.480   5.509 -0.5777 -0.1841 -0.9512
19409TIP3    H279719   1.465   5.396   5.551 -1.0411 -0.0091  0.7530
19410TIP3   OH279720   0.521   4.791   0.041  0.1905  0.6203  0.3190
19410TIP3    H179721   0.589   4.859   0.045  0.2523  0.5751  0.0358
19410TIP3    H279722   0.454   4.828  -0.016 -0.1771  0.7991  0.8557
19411TIP3   OH279723   6.780   3.257   3.741  0.0909 -0.2109 -0.6743
19411TIP3    H179724   6.740   3.212   3.816  2.0769 -0.9826 -0.0049
19411TIP3    H279725   6.733   3.340   3.734 -1.0320 -0.7096  0.5651
19412TIP3   OH279726   3.851   5.142   5.682  0.0635  0.4820 -0.1240
19412TIP3    H179727   3.830   5.197   5.758 -0.2970  0.3824 -0.1537
19412TIP3    H279728   3.882   5.060   5.720  0.8947  0.8072 -0.0743
19413TIP3   OH279729   2.749   4.730   0.186  0.2962 -0.1888  1.1920
19413TIP3    H179730   2.703   4.754   0.266 -0.0569  2.0768  0.3823
19413TIP3    H279731   2.685   4.680   0.136 -1.6163  3.1630 -0.0528
19414TIP3   OH279732   5.034   0.368   5.458  0.1475  0.3614  0.2293
19414TIP3    H179733   4.942   0.386   5.475  0.0965  1.3254 -0.8683
19414TIP3    H279734   5.056   0.427   5.386  0.7732 -2.1212 -1.7419
19415TIP3   OH279735   5.086   2.116   1.595 -0.1646 -0.4380 -0.2731
19415TIP3    H179736   5.099   2.111   1.690 -1.5272  0.4182 -0.0248
19415TIP3    H279737   4.993   2.099   1.582  0.3072 -2.3020 -1.6378
19416TIP3   OH279738   1.457   5.858  11.784  0.2661 -0.1818 -0.1222
19416TIP3    H179739   1.485   5.867  11.875 -0.6371  0.7043  0.0875
19416TIP3    H279740   1.449   5.949  11.753 -0.4492 -0.4617 -0.7645
19417TIP3   OH279741   1.676   4.715   2.790  0.2258 -0.2673 -1.1430
19417TIP3    H179742   1.693   4.624   2.765  2.3479 -0.4771  0.8190
19417TIP3    H279743   1.697   4.766   2.712 -1.9300 -1.4417 -2.6061
19418TIP3   OH279744   0.464   2.762   2.879  0.0583 -0.1375 -0.4555
19418TIP3    H179745   0.414   2.842   2.865 -3.3337 -2.3852 -2.4890
19418TIP3    H279746   0.414   2.714   2.945  0.1742 -1.9261 -1.6019
19419TIP3   OH279747   2.232   2.876  13.939  0.1732  0.4797  0.5275
19419TIP3    H179748   2.195   2.883  13.851 -1.4560 -1.1887  1.0074
19419TIP3    H279749   2.318   2.836  13.926 -0.4497 -0.6462 -0.2591
19420TIP3   OH279750   6.162   5.909  15.523  0.9617  0.1959  0.1340
19420TIP3    H179751   6.233   5.926  15.585  1.6827 -2.2635  0.0603
19420TIP3    H279752   6.163   5.815  15.510 -2.3472  0.0501  0.1208
19421TIP3   OH279753   2.559   6.395   5.594 -0.2893  1.0022  0.3314
19421TIP3    H179754   2.631   6.387   5.657  0.6825 -2.5172 -0.9563
19421TIP3    H279755   2.490   6.338   5.629 -1.5551  2.4713  0.3395
19422TIP3   OH279756   4.008   6.643   2.789 -0.4739  0.1167  0.0329
19422TIP3    H179757   4.088   6.679   2.750 -0.2027 -1.2959 -0.7594
19422TIP3    H279758   3.955   6.721   2.808  1.0954  1.0919  0.6616
19423TIP3   OH279759   2.319   0.760  12.454  0.1029  0.4009 -0.5360
19423TIP3    H179760   2.407   0.793  12.472 -0.0349  0.5922 -0.2014
19423TIP3    H279761   2.332   0.667  12.433  0.4485  0.5638 -1.0899
19424TIP3   OH279762   0.222   2.868   2.542 -0.1188 -0.4514  0.1140
19424TIP3    H179763   0.205   2.961   2.528  0.8056  0.2704  3.0162
19424TIP3    H279764   0.158   2.841   2.608 -1.3654 -2.3548 -1.7243
19425TIP3   OH279765   1.156   6.092  14.397 -0.0127 -0.1090  0.8286
19425TIP3    H179766   1.123   6.181  14.388 -0.0186  0.0494  2.1957
19425TIP3    H279767   1.192   6.088  14.486  1.4953 -0.9828  0.2224
19426TIP3   OH279768   2.972   2.557  13.203  0.5053  0.1879 -0.3868
19426TIP3    H179769   2.914   2.546  13.128  0.5006 -1.2579 -0.1995
19426TIP3    H279770   2.914   2.564  13.278  0.5264 -0.6021 -0.2789
19427TIP3   OH279771   1.663   0.784   0.664  0.1604  0.1765  0.3216
19427TIP3    H179772   1.715   0.729   0.723 -2.5240 -0.2159  2.5146
19427TIP3    H279773   1.651   0.730   0.586  0.0409 -1.1836  1.2455
19428TIP3   OH279774   3.146   5.381  16.883 -0.7026  0.5429 -0.3579
19428TIP3    H179775   3.221   5.335  16.919 -1.6643 -1.0755 -0.3008
19428TIP3    H279776   3.071   5.325  16.905 -2.2481  3.1042  1.4412
19429TIP3   OH279777   5.312   3.319   0.964 -0.4937  0.0487 -0.0920
19429TIP3    H179778   5.249   3.284   0.901 -2.2145 -0.6384  1.8769
19429TIP3    H279779   5.267   3.393   1.005  0.9295  1.0490 -0.2632
19430TIP3   OH279780   3.480   1.904   2.518 -0.7675  0.2880  0.1009
19430TIP3    H179781   3.566   1.945   2.513 -0.8325  0.5712  1.1094
19430TIP3    H279782   3.424   1.970   2.558 -1.2625 -0.1892  0.2060
19431TIP3   OH279783   4.906   4.694  16.262  0.3404 -0.0852  0.8570
19431TIP3    H179784   4.899   4.788  16.280 -0.3473 -0.0075  0.2137
19431TIP3    H279785   4.890   4.685  16.168  1.5461 -0.7371  0.6930
19432TIP3   OH279786   6.425   4.852   5.049 -0.2022  0.2418 -0.7374
19432TIP3    H179787   6.417   4.786   4.979 -0.7264  0.0583 -0.5067
19432TIP3    H279788   6.402   4.805   5.129  2.5624 -0.1789 -0.0644
19433TIP3   OH279789   4.960   3.899  12.529  0.3665  0.0240 -0.2867
19433TIP3    H179790   4.942   3.992  12.542  1.9609  0.2610  0.3630
19433TIP3    H279791   4.969   3.889  12.434  2.2532  0.9678 -0.2418
19434TIP3   OH279792   2.257   4.488   2.355  0.3075  0.4799 -0.3598
19434TIP3    H179793   2.349   4.492   2.327  1.5528 -0.6254  3.0115
19434TIP3    H279794   2.225   4.404   2.320  1.3253 -0.1881  0.2428
19435TIP3   OH279795   1.933   3.315   2.460  0.2566 -0.2654  0.1667
19435TIP3    H179796   1.947   3.257   2.385 -0.0398 -1.8979  1.3308
19435TIP3    H279797   1.838   3.325   2.465  0.0456 -2.4744  1.9468
19436TIP3   OH279798   6.779   2.008  14.257  0.1807  0.4165  0.2261
19436TIP3    H179799   6.744   1.975  14.340 -0.7410  0.5597 -0.0862
19436TIP3    H279800   6.869   1.978  14.255  0.1874  0.3257  1.2347
19437TIP3   OH279801   0.451   4.709  15.868 -0.4774 -0.0016 -0.8258
19437TIP3    H179802   0.528   4.700  15.812 -1.1576 -0.9264 -1.6223
19437TIP3    H279803   0.402   4.782  15.831 -1.1491 -0.8907 -1.7205
19438TIP3   OH279804   0.214   3.636  11.823 -0.7726 -0.2758 -0.3441
19438TIP3    H179805   0.180   3.672  11.741 -1.1762  1.1213  0.4146
19438TIP3    H279806   0.138   3.597  11.866 -0.9352  0.6398  0.2095
19439TIP3   OH279807   1.228   3.589   4.581  0.6723  0.1414 -0.4231
19439TIP3    H179808   1.208   3.650   4.511 -0.3515 -1.4783 -1.6126
19439TIP3    H279809   1.145   3.545   4.599  1.8235 -2.7488 -1.4955
19440TIP3   OH279810   3.804   6.237  14.756 -0.0950 -0.1319 -0.3209
19440TIP3    H179811   3.791   6.143  14.752 -0.2092 -0.0767 -1.6366
19440TIP3    H279812   3.870   6.250  14.825 -2.5539 -0.8699  2.3994
19441TIP3   OH279813   0.221   3.841  13.437 -0.3400  0.8575  0.2449
19441TIP3    H179814   0.291   3.906  13.444 -0.0657  0.4518  1.5349
19441TIP3    H279815   0.255   3.775  13.375  1.0044 -0.0184  1.8485
19442TIP3   OH279816   4.585   3.609  14.735  0.0608  0.0037 -0.1000
19442TIP3    H179817   4.498   3.573  14.718 -0.1379  0.2665  0.3487
19442TIP3    H279818   4.616   3.562  14.812 -0.3630  1.0574  0.7300
19443TIP3   OH279819   6.587   1.318   2.801  0.4009  0.3512  0.2210
19443TIP3    H179820   6.664   1.346   2.849  0.5819  0.4872 -0.1408
19443TIP3    H279821   6.621   1.262   2.731 -0.0746 -2.0877  1.8478
19444TIP3   OH279822   1.864   5.474   2.316 -0.1403 -0.1486 -0.8249
19444TIP3    H179823   1.769   5.462   2.321 -0.4305  1.5660 -1.5525
19444TIP3    H279824   1.881   5.549   2.374  0.8061 -0.5893 -0.5265
19445TIP3   OH279825   1.376   4.785  11.574 -0.0169  0.0638  0.1238
19445TIP3    H179826   1.460   4.795  11.529  0.1452 -2.5369 -0.3602
19445TIP3    H279827   1.320   4.741  11.510 -0.3820 -2.0296  1.7648
19446TIP3   OH279828   2.214   5.877  13.689 -0.3698 -0.1668  0.4113
19446TIP3    H179829   2.143   5.841  13.636 -0.0582 -0.1291 -0.0315
19446TIP3    H279830   2.194   5.847  13.778  0.4907 -2.4665 -0.0976
19447TIP3   OH279831   5.435   5.284  14.257 -0.4543  0.2184 -0.2128
19447TIP3    H179832   5.490   5.278  14.335  1.0928 -0.0760 -1.2783
19447TIP3    H279833   5.347   5.265  14.288 -0.3549  2.7315  1.9338
19448TIP3   OH279834   4.002   0.568  16.036 -0.4576 -0.0777  0.3710
19448TIP3    H179835   4.068   0.612  16.089 -1.8063  1.4382  0.8811
19448TIP3    H279836   3.972   0.495  16.091  0.3902 -0.4392  0.3621
19449TIP3   OH279837   5.406   4.954   5.121  0.1029 -0.2240  0.4580
19449TIP3    H179838   5.382   4.867   5.154  0.4196 -0.7161 -0.5625
19449TIP3    H279839   5.460   4.936   5.044  2.5124  0.8407  1.7791
19450TIP3   OH279840   2.961   0.337  15.952 -0.2053  0.4092 -0.5071
19450TIP3    H179841   2.981   0.262  15.895  0.2757  0.4188 -0.3540
19450TIP3    H279842   2.872   0.362  15.927 -0.1548  0.1519 -0.9697
19451TIP3   OH279843   6.637   6.227  13.841 -0.0930  0.1770  0.2707
19451TIP3    H179844   6.567   6.163  13.827  1.1232 -0.8542 -1.5405
19451TIP3    H279845   6.712   6.175  13.870  0.1149  1.1993  1.6946
19452TIP3   OH279846   2.560   1.025  14.724  0.3319  0.0560  0.8018
19452TIP3    H179847   2.488   1.085  14.708 -0.2735 -0.8439  0.0570
19452TIP3    H279848   2.594   1.051  14.810 -0.5310  0.8326  0.9237
19453TIP3   OH279849   6.809   6.690   0.627  0.2334  0.2562 -0.2544
19453TIP3    H179850   6.794   6.736   0.545  0.1296 -0.6489 -0.7437
19453TIP3    H279851   6.869   6.747   0.676 -0.3012  1.1584 -0.6345
19454TIP3   OH279852   5.629   2.139  12.253  0.9931 -0.6662  0.6930
19454TIP3    H179853   5.581   2.222  12.251  2.4017  0.3183  3.3232
19454TIP3    H279854   5.571   2.077  12.208 -0.8283  1.3479  0.0847
19455TIP3   OH279855   3.632   4.571  10.499  0.0624 -0.3113 -0.7068
19455TIP3    H179856   3.695   4.615  10.556  0.7293 -0.7173 -1.1154
19455TIP3    H279857   3.578   4.641  10.463  0.1314  0.0183 -0.1762
19456TIP3   OH279858   1.604   5.072   2.723 -0.6412  0.0258 -0.3163
19456TIP3    H179859   1.559   5.129   2.785 -0.5407  1.6921 -1.6916
19456TIP3    H279860   1.691   5.058   2.762 -1.4080 -1.0534  1.0911
19457TIP3   OH279861   3.273   1.891   1.173 -0.2331  0.1133  0.3865
19457TIP3    H179862   3.316   1.806   1.185  2.0450  1.3873  2.0515
19457TIP3    H279863   3.335   1.943   1.122 -0.7033  1.3864  1.0530
19458TIP3   OH279864   5.746   0.601   5.357  0.1356  0.1021  0.0265
19458TIP3    H179865   5.757   0.690   5.323  1.2401  0.6170  1.5963
19458TIP3    H279866   5.741   0.613   5.452 -1.0552 -1.4132  0.1907
19459TIP3   OH279867   2.491   4.323   3.760 -0.6206  0.4364 -0.0459
19459TIP3    H179868   2.549   4.328   3.836 -1.7462 -0.2476  0.8721
19459TIP3    H279869   2.537   4.265   3.699 -0.5819 -0.5923  0.9238
19460TIP3   OH279870   5.849   2.459   3.900 -0.1832  0.5942  0.4460
19460TIP3    H179871   5.938   2.448   3.867 -0.3333  1.5547 -0.3282
19460TIP3    H279872   5.827   2.549   3.880 -1.1611  0.5176  1.0868
19461TIP3   OH279873   4.444   2.082  13.386 -0.3802 -0.0548 -0.6527
19461TIP3    H179874   4.530   2.120  13.402  0.4355 -1.9895 -0.2650
19461TIP3    H279875   4.383   2.147  13.422  1.0315  0.0534  1.7610
19462TIP3   OH279876   3.545   0.831   3.455  0.4349 -0.4060  0.4999
19462TIP3    H179877   3.606   0.764   3.423  0.5015  0.5303 -1.4507
19462TIP3    H279878   3.507   0.868   3.376  0.1827  1.6760  1.5460
19463TIP3   OH279879   1.276   1.757   5.744  0.3253  0.1804  0.2464
19463TIP3    H179880   1.198   1.813   5.743  0.0816 -0.1014 -2.4519
19463TIP3    H279881   1.262   1.695   5.673  2.9774  0.0514 -0.2486
19464TIP3   OH279882   6.788   1.528  14.747 -0.5465  0.3698  0.4389
19464TIP3    H179883   6.713   1.485  14.704 -0.0861 -2.6666  2.3725
19464TIP3    H279884   6.762   1.620  14.753 -3.0922 -0.1341 -1.0370
19465TIP3   OH279885   1.128   0.756  14.494 -0.2370  0.6139 -0.1553
19465TIP3    H179886   1.220   0.754  14.518  0.0609  1.4092 -1.1676
19465TIP3    H279887   1.113   0.845  14.461 -1.5849  0.7951  0.8301
19466TIP3   OH279888   1.619   5.855  15.790 -0.1563 -0.0610 -0.0145
19466TIP3    H179889   1.647   5.913  15.860 -1.0710  0.0667  0.2554
19466TIP3    H279890   1.526   5.875  15.777 -0.2530 -0.8007 -0.5620
19467TIP3   OH279891   4.556   6.271   4.586 -0.1309  0.5686  0.0785
19467TIP3    H179892   4.518   6.343   4.636  0.9253 -0.3307  2.3208
19467TIP3    H279893   4.532   6.192   4.635  3.0503 -0.1661  0.6997
19468TIP3   OH279894   6.315   3.186  15.053  0.7873 -0.1504  0.1015
19468TIP3    H179895   6.278   3.116  15.107  0.5302 -0.0585  0.0475
19468TIP3    H279896   6.377   3.230  15.110  1.5595 -0.9339 -0.1169
19469TIP3   OH279897   0.435   2.011   0.241 -1.1943 -0.0428 -0.2861
19469TIP3    H179898   0.403   2.053   0.161 -2.1977 -0.7525 -0.2657
19469TIP3    H279899   0.427   1.917   0.224 -1.4404 -0.2025  0.6632
19470TIP3   OH279900   6.456   0.710  16.748  0.0680  0.1362 -0.1971
19470TIP3    H179901   6.380   0.666  16.712 -0.5036  0.3032  0.7750
19470TIP3    H279902   6.528   0.648  16.734 -0.8753 -1.5887  1.9734
19471TIP3   OH279903   2.163   3.520  11.014  0.2679 -0.3226 -0.3503
19471TIP3    H179904   2.150   3.578  11.090  1.6706 -0.9218  0.3803
19471TIP3    H279905   2.109   3.559  10.945  0.7787  1.5961  0.2583
19472TIP3   OH279906   2.047   2.358   5.433 -0.0781 -0.2824  0.1948
19472TIP3    H179907   2.135   2.392   5.447 -0.3819 -0.0575  1.7513
19472TIP3    H279908   2.045   2.274   5.479 -0.6133 -0.3624  0.0367
19473TIP3   OH279909   5.789   1.471   3.224  0.3080  0.1363  0.4221
19473TIP3    H179910   5.764   1.498   3.313 -1.6727  0.8304 -0.2894
19473TIP3    H279911   5.717   1.416   3.195 -0.0273  1.4707 -1.4383
19474TIP3   OH279912   5.890   0.197  12.473 -0.3233 -0.2229  0.7272
19474TIP3    H179913   5.830   0.135  12.514 -2.3512 -1.3437 -3.3476
19474TIP3    H279914   5.837   0.275  12.456  0.0440 -0.2248 -0.5859
19475TIP3   OH279915   2.289   4.990   6.525 -0.3248 -0.6746 -0.3026
19475TIP3    H179916   2.228   4.925   6.559 -1.1248  0.4890  0.5953
19475TIP3    H279917   2.376   4.958   6.551 -0.7096 -1.3328  0.1883
19476TIP3   OH279918   6.063   1.900  14.740 -0.0960 -0.2866  0.4127
19476TIP3    H179919   6.044   1.939  14.654 -1.6783 -1.7148  0.0564
19476TIP3    H279920   6.158   1.892  14.743  0.0367  0.5525 -0.8525
19477TIP3   OH279921   0.800   3.556   2.054  0.4895  0.6213  0.3790
19477TIP3    H179922   0.766   3.467   2.065  0.6704  0.4453 -0.4048
19477TIP3    H279923   0.723   3.612   2.059  0.5297  0.5879  2.4211
19478TIP3   OH279924   4.654   1.848   3.906 -0.4428  0.4207 -0.0256
19478TIP3    H179925   4.628   1.884   3.821  1.4438  1.2549 -0.2985
19478TIP3    H279926   4.742   1.881   3.920 -0.3670 -0.4530  1.8604
19479TIP3   OH279927   5.791   5.887   0.780 -0.9549  0.5224 -0.0710
19479TIP3    H179928   5.763   5.943   0.852 -0.6179 -0.2734  0.6911
19479TIP3    H279929   5.880   5.917   0.760 -1.5918  1.7765 -1.2210
19480TIP3   OH279930   4.494   4.339  17.104  0.0840  0.1465  0.3391
19480TIP3    H179931   4.546   4.413  17.071 -0.2257  0.2439  0.0697
19480TIP3    H279932   4.517   4.335  17.197  0.9393 -0.1101  0.1321
19481TIP3   OH279933   0.415   4.057  13.716  0.2429  0.3583  0.0599
19481TIP3    H179934   0.489   4.077  13.773  1.9001  0.5843 -2.0373
19481TIP3    H279935   0.422   3.963  13.699  1.2304  0.6942 -1.6093
19482TIP3   OH279936   2.587   0.324   4.312 -0.2445  0.0501  0.0309
19482TIP3    H179937   2.541   0.240   4.305  0.3431 -0.7507  3.7741
19482TIP3    H279938   2.676   0.300   4.339  1.0768  1.8086 -2.3061
19483TIP3   OH279939   5.048   1.338  12.369  0.2647  0.3879 -0.4809
19483TIP3    H179940   5.109   1.341  12.443  0.7853  1.3501 -0.9428
19483TIP3    H279941   5.044   1.245  12.346 -0.9060 -0.1368  1.5548
19484TIP3   OH279942   4.661   0.861   1.513  0.0293  0.0180 -0.8581
19484TIP3    H179943   4.591   0.833   1.454 -0.6364 -0.2660  0.0483
19484TIP3    H279944   4.624   0.851   1.600  1.3985 -0.6789 -0.3310
19485TIP3   OH279945   0.665   3.164   2.571  0.2080  0.3173  0.8894
19485TIP3    H179946   0.648   3.076   2.604  0.6063 -0.9325 -1.9455
19485TIP3    H279947   0.756   3.181   2.595  1.6477 -1.9926 -2.1389
19486TIP3   OH279948   2.870   6.199   2.365  0.3824  0.1536 -0.6182
19486TIP3    H179949   2.905   6.288   2.370 -0.3596  0.3979  0.6708
19486TIP3    H279950   2.779   6.210   2.339 -0.0262 -0.1341  0.6275
19487TIP3   OH279951   5.817   4.565  12.687 -0.4877  0.2046 -0.1084
19487TIP3    H179952   5.825   4.643  12.632  1.1597 -0.7912 -1.3920
19487TIP3    H279953   5.822   4.492  12.625  0.4160 -0.9480  1.2727
19488TIP3   OH279954   3.562   6.561   6.341  0.0154 -0.0493  0.4960
19488TIP3    H179955   3.469   6.585   6.333 -0.0309 -0.5610 -0.8607
19488TIP3    H279956   3.586   6.587   6.430 -0.8793  1.9736  0.2171
19489TIP3   OH279957   6.572   2.868   4.932  0.1637 -0.0072 -0.6191
19489TIP3    H179958   6.621   2.798   4.889  1.4132  0.0434  0.6605
19489TIP3    H279959   6.595   2.947   4.882  2.1527  0.1691  0.4780
19490TIP3   OH279960   2.242   2.169   4.747  0.3940  0.3060 -0.1978
19490TIP3    H179961   2.189   2.230   4.799  1.0007 -0.8670  1.9443
19490TIP3    H279962   2.331   2.204   4.753  0.5047  0.0302 -0.2172
19491TIP3   OH279963   4.731   2.616   0.949  0.6076  0.1591 -0.0779
19491TIP3    H179964   4.680   2.536   0.935  1.3775 -0.4601  0.5619
19491TIP3    H279965   4.748   2.649   0.861  0.2684 -0.3638 -0.3475
19492TIP3   OH279966   2.069   4.056   1.226 -0.0779 -0.4104 -0.1235
19492TIP3    H179967   2.062   3.964   1.251  0.0699 -0.3980 -0.0363
19492TIP3    H279968   2.080   4.054   1.131  2.7577 -0.6364  0.1167
19493TIP3   OH279969   4.860   1.059  15.041  0.5109 -0.2028 -0.1050
19493TIP3    H179970   4.923   1.130  15.026  0.7569 -0.1140  1.1893
19493TIP3    H279971   4.901   1.005  15.109 -0.6632 -0.3214  0.5393
19494TIP3   OH279972   0.455   0.291  14.732  0.2285  0.6336  0.0237
19494TIP3    H179973   0.431   0.361  14.793 -1.3166  1.7953 -1.8241
19494TIP3    H279974   0.529   0.326  14.683 -0.8440  1.2298 -1.2276
19495TIP3   OH279975   5.933   6.151  15.916  0.3149 -0.2017  0.4837
19495TIP3    H179976   5.940   6.079  15.853 -0.4180 -2.6581  2.9763
19495TIP3    H279977   5.858   6.201  15.887  0.2572 -0.9959 -0.8280
19496TIP3   OH279978   6.567   6.111   6.051 -0.3166  0.4038 -0.6396
19496TIP3    H179979   6.653   6.086   6.083  0.6667  0.8925 -2.7439
19496TIP3    H279980   6.509   6.042   6.081  0.8889 -0.1976  0.3793
19497TIP3   OH279981   0.586   2.285  10.639 -0.3494  0.2915  0.6758
19497TIP3    H179982   0.679   2.294  10.618  0.2631 -0.5205  2.7988
19497TIP3    H279983   0.554   2.375  10.647  0.5376  0.5832  1.0477
19498TIP3   OH279984   2.532   4.887  11.163  0.0173 -0.2009 -0.4338
19498TIP3    H179985   2.567   4.866  11.250  1.0648 -0.1114 -0.8121
19498TIP3    H279986   2.584   4.962  11.134 -0.3904 -0.1690 -1.0966
19499TIP3   OH279987   5.853   2.587   1.062  0.2150  0.3226 -0.0795
19499TIP3    H179988   5.816   2.675   1.058 -1.1004 -0.2411 -0.9181
19499TIP3    H279989   5.870   2.564   0.971 -2.3072 -1.4031 -0.2293
19500TIP3   OH279990   6.507   0.894   2.938  0.1596 -0.0349  0.1218
19500TIP3    H179991   6.478   0.985   2.946  0.3093  0.1433 -1.1881
19500TIP3    H279992   6.431   0.843   2.968 -0.7504  0.4827 -1.2007
19501TIP3   OH279993   4.467   4.980   1.065  0.2117 -0.4326 -0.0314
19501TIP3    H179994   4.417   5.040   1.010 -1.4162 -2.2027 -0.5776
19501TIP3    H279995   4.436   4.997   1.154 -1.3329 -1.4370 -0.3551
19502TIP3   OH279996   2.408   1.345  14.969 -0.5097  0.0923 -0.1319
19502TIP3    H179997   2.484   1.398  14.992  1.5450 -2.2158 -1.1397
19502TIP3    H279998   2.347   1.407  14.928  0.9854  1.9401  0.3060
19503TIP3   OH279999   2.971   4.506   2.454  0.3083  0.1652  0.2969
19503TIP3    H180000   2.960   4.522   2.547  1.5561  1.8046  0.2025
19503TIP3    H280001   3.059   4.538   2.434 -0.7234  1.9706 -1.8491
19504TIP3   OH280002   3.364   6.151   1.960 -0.4565 -0.3019  0.3663
19504TIP3    H180003   3.374   6.056   1.968  1.1495 -0.0757  1.4466
19504TIP3    H280004   3.319   6.177   2.040  1.8296  0.1450  1.6112
19505TIP3   OH280005   1.336   2.934  11.061  0.4673 -0.7728 -0.2279
19505TIP3    H180006   1.334   2.848  11.103  1.4755 -0.2121  1.0292
19505TIP3    H280007   1.266   2.930  10.995 -0.2404 -2.1611  0.5602
19506TIP3   OH280008   5.051   1.135   1.466  0.1141  0.0725 -0.1978
19506TIP3    H180009   5.112   1.182   1.408 -2.4105 -0.0432 -3.1927
19506TIP3    H280010   5.044   1.048   1.427 -1.2206 -0.2154  0.6301
19507TIP3   OH280011   1.984   2.478   0.857 -0.3237 -0.0437  0.4920
19507TIP3    H180012   1.989   2.396   0.905 -0.5143  0.4287  1.3276
19507TIP3    H280013   2.048   2.535   0.900  0.1352  0.1089 -0.3667
19508TIP3   OH280014   1.392   5.619   3.300  0.5266 -0.5584  0.2608
19508TIP3    H180015   1.387   5.588   3.390  0.2725 -0.7929  0.1675
19508TIP3    H280016   1.314   5.674   3.289 -1.6998 -3.6490 -0.9798
19509TIP3   OH280017   0.009   0.309  12.155 -0.5114 -0.0312 -0.5167
19509TIP3    H180018  -0.082   0.286  12.175  0.2113 -1.9017  0.8624
19509TIP3    H280019   0.007   0.331  12.062 -2.6108  1.4209 -0.2129
19510TIP3   OH280020   5.571   2.674  12.913  0.6138 -0.0481 -0.2815
19510TIP3    H180021   5.651   2.666  12.861 -1.3082 -1.7453 -3.2703
19510TIP3    H280022   5.525   2.591  12.898 -2.3646  1.4135  0.1174
19511TIP3   OH280023   1.543   0.922   4.126 -0.1050  0.0993  0.6537
19511TIP3    H180024   1.466   0.977   4.134 -0.0397  0.3130 -0.1140
19511TIP3    H280025   1.533   0.856   4.195  0.0749  1.3583  1.9469
19512TIP3   OH280026   5.921   3.199   3.967 -0.2969 -0.1036 -0.4915
19512TIP3    H180027   5.877   3.150   4.036 -0.4665  1.1748  0.3570
19512TIP3    H280028   5.861   3.271   3.948  1.3955  1.7916  0.8138
19513TIP3   OH280029   2.720   0.553  12.172 -0.1526 -0.0527 -0.4683
19513TIP3    H180030   2.752   0.584  12.087 -0.5716  1.4811 -0.1007
19513TIP3    H280031   2.624   0.557  12.164 -0.1957  0.9675  0.3483
19514TIP3   OH280032   4.996   3.676  15.363  0.4041 -0.0173 -0.3442
19514TIP3    H180033   5.052   3.705  15.292 -1.1057  0.6509 -1.3070
19514TIP3    H280034   5.025   3.726  15.439  0.3965  1.1444 -1.0839
19515TIP3   OH280035   6.421   5.904   6.179 -0.0475  0.0692 -0.3713
19515TIP3    H180036   6.355   5.834   6.182 -3.0292  2.6834  0.2151
19515TIP3    H280037   6.396   5.963   6.250  2.4330  1.6974 -0.7507
19516TIP3   OH280038   2.591   4.114  11.331 -0.3932  0.4230 -0.0178
19516TIP3    H180039   2.527   4.106  11.260 -0.1755 -1.6415 -0.0593
19516TIP3    H280040   2.672   4.141  11.288 -0.4011 -0.2777 -0.4909
19517TIP3   OH280041   4.595   4.095   3.192 -0.6451 -0.6351  0.0610
19517TIP3    H180042   4.673   4.139   3.226  0.0098 -0.6106 -1.3743
19517TIP3    H280043   4.547   4.068   3.270  0.2981  0.2255  0.9820
19518TIP3   OH280044   3.724   6.240  15.691  0.5899  0.6099 -0.0751
19518TIP3    H180045   3.704   6.332  15.712 -3.7447 -0.1775  0.1285
19518TIP3    H280046   3.653   6.190  15.730  0.4826 -2.4662 -3.6392
19519TIP3   OH280047   1.283   0.054  13.606  0.2071 -0.3565  0.0074
19519TIP3    H180048   1.365   0.006  13.597  0.6747 -0.0859  2.3689
19519TIP3    H280049   1.301   0.141  13.570  0.4220 -0.8049 -1.0008
19520TIP3   OH280050   1.651   4.273   4.211 -0.6546 -0.2833 -0.1466
19520TIP3    H180051   1.612   4.188   4.234  1.0911 -1.2657 -0.6432
19520TIP3    H280052   1.643   4.326   4.291  0.1597 -1.6710  0.9083
19521TIP3   OH280053   5.265   4.713   2.160 -0.6903 -0.4627  0.4287
19521TIP3    H180054   5.216   4.796   2.160 -1.1879 -0.7385 -0.7376
19521TIP3    H280055   5.342   4.731   2.213 -1.1828  0.5150  0.8480
19522TIP3   OH280056   6.688   4.476  11.875 -0.9117  0.3419  0.2228
19522TIP3    H180057   6.624   4.451  11.809 -2.2511 -1.4292  2.0694
19522TIP3    H280058   6.655   4.559  11.911 -1.3023  0.2427  0.0869
19523TIP3   OH280059   3.766   3.225  13.314  0.1259 -0.0664 -0.2464
19523TIP3    H180060   3.732   3.228  13.404  2.2167 -0.4520  0.6322
19523TIP3    H280061   3.797   3.135  13.303  0.9447  0.2826 -0.9160
19524TIP3   OH280062   0.302   3.963  16.412  0.2139 -0.1869  0.5800
19524TIP3    H180063   0.328   4.037  16.467  0.0792 -0.7441  1.4037
19524TIP3    H280064   0.245   4.002  16.346 -0.3293  0.3682  1.3499
19525TIP3   OH280065   2.615   6.278   0.524 -1.1403  0.3387 -0.2951
19525TIP3    H180066   2.661   6.194   0.520  0.9761  1.4332 -3.2044
19525TIP3    H280067   2.522   6.255   0.520 -0.6921 -1.8708  0.6646
19526TIP3   OH280068   0.575   4.094   5.519  0.3137 -1.1121 -0.2896
19526TIP3    H180069   0.559   4.152   5.444  1.9466 -2.4592 -1.7712
19526TIP3    H280070   0.490   4.086   5.562  0.0248  2.4007  0.0803
19527TIP3   OH280071   6.025   6.087  13.088  0.3789 -0.2533  0.0724
19527TIP3    H180072   6.079   6.112  13.163  0.7412  1.5217 -0.7117
19527TIP3    H280073   6.087   6.079  13.015 -0.2355  0.5563 -0.5644
19528TIP3   OH280074   3.299   4.793   3.224  0.4747 -0.2698  0.2627
19528TIP3    H180075   3.308   4.700   3.201  1.2581 -1.1128  3.4187
19528TIP3    H280076   3.335   4.798   3.313  0.4544  3.0924  0.1732
19529TIP3   OH280077   0.551   3.906  10.687  0.1003  0.4086 -0.1851
19529TIP3    H180078   0.559   3.989  10.640  0.5866  0.0490 -0.7436
19529TIP3    H280079   0.508   3.847  10.625  0.5589 -0.0091 -0.1095
19530TIP3   OH280080   0.411   4.856   1.385 -0.1389 -0.4939  0.1453
19530TIP3    H180081   0.373   4.899   1.308  1.4917  1.5102  0.3680
19530TIP3    H280082   0.462   4.783   1.349 -1.0140 -0.8173 -0.4766
19531TIP3   OH280083   4.776   3.559  13.052 -0.1261  0.0404 -0.3997
19531TIP3    H180084   4.763   3.542  13.146  0.7370  1.1754 -0.0461
19531TIP3    H280085   4.792   3.653  13.048 -1.5093  0.2523 -1.8653
19532TIP3   OH280086   1.054   6.171  12.135 -0.5174 -0.5176  0.3680
19532TIP3    H180087   1.093   6.237  12.192  0.6765 -0.4851 -0.4686
19532TIP3    H280088   1.103   6.091  12.155  2.2500  0.1660 -2.8670
19533TIP3   OH280089   5.716   6.021  16.383 -0.0523  0.0642 -0.4252
19533TIP3    H180090   5.665   6.098  16.409 -0.1094  0.4184 -1.5276
19533TIP3    H280091   5.790   6.056  16.335  1.1632 -0.4641  0.9938
19534TIP3   OH280092   0.718   6.400  16.586  0.3954  0.0499 -0.2979
19534TIP3    H180093   0.625   6.382  16.580  0.2402  0.9808 -0.9171
19534TIP3    H280094   0.741   6.383  16.678 -0.5544  0.5885  0.0500
19535TIP3   OH280095   4.625   3.508   2.550  0.3235 -0.2502  0.4853
19535TIP3    H180096   4.663   3.578   2.603  0.9554 -3.0632  4.2083
19535TIP3    H280097   4.532   3.531   2.544  1.1153  3.0534 -2.4835
19536TIP3   OH280098   1.012   4.398   3.633 -0.2621 -0.5141 -0.3857
19536TIP3    H180099   1.036   4.439   3.716 -2.1185  1.4580 -0.7317
19536TIP3    H280100   1.086   4.415   3.575  0.2859 -0.3092  0.3649
19537TIP3   OH280101   4.653   1.959  11.295  0.2922 -0.4340  0.1874
19537TIP3    H180102   4.712   1.979  11.222 -1.3592  1.0856 -0.8341
19537TIP3    H280103   4.596   1.890  11.261 -0.8027  0.6171 -0.2267
19538TIP3   OH280104   4.163   3.220  15.609 -0.5820 -0.1136  0.3614
19538TIP3    H180105   4.124   3.194  15.526 -0.5256 -0.5512  0.4663
19538TIP3    H280106   4.121   3.162  15.674 -1.8697  1.3304  0.8830
19539TIP3   OH280107   6.682   2.789  11.153  0.8098 -0.2878  0.3881
19539TIP3    H180108   6.645   2.734  11.084  2.1398  3.1362 -3.4057
19539TIP3    H280109   6.732   2.728  11.207 -0.0651 -3.1797 -1.7979
19540TIP3   OH280110   2.504   2.704   0.411  0.5735  0.3711 -0.2843
19540TIP3    H180111   2.428   2.690   0.355  1.3894 -2.2059 -0.8519
19540TIP3    H280112   2.578   2.701   0.351  1.2625  1.0622  0.5101
19541TIP3   OH280113   4.778   4.525  15.188 -0.1282  0.0764  0.3493
19541TIP3    H180114   4.699   4.561  15.228 -0.6206 -0.3332 -0.2393
19541TIP3    H280115   4.830   4.494  15.262 -1.3391 -1.3155  0.6565
19542TIP3   OH280116   4.811   1.112  15.779 -0.0114 -0.3515  0.0411
19542TIP3    H180117   4.741   1.048  15.769  0.2661 -1.1249  2.5213
19542TIP3    H280118   4.891   1.064  15.758 -0.1374  1.0256 -4.8239
19543TIP3   OH280119   4.400   4.511  12.583 -0.2679  0.1078 -0.1733
19543TIP3    H180120   4.483   4.542  12.546  0.4776 -0.7865  0.6911
19543TIP3    H280121   4.333   4.550  12.527  0.7191  1.0636 -0.7358
19544TIP3   OH280122   2.715   3.470  15.798  0.2571 -0.2588 -0.3717
19544TIP3    H180123   2.782   3.412  15.835 -0.3547 -2.4643 -2.4422
19544TIP3    H280124   2.650   3.480  15.868  0.2621 -2.3589  0.0148
19545TIP3   OH280125   3.419   0.237   0.277 -0.2965 -0.2579 -0.0571
19545TIP3    H180126   3.470   0.306   0.235 -1.5895 -0.8159 -2.6994
19545TIP3    H280127   3.467   0.157   0.258 -1.0349 -0.5464 -0.7694
19546TIP3   OH280128   0.207   5.877   2.899  0.2895  0.2436  0.6850
19546TIP3    H180129   0.260   5.957   2.896  0.2051  0.4949  3.3057
19546TIP3    H280130   0.262   5.814   2.945  0.1489 -1.1178 -0.9147
19547TIP3   OH280131   3.285   1.497  11.073  0.0349 -0.0968  0.4345
19547TIP3    H180132   3.236   1.439  11.016 -0.0896  1.7521 -1.4868
19547TIP3    H280133   3.223   1.567  11.095  0.2582 -0.4731  2.4089
19548TIP3   OH280134   5.644   5.234  13.830  0.2654 -0.6441  0.0520
19548TIP3    H180135   5.638   5.244  13.735 -0.2461 -2.4386 -0.1528
19548TIP3    H280136   5.737   5.221  13.847  0.2679 -1.2160 -0.3409
19549TIP3   OH280137   6.020   3.781  13.006  0.3159  0.4039 -0.2571
19549TIP3    H180138   6.043   3.783  13.099 -0.1763 -1.3247 -0.0530
19549TIP3    H280139   6.072   3.851  12.967  3.4983 -1.2201  0.7240
19550TIP3   OH280140   4.895   6.029  11.368 -0.0643 -0.0013 -0.0228
19550TIP3    H180141   4.814   5.999  11.328 -0.6854  1.9805 -0.3618
19550TIP3    H280142   4.957   5.956  11.356 -1.9049 -1.7817  0.7499
19551TIP3   OH280143   1.886   5.098  14.245  0.5362  0.2410 -0.3226
19551TIP3    H180144   1.932   5.018  14.269  0.7813 -0.1459 -1.9284
19551TIP3    H280145   1.952   5.152  14.201  0.1203  0.8705 -0.1898
19552TIP3   OH280146   1.523   4.597   3.572 -0.0694 -0.1529  0.0832
19552TIP3    H180147   1.564   4.618   3.489 -0.6329 -0.4158 -0.2718
19552TIP3    H280148   1.596   4.580   3.632  0.3388 -0.0444 -0.3792
19553TIP3   OH280149   1.080   6.252  11.580  0.5395 -0.4888 -0.0008
19553TIP3    H180150   1.017   6.240  11.651 -0.4869 -0.6399 -0.9206
19553TIP3    H280151   1.032   6.300  11.513  1.6269  0.0402 -0.4280
19554TIP3   OH280152   5.156   4.424  14.856 -0.0743  0.9056 -0.2751
19554TIP3    H180153   5.244   4.388  14.869 -0.6478 -0.1273  1.0532
19554TIP3    H280154   5.168   4.519  14.863  0.5218  0.7131  3.3593
19555TIP3   OH280155   3.217   2.210  14.083  0.1173  0.3135 -0.2371
19555TIP3    H180156   3.201   2.279  14.148  0.7639 -0.5163  0.8518
19555TIP3    H280157   3.249   2.136  14.135  1.2790 -0.1746 -1.5886
19556TIP3   OH280158   4.359   0.556   4.395 -0.2376  0.6434 -0.1863
19556TIP3    H180159   4.375   0.584   4.485 -0.8158  2.2862 -0.5694
19556TIP3    H280160   4.278   0.506   4.400 -0.5405  1.1593  0.1348
19557TIP3   OH280161   6.791   0.718  13.603  0.5080  0.1627  0.1873
19557TIP3    H180162   6.733   0.702  13.528  0.8409 -0.1063 -0.0225
19557TIP3    H280163   6.752   0.669  13.675 -1.1464  2.3388  0.8740
19558TIP3   OH280164   4.116   2.014  13.900  0.4474  0.3957 -0.1161
19558TIP3    H180165   4.097   1.962  13.822  2.8787 -0.9788  0.1006
19558TIP3    H280166   4.102   1.954  13.973  2.9077  0.0321  0.1586
19559TIP3   OH280167   2.912   0.375   3.070  0.4481 -0.4673 -0.2314
19559TIP3    H180168   2.818   0.358   3.065  0.0595  0.9338  1.3963
19559TIP3    H280169   2.952   0.299   3.029 -1.3326 -2.0315  0.7662
19560TIP3   OH280170   2.111   4.113  16.347 -0.2805 -0.5979  0.1463
19560TIP3    H180171   2.206   4.129  16.345 -0.5466  1.1694 -0.5402
19560TIP3    H280172   2.081   4.139  16.260 -1.4067 -1.1913  0.3426
19561TIP3   OH280173   3.236   6.392   4.785 -0.0466 -0.0498 -0.5766
19561TIP3    H180174   3.232   6.316   4.727  1.3071  1.4603 -2.7845
19561TIP3    H280175   3.308   6.375   4.844 -0.6168 -1.0474 -0.1527
19562TIP3   OH280176   3.985   1.747  11.032  0.1901  0.6201  0.3679
19562TIP3    H180177   4.045   1.822  11.035  0.4535  0.8020 -3.8711
19562TIP3    H280178   3.898   1.785  11.034  0.3171  0.9764 -0.5166
19563TIP3   OH280179   4.377   5.963   1.369 -1.1036  1.0640 -0.2475
19563TIP3    H180180   4.431   6.023   1.318 -0.3220  0.8931  0.3484
19563TIP3    H280181   4.300   6.014   1.393 -0.9417  1.4958 -0.6443
19564TIP3   OH280182   1.987   4.891   5.005 -0.4319  0.5421 -0.3346
19564TIP3    H180183   1.898   4.866   4.980  0.0801 -0.6032 -1.0925
19564TIP3    H280184   1.975   4.963   5.067 -1.8642  0.9495 -1.0339
19565TIP3   OH280185   3.933   0.871  12.649 -0.0102 -0.2729  0.4044
19565TIP3    H180186   4.005   0.878  12.711 -0.8194 -1.1021  1.4719
19565TIP3    H280187   3.921   0.776  12.637 -0.6553 -0.1350 -0.0907
19566TIP3   OH280188   3.558   2.383   4.502  0.1301 -0.6267  0.2556
19566TIP3    H180189   3.463   2.382   4.497  0.1329 -0.4976  0.1904
19566TIP3    H280190   3.586   2.318   4.437  0.1975  1.5354 -2.0221
19567TIP3   OH280191   4.229   2.159   4.670  0.7448 -0.3871 -0.1998
19567TIP3    H180192   4.240   2.100   4.596  0.7830 -0.9249  0.2322
19567TIP3    H280193   4.287   2.233   4.651 -0.1704  0.0730 -1.3043
19568TIP3   OH280194   5.794   6.108   5.843 -0.1467  0.2033 -0.3549
19568TIP3    H180195   5.731   6.115   5.771 -0.0416 -1.7781 -0.7013
19568TIP3    H280196   5.741   6.111   5.922 -0.6130 -0.6726 -0.6210
19569TIP3   OH280197   4.738   0.912  14.208 -0.0746 -0.3722 -0.5935
19569TIP3    H180198   4.797   0.839  14.189  0.8707  0.5983 -1.5645
19569TIP3    H280199   4.791   0.975  14.256 -0.5126  0.2060 -0.8471
19570TIP3   OH280200   4.506   3.424   6.563 -0.3348  0.4295 -0.1841
19570TIP3    H180201   4.569   3.494   6.580 -0.3646  0.4157 -0.0209
19570TIP3    H280202   4.467   3.405   6.648  0.0648 -0.1652 -0.1242
19571TIP3   OH280203   6.538   4.933  11.008  0.1730  0.6014 -0.0272
19571TIP3    H180204   6.560   4.993  11.080  1.5277  0.4277 -0.2747
19571TIP3    H280205   6.617   4.930  10.954  0.6714 -2.4340  0.6796
19572TIP3   OH280206   1.478   6.380  15.095  0.1117  0.9204  0.5093
19572TIP3    H180207   1.489   6.377  15.000 -1.7188  1.0744  0.2542
19572TIP3    H280208   1.489   6.289  15.124 -2.8950  0.1465 -0.3786
19573TIP3   OH280209   4.269   3.733  14.605  0.4602 -0.1638  0.1959
19573TIP3    H180210   4.324   3.802  14.642  0.7173 -0.3303  0.1260
19573TIP3    H280211   4.218   3.777  14.537  2.8953 -0.6365 -2.1026
19574TIP3   OH280212   1.288   1.805  14.100 -0.3412  0.3506  0.3979
19574TIP3    H180213   1.257   1.848  14.180  3.0651 -0.3809  2.3089
19574TIP3    H280214   1.370   1.849  14.079  0.5062 -1.6349 -0.7320
19575TIP3   OH280215   2.771   2.602   1.908  0.0685  0.0418 -0.5255
19575TIP3    H180216   2.839   2.670   1.913  0.7314 -0.6322 -0.2165
19575TIP3    H280217   2.811   2.525   1.948 -1.8350  0.3850  2.3187
19576TIP3   OH280218   1.935   3.191  16.987  0.0170 -0.1682 -0.3966
19576TIP3    H180219   1.958   3.111  17.033  1.3405 -0.8445 -2.1017
19576TIP3    H280220   2.018   3.234  16.971 -0.6532  1.4169  0.2113
19577TIP3   OH280221   5.920   3.590  13.327  0.2891  0.2485  0.4657
19577TIP3    H180222   5.993   3.644  13.296 -0.3273  1.3726  0.8901
19577TIP3    H280223   5.943   3.567  13.417  0.1529  0.5523  0.5792
19578TIP3   OH280224   0.525   0.226  11.880 -0.0151 -0.1637 -1.0387
19578TIP3    H180225   0.573   0.202  11.801  1.0905  0.2891 -0.5269
19578TIP3    H280226   0.470   0.300  11.853  1.9104  1.3915 -0.9324
19579TIP3   OH280227   1.016   3.585   4.967  0.2910  0.2333  0.7975
19579TIP3    H180228   0.930   3.546   4.977  0.6691 -0.4131  1.6372
19579TIP3    H280229   1.011   3.633   4.884 -0.5340 -0.6697  0.3004
19580TIP3   OH280230   0.547   4.845   0.612  0.1107 -0.4627 -0.5141
19580TIP3    H180231   0.570   4.883   0.527 -1.2562  0.1047 -0.6622
19580TIP3    H280232   0.557   4.917   0.674  2.3415 -1.1936  0.0690
19581TIP3   OH280233   1.396   4.691  15.961 -0.8060  0.1897 -0.8232
19581TIP3    H180234   1.314   4.715  15.919  0.0730  1.4938 -1.8777
19581TIP3    H280235   1.454   4.767  15.947  0.2488 -0.2664  0.7874
19582TIP3   OH280236   3.262   2.417   3.490 -0.0321  0.2647  0.4570
19582TIP3    H180237   3.280   2.509   3.469 -2.1742  0.3536 -1.3198
19582TIP3    H280238   3.186   2.421   3.548  0.7077 -0.3743  1.4994
19583TIP3   OH280239   6.664   0.086   0.092  0.3631  0.0444  0.4139
19583TIP3    H180240   6.586   0.126   0.130 -0.4385 -0.8233 -0.2715
19583TIP3    H280241   6.718   0.062   0.167 -0.7983 -0.8556  0.9962
19584TIP3   OH280242   1.138   0.276   1.741 -0.1747 -0.1147 -0.3077
19584TIP3    H180243   1.085   0.265   1.820  0.8372 -0.1765  0.3741
19584TIP3    H280244   1.228   0.265   1.771  0.1997 -0.5059 -1.5403
19585TIP3   OH280245   3.877   2.897  16.332  0.2940  0.6637 -0.2189
19585TIP3    H180246   3.958   2.890  16.383 -0.0310 -1.6167  0.1109
19585TIP3    H280247   3.846   2.807  16.325 -2.3599  1.5013 -0.1628
19586TIP3   OH280248   3.380   0.105  13.514 -0.2162  0.1491  0.0945
19586TIP3    H180249   3.294   0.068  13.530 -0.6927  0.6676 -1.1237
19586TIP3    H280250   3.437   0.029  13.500 -0.2318 -0.2295  1.9471
19587TIP3   OH280251   2.040   2.790  16.412  0.7953  0.0187  0.3133
19587TIP3    H180252   1.962   2.798  16.357  0.9515 -0.1894  0.0607
19587TIP3    H280253   2.084   2.875  16.404 -1.3624  1.6696  3.5109
19588TIP3   OH280254   5.947   3.045   4.971 -0.6481  0.1345 -0.4805
19588TIP3    H180255   5.852   3.051   4.983 -0.6605 -1.6271  0.6074
19588TIP3    H280256   5.977   2.991   5.043  1.2102  0.6699 -0.8090
19589TIP3   OH280257   0.410   4.237  11.650 -0.1683 -0.6779 -0.3859
19589TIP3    H180258   0.436   4.230  11.742  1.0190 -0.5989 -0.7004
19589TIP3    H280259   0.432   4.327  11.625 -0.4580 -0.7087 -0.7649
19590TIP3   OH280260   5.189   3.063   7.101  0.0299  0.3997 -0.3536
19590TIP3    H180261   5.274   3.022   7.118 -0.8135 -1.0206  0.6968
19590TIP3    H280262   5.152   3.011   7.029  0.3062  1.4335 -1.2617
19591TIP3   OH280263   0.465   3.120  15.736 -0.3593  0.3717  0.0107
19591TIP3    H180264   0.503   3.054  15.677 -2.0899 -1.7597  1.1599
19591TIP3    H280265   0.385   3.148  15.692  0.4440  1.9448 -0.5515
19592TIP3   OH280266   1.556   1.355  11.708  0.0115 -0.1793  0.4295
19592TIP3    H180267   1.507   1.428  11.669  0.1332 -0.8972 -1.1558
19592TIP3    H280268   1.492   1.284  11.716 -0.0520 -0.0053  1.7559
19593TIP3   OH280269   6.301   2.414  11.790  1.1696  0.5701 -0.1218
19593TIP3    H180270   6.207   2.415  11.810  1.6138 -0.1793  2.3056
19593TIP3    H280271   6.324   2.507  11.782  0.1011  0.7546 -1.7175
19594TIP3   OH280272   5.076   2.343  13.366  0.3209 -0.0336  0.1130
19594TIP3    H180273   5.120   2.266  13.402  0.1609 -0.1386  0.0860
19594TIP3    H280274   5.072   2.405  13.439 -2.5040 -1.2701  1.1631
19595TIP3   OH280275   0.277   3.351  11.682  0.3929  0.5970 -0.0202
19595TIP3    H180276   0.306   3.361  11.592  0.5037 -0.5121 -0.1171
19595TIP3    H280277   0.246   3.439  11.707  0.7168  1.0019 -0.9973
19596TIP3   OH280278   6.320   1.257  10.618  0.2370 -0.2293  0.4123
19596TIP3    H180279   6.269   1.180  10.643  0.1825 -0.5123 -0.5340
19596TIP3    H280280   6.256   1.319  10.584  0.1475  0.6474  2.0437
19597TIP3   OH280281   2.683   1.890   3.686  0.2238 -0.4454  0.1818
19597TIP3    H180282   2.611   1.921   3.631 -1.8072  1.1870  3.4084
19597TIP3    H280283   2.719   1.969   3.726  1.4047 -1.5120  1.3470
19598TIP3   OH280284   6.814   2.493   3.449 -0.2782  0.4452  0.2367
19598TIP3    H180285   6.771   2.409   3.432  0.9607 -0.5871  1.8555
19598TIP3    H280286   6.815   2.501   3.544  2.7230  0.5174  0.3177
19599TIP3   OH280287   5.726   4.106  14.602 -0.3652 -0.2338  0.4892
19599TIP3    H180288   5.780   4.126  14.678  0.1367  1.3167 -0.2296
19599TIP3    H280289   5.787   4.065  14.540 -0.1571  0.7793 -0.0074
19600TIP3   OH280290   5.575   0.403  13.293  0.1918 -0.2903 -0.2646
19600TIP3    H180291   5.611   0.491  13.305  0.5475  0.0852 -3.2957
19600TIP3    H280292   5.522   0.388  13.371  1.0106  2.1402  0.8692
19601TIP3   OH280293   3.358   0.784   0.252  0.3812  0.0369 -0.3358
19601TIP3    H180294   3.349   0.876   0.231  0.4692 -0.1592 -1.2732
19601TIP3    H280295   3.452   0.768   0.253  0.3670 -0.0451 -0.1789
19602TIP3   OH280296   1.769   4.049   4.955 -0.0276 -0.0065  0.2116
19602TIP3    H180297   1.721   3.966   4.959  0.2066 -0.1479  0.1004
19602TIP3    H280298   1.854   4.025   4.918 -0.8983  0.6934 -2.4146
19603TIP3   OH280299   6.552   1.666   6.189  0.1899 -0.1732 -0.4048
19603TIP3    H180300   6.485   1.670   6.257  0.2318 -0.0929 -0.3678
19603TIP3    H280301   6.620   1.609   6.225 -0.4768 -1.3724 -0.9893
19604TIP3   OH280302   0.306   5.597  15.451 -0.1099  0.3679 -0.2565
19604TIP3    H180303   0.316   5.502  15.462 -1.3543  0.2028 -0.4091
19604TIP3    H280304   0.375   5.621  15.390 -0.0561 -0.5257 -0.5702
19605TIP3   OH280305   3.938   1.241   1.206 -0.1450  0.3453  0.0640
19605TIP3    H180306   3.852   1.255   1.166 -0.2097  1.9231  0.6792
19605TIP3    H280307   3.999   1.282   1.144  0.1519 -0.5925 -0.2713
19606TIP3   OH280308   5.473   6.436  14.601 -0.1228  0.3735 -0.4394
19606TIP3    H180309   5.535   6.505  14.577 -0.3289  1.1954  1.2672
19606TIP3    H280310   5.405   6.439  14.534  0.7851  0.6103 -1.3719
19607TIP3   OH280311   6.060   0.293  12.710 -0.0456 -0.5758 -0.3070
19607TIP3    H180312   5.989   0.287  12.646 -1.6324 -0.6055  1.3676
19607TIP3    H280313   6.073   0.203  12.739  0.8904 -0.6070 -0.7854
19608TIP3   OH280314   5.280   3.830   5.237  0.4776 -0.8046 -0.5452
19608TIP3    H180315   5.358   3.838   5.182  0.6763 -1.6698 -0.4149
19608TIP3    H280316   5.211   3.875   5.188  1.0054 -0.2381 -0.7733
19609TIP3   OH280317   6.685   2.666  13.043  0.0707  0.6523  0.1502
19609TIP3    H180318   6.769   2.710  13.036 -0.2698  1.1626 -0.9259
19609TIP3    H280319   6.620   2.734  13.026 -0.4566 -0.2721 -1.9308
19610TIP3   OH280320   4.018   4.459  12.482  0.1924 -0.2448 -0.2319
19610TIP3    H180321   4.058   4.508  12.409 -0.0971  1.2034  0.5525
19610TIP3    H280322   4.060   4.496  12.560 -0.6004 -0.7289  0.4231
19611TIP3   OH280323   3.772   0.359   2.130  0.5118  0.2971 -0.5360
19611TIP3    H180324   3.820   0.441   2.117  0.1109  0.2829 -2.3511
19611TIP3    H280325   3.682   0.387   2.146  0.0391  0.2347 -2.7755
19612TIP3   OH280326   1.279   6.492  14.722 -0.1154 -0.1008 -0.2615
19612TIP3    H180327   1.198   6.534  14.693 -0.0812  1.0912  1.2618
19612TIP3    H280328   1.348   6.555  14.703  0.2124 -0.3178  0.1845
19613TIP3   OH280329   4.987   1.534  13.168 -0.0229 -0.2452 -0.8228
19613TIP3    H180330   4.965   1.456  13.117 -0.9620 -1.0466  0.7169
19613TIP3    H280331   5.065   1.509  13.217 -0.3259 -0.2482 -0.3250
19614TIP3   OH280332   2.481   5.129   2.643  0.7974  0.0103 -0.2403
19614TIP3    H180333   2.429   5.066   2.594 -1.8044  1.5881  0.2674
19614TIP3    H280334   2.516   5.080   2.717  0.0135 -1.1325 -0.6098
19615TIP3   OH280335   2.347   2.975  14.828 -0.1332  0.4364 -0.5939
19615TIP3    H180336   2.303   2.919  14.764 -0.0126 -0.3860  0.0234
19615TIP3    H280337   2.348   3.062  14.788 -1.6731  0.3209 -0.9268
19616TIP3   OH280338   0.896   4.608   4.947 -0.2064  0.4984  0.4332
19616TIP3    H180339   0.943   4.686   4.919 -2.6165  2.0916  0.4901
19616TIP3    H280340   0.889   4.554   4.868 -0.5225  1.4519 -0.2046
19617TIP3   OH280341   5.423   2.337  15.453 -0.1846  0.5403  0.0479
19617TIP3    H180342   5.366   2.389  15.397 -1.2405  1.1668  1.6217
19617TIP3    H280343   5.363   2.280  15.501  0.6131  0.4905  1.0176
19618TIP3   OH280344   3.944   2.780  12.911  0.2706  0.2325  0.2900
19618TIP3    H180345   3.999   2.833  12.968  0.9488 -0.9469  0.7841
19618TIP3    H280346   3.981   2.791  12.824  0.6200  0.3089  0.4473
19619TIP3   OH280347   6.037   5.691   1.888 -0.1777 -0.3942 -0.1555
19619TIP3    H180348   6.052   5.726   1.800 -0.1417 -0.5586 -0.2166
19619TIP3    H280349   5.943   5.699   1.902  0.2338  3.7851  1.5670
19620TIP3   OH280350   5.481   2.550  14.491  0.1196 -0.0343 -0.3148
19620TIP3    H180351   5.421   2.496  14.439 -0.2353 -0.9729  1.0226
19620TIP3    H280352   5.471   2.518  14.580 -0.9763  2.9914  0.7805
19621TIP3   OH280353   3.145   1.499   3.971 -0.0502  0.1441 -0.0949
19621TIP3    H180354   3.219   1.438   3.978 -0.8141 -0.6891  0.9866
19621TIP3    H280355   3.163   1.549   3.891  1.3635 -0.4600 -0.1878
19622TIP3   OH280356   0.504   3.411  17.087 -0.0967  0.0138 -0.2460
19622TIP3    H180357   0.562   3.440  17.016  0.0340 -0.4571 -0.3317
19622TIP3    H280358   0.511   3.481  17.152  1.7771 -0.7327  0.4305
19623TIP3   OH280359   0.803   4.111   1.162  0.0788 -0.1155 -0.0829
19623TIP3    H180360   0.784   4.051   1.234  0.8613 -0.1804  0.0707
19623TIP3    H280361   0.815   4.054   1.086  1.6089 -0.2288  0.2213
19624TIP3   OH280362   0.014   3.222   4.298 -0.3582  0.4201  0.0805
19624TIP3    H180363  -0.077   3.198   4.285 -0.0961 -0.3950 -0.3084
19624TIP3    H280364   0.046   3.245   4.211 -0.1842  0.6855  0.2114
19625TIP3   OH280365   1.500   2.695   5.637 -0.0002 -0.3047 -0.0809
19625TIP3    H180366   1.528   2.754   5.706  1.7576  2.3562 -2.7922
19625TIP3    H280367   1.406   2.708   5.630  0.0077  0.3749  0.9566
19626TIP3   OH280368   1.248   2.026   4.405  0.3897  0.0815 -0.5471
19626TIP3    H180369   1.169   2.028   4.352 -0.3735 -1.2352  0.4888
19626TIP3    H280370   1.317   2.056   4.346 -0.6740  0.1052 -1.8180
19627TIP3   OH280371   5.338   0.272  10.774  0.4669 -0.3071  0.0174
19627TIP3    H180372   5.265   0.249  10.716 -0.7343  1.4294  0.7209
19627TIP3    H280373   5.413   0.282  10.716  0.4505 -3.1536 -0.5993
19628TIP3   OH280374   6.757   3.552   2.584  0.1678  0.2754  0.1487
19628TIP3    H180375   6.839   3.599   2.569  1.1571 -1.1781  0.7353
19628TIP3    H280376   6.722   3.536   2.497  1.4313 -0.6240 -0.2243
19629TIP3   OH280377   0.741   2.198   2.964 -0.3321  0.3329  0.0912
19629TIP3    H180378   0.811   2.200   2.899  0.1422 -1.2842  0.5254
19629TIP3    H280379   0.779   2.242   3.041  0.3892 -0.9426  0.4827
19630TIP3   OH280380   1.421   0.523   3.669 -0.4146 -0.1300 -0.0403
19630TIP3    H180381   1.356   0.544   3.736 -0.1032 -1.0608  0.5727
19630TIP3    H280382   1.504   0.520   3.716  0.0938  1.0289 -0.8150
19631TIP3   OH280383   5.190   6.596   5.279  0.0428 -0.8170  0.6390
19631TIP3    H180384   5.262   6.622   5.336 -2.6275  1.4968  3.3243
19631TIP3    H280385   5.165   6.676   5.233 -1.7026 -1.1383  0.9387
19632TIP3   OH280386   3.686   4.023   5.274 -0.0529  0.2905  0.0501
19632TIP3    H180387   3.750   3.954   5.289 -1.1156 -0.4891  1.2174
19632TIP3    H280388   3.710   4.092   5.336  0.8383  0.8913 -0.9209
19633TIP3   OH280389   5.542   6.690  17.192 -0.1795  0.2882 -0.5737
19633TIP3    H180390   5.598   6.766  17.176 -0.1394  0.7669  1.5576
19633TIP3    H280391   5.469   6.724  17.244  1.0181 -1.4162  2.5053
19634TIP3   OH280392   6.621   1.141  16.726  0.4017 -0.1800 -0.9272
19634TIP3    H180393   6.589   1.068  16.673 -0.3117 -1.2055  0.8319
19634TIP3    H280394   6.625   1.106  16.815  1.6541  1.4492 -0.3046
19635TIP3   OH280395   3.796   4.562  12.902  0.1138  0.2912 -0.1808
19635TIP3    H180396   3.707   4.590  12.879  0.5663  0.1527 -2.3556
19635TIP3    H280397   3.788   4.467  12.913 -0.2277  0.4345  0.9428
19636TIP3   OH280398   5.518   0.909   5.521  0.8280  0.1014  0.4305
19636TIP3    H180399   5.557   0.841   5.576 -0.5785 -0.2012  1.1021
19636TIP3    H280400   5.472   0.965   5.582 -1.1905 -0.5185 -0.4423
19637TIP3   OH280401   1.884   5.853   1.395 -0.1372  0.3632  0.1000
19637TIP3    H180402   1.924   5.805   1.468 -0.3943 -0.3129 -0.1940
19637TIP3    H280403   1.873   5.787   1.326 -0.6773  0.8026 -0.2414
19638TIP3   OH280404   5.170   0.158   4.621  0.6196  0.6667 -0.0270
19638TIP3    H180405   5.118   0.133   4.697  0.5167  0.2747 -0.2216
19638TIP3    H280406   5.176   0.253   4.626 -0.1511  0.7249 -0.0184
19639TIP3   OH280407   0.420   5.209  15.169  0.1862  0.1864  0.6873
19639TIP3    H180408   0.382   5.123  15.185  0.7142  0.1525  1.8348
19639TIP3    H280409   0.353   5.256  15.119 -0.2500 -0.7596  0.3575
19640TIP3   OH280410   3.434   2.875  11.579 -0.0047  0.0936  0.5232
19640TIP3    H180411   3.466   2.966  11.576 -0.2087  0.1617  0.3412
19640TIP3    H280412   3.484   2.834  11.650  2.2091 -0.4748 -1.2520
19641TIP3   OH280413   1.704   6.171  15.066 -0.4641 -0.4588 -0.1939
19641TIP3    H180414   1.657   6.104  15.016 -0.5866 -0.5789  0.0853
19641TIP3    H280415   1.738   6.231  14.999 -0.5977 -0.6402 -0.4251
19642TIP3   OH280416   4.462   3.962   1.105  0.6202 -0.0841 -0.3123
19642TIP3    H180417   4.451   4.055   1.127  0.7443 -0.1904  0.2124
19642TIP3    H280418   4.545   3.959   1.058 -0.4868  0.4093 -2.4320
19643TIP3   OH280419   1.808   6.418  16.973  0.0780 -0.2629  0.0362
19643TIP3    H180420   1.865   6.355  17.017  0.7820 -1.0695 -1.9134
19643TIP3    H280421   1.808   6.390  16.882 -1.0920  1.4890 -0.5451
19644TIP3   OH280422   4.805   5.158   4.144  0.4574 -0.3009 -0.8676
19644TIP3    H180423   4.848   5.219   4.084  0.0807 -2.2138 -3.2595
19644TIP3    H280424   4.877   5.114   4.189  0.7875  0.5376 -0.5648
19645TIP3   OH280425   2.237   5.794  11.531 -0.2456  0.8430  0.3166
19645TIP3    H180426   2.301   5.724  11.537 -3.1776 -1.9141  3.1234
19645TIP3    H280427   2.286   5.873  11.555  2.1732 -1.0404  2.0280
19646TIP3   OH280428   2.064   1.888   3.675 -0.0860  0.0441 -0.4547
19646TIP3    H180429   2.064   1.840   3.757 -1.0914 -1.6124 -1.3767
19646TIP3    H280430   2.085   1.823   3.608 -0.9209  0.9891 -1.6956
19647TIP3   OH280431   0.031   5.514   1.590  0.5432  0.0177 -0.2626
19647TIP3    H180432   0.047   5.421   1.605 -0.3466 -0.1895 -0.5233
19647TIP3    H280433   0.010   5.520   1.497  0.8993  0.5268 -0.3131
19648TIP3   OH280434   0.953   1.480   1.928 -0.1182 -0.0644  0.9225
19648TIP3    H180435   1.002   1.491   2.010  1.3304  0.7616 -0.0164
19648TIP3    H280436   0.951   1.567   1.889  2.3066 -1.0124 -1.5971
19649TIP3   OH280437   1.597   2.493  14.261 -0.5399  0.1288 -0.3908
19649TIP3    H180438   1.638   2.524  14.342 -1.3338 -1.5549  0.7083
19649TIP3    H280439   1.541   2.565  14.234  1.2132  1.5010 -0.5800
19650TIP3   OH280440   0.209   5.321  12.187  0.5187  0.1090  0.2924
19650TIP3    H180441   0.193   5.227  12.197 -0.6746  0.1708 -0.7638
19650TIP3    H280442   0.127   5.355  12.150  1.7189  1.1708 -1.5322
19651TIP3   OH280443   4.437   3.563   2.082 -0.0524 -0.0629  0.5209
19651TIP3    H180444   4.429   3.626   2.154 -0.2798 -0.3318  0.7380
19651TIP3    H280445   4.352   3.568   2.037  0.6480  1.2797 -0.7292
19652TIP3   OH280446   6.174   1.922   3.549 -0.0955 -0.6368  0.1766
19652TIP3    H180447   6.242   1.858   3.570  0.5819 -0.5562 -1.6081
19652TIP3    H280448   6.221   1.995   3.509 -1.0001  0.4575  1.0435
19653TIP3   OH280449   3.739   5.802  16.308  0.2317 -0.1606  0.3011
19653TIP3    H180450   3.679   5.852  16.253  0.0164 -0.2488  0.4560
19653TIP3    H280451   3.820   5.853  16.309 -0.3521  0.7828  1.4135
19654TIP3   OH280452   3.967   6.304   3.059  0.0570 -0.3085 -0.0527
19654TIP3    H180453   3.986   6.383   3.110  0.2573  0.0699 -0.7033
19654TIP3    H280454   3.990   6.232   3.117 -0.9893  0.0809  0.9017
19655TIP3   OH280455   4.644   3.770  12.659 -0.3043 -0.0949  0.4232
19655TIP3    H180456   4.725   3.724  12.683  0.0998 -0.3023 -1.2026
19655TIP3    H280457   4.620   3.732  12.575 -1.0556  1.3001 -0.0075
19656TIP3   OH280458   2.907   4.398  10.670 -0.6379  0.1015 -0.0226
19656TIP3    H180459   2.892   4.484  10.708  1.3572 -0.3245  1.9021
19656TIP3    H280460   2.870   4.337  10.734 -0.3334 -0.5344 -0.4387
19657TIP3   OH280461   5.849   6.681  15.999 -0.2888  0.2451  0.0080
19657TIP3    H180462   5.858   6.655  15.907 -2.0047  0.0387 -0.1212
19657TIP3    H280463   5.844   6.776  15.997 -1.8622  0.1838 -0.2950
19658TIP3   OH280464   4.780   2.887  14.946  0.0153  0.0616 -0.3450
19658TIP3    H180465   4.814   2.975  14.963 -1.0375  0.4221  0.0029
19658TIP3    H280466   4.688   2.902  14.921 -0.6616 -1.0441  1.3429
19659TIP3   OH280467   3.599   4.193   5.771 -0.5644  0.4645 -0.0540
19659TIP3    H180468   3.578   4.280   5.806  0.6809  0.5918  0.4138
19659TIP3    H280469   3.527   4.137   5.801 -0.7156  1.0701  0.7295
19660TIP3   OH280470   2.981   4.249   6.284 -0.4755 -0.3856 -0.1761
19660TIP3    H180471   2.978   4.338   6.249 -1.7231 -0.0232  0.7938
19660TIP3    H280472   3.074   4.229   6.290 -0.1427  1.2474  0.5698
19661TIP3   OH280473   0.156   2.110  12.001 -0.2846  0.2329  0.6440
19661TIP3    H180474   0.115   2.076  11.921  1.3511 -0.4353  0.0567
19661TIP3    H280475   0.112   2.194  12.016 -1.5510 -0.2574 -0.1927
19662TIP3   OH280476   3.458   5.267  13.032 -0.0727 -0.2905  0.2845
19662TIP3    H180477   3.425   5.177  13.038  0.5849 -0.5967 -0.4763
19662TIP3    H280478   3.516   5.266  12.956 -1.4818  1.2387 -0.8897
19663TIP3   OH280479   1.491   6.397   0.152  0.0480  0.1769 -0.8142
19663TIP3    H180480   1.583   6.395   0.179 -0.1669  0.5969 -0.0121
19663TIP3    H280481   1.464   6.306   0.152 -0.2524  0.2063  1.5645
19664TIP3   OH280482   5.507   1.797  11.144 -0.1387 -0.3425 -0.3702
19664TIP3    H180483   5.574   1.752  11.195 -1.1605 -0.7263  0.6964
19664TIP3    H280484   5.455   1.726  11.105 -1.9088 -0.1929  1.5176
19665TIP3   OH280485   5.680   6.621   2.122 -0.2990 -0.1248  0.2735
19665TIP3    H180486   5.607   6.667   2.163  0.1271  2.0692 -1.2635
19665TIP3    H280487   5.739   6.600   2.194 -1.0805  0.6928  1.1816
19666TIP3   OH280488   5.441   5.936  12.041  0.2397  0.0180  0.4290
19666TIP3    H180489   5.515   5.877  12.057  0.5349  0.6201  1.3980
19666TIP3    H280490   5.416   5.967  12.128 -0.7137  0.3669  0.0500
19667TIP3   OH280491   3.008   2.839   2.565  0.1935 -0.0093 -0.0455
19667TIP3    H180492   2.944   2.910   2.555  0.0417 -0.0236  0.7984
19667TIP3    H280493   3.093   2.882   2.556  0.1497 -0.3142 -3.6236
19668TIP3   OH280494   1.912   0.279   1.199 -0.3348 -0.5258 -0.5261
19668TIP3    H180495   1.838   0.306   1.253 -0.0817  0.6981 -0.7664
19668TIP3    H280496   1.967   0.228   1.258  0.0064  0.9069  0.4357
19669TIP3   OH280497   3.224   6.573   1.622  0.4364  0.2821  0.1677
19669TIP3    H180498   3.307   6.575   1.576  1.7929 -0.1010  2.4611
19669TIP3    H280499   3.220   6.486   1.663 -0.8290  0.4846  0.5347
19670TIP3   OH280500   3.682   0.801   2.340 -0.3917 -0.2692  0.2082
19670TIP3    H180501   3.683   0.852   2.421  0.1256 -0.8159  0.5602
19670TIP3    H280502   3.681   0.866   2.270 -0.9275  0.2102  0.6502
19671TIP3   OH280503   0.102   4.204   6.556 -0.4482 -0.2946 -0.2576
19671TIP3    H180504   0.070   4.129   6.606 -0.4037 -0.3875 -0.3691
19671TIP3    H280505   0.123   4.169   6.470 -1.7939  0.1233 -0.7805
19672TIP3   OH280506   3.574   0.445  12.375  0.5793 -0.3181 -0.2269
19672TIP3    H180507   3.661   0.406  12.365  0.7179  0.1544 -0.9376
19672TIP3    H280508   3.542   0.455  12.285 -0.0956 -0.2283  0.0193
19673TIP3   OH280509   1.263   5.798  13.778 -0.1630  0.0088 -0.0213
19673TIP3    H180510   1.224   5.824  13.862  0.2102  0.2318  0.0873
19673TIP3    H280511   1.352   5.833  13.782 -0.0458 -0.2479 -0.3849
19674TIP3   OH280512   6.767   0.550   0.477 -0.1549 -0.6802  0.4418
19674TIP3    H180513   6.804   0.578   0.393 -1.2258 -0.9938 -0.1570
19674TIP3    H280514   6.701   0.485   0.453 -0.0466 -1.2226  1.5785
19675TIP3   OH280515   5.815   3.558   6.227 -0.2317 -0.3601  0.3042
19675TIP3    H180516   5.739   3.512   6.262 -3.7688  3.6299 -1.3009
19675TIP3    H280517   5.828   3.521   6.140 -0.0459 -1.2703  0.7058
19676TIP3   OH280518   6.433   3.282   4.486  0.5293 -0.2902  0.1495
19676TIP3    H180519   6.395   3.300   4.571 -0.8605  0.7457 -0.6563
19676TIP3    H280520   6.475   3.364   4.460  1.7539 -0.8721  0.2093
19677TIP3   OH280521   1.065   2.068   4.219  0.3290 -0.5523  0.0807
19677TIP3    H180522   1.023   2.005   4.159 -0.9546  0.0254  0.3429
19677TIP3    H280523   1.058   2.152   4.174  1.0313 -0.4089  0.2305
19678TIP3   OH280524   0.666   1.149   2.617 -0.5696  0.4924  0.1139
19678TIP3    H180525   0.593   1.086   2.622 -1.4183  1.4706  0.4231
19678TIP3    H280526   0.692   1.162   2.709  0.6290 -0.5321 -0.0478
19679TIP3   OH280527   1.206   1.290  13.712 -0.2369 -0.3189 -0.7322
19679TIP3    H180528   1.200   1.218  13.775  1.2105 -0.5556 -0.8240
19679TIP3    H280529   1.223   1.368  13.766  0.1508 -0.3782 -0.7672
19680TIP3   OH280530   4.067   5.047  11.158 -0.6692  0.2285 -0.4024
19680TIP3    H180531   4.113   5.130  11.169  0.5406 -0.4433 -0.1263
19680TIP3    H280532   4.005   5.044  11.231 -0.0162  0.4609  0.1782
19681TIP3   OH280533   2.195   5.082  10.561 -0.0168 -0.4260 -0.0965
19681TIP3    H180534   2.136   5.062  10.488 -1.0716  0.5975  0.4539
19681TIP3    H280535   2.148   5.147  10.613  1.3767  0.0209  0.6529
19682TIP3   OH280536   1.456   1.737  12.486 -0.6768 -0.0830  0.1041
19682TIP3    H180537   1.507   1.803  12.438  0.4534 -0.9243  0.1030
19682TIP3    H280538   1.369   1.741  12.447 -0.2771  0.5165 -0.7674
19683TIP3   OH280539   5.649   3.960   3.688 -0.0519  0.1485  0.3903
19683TIP3    H180540   5.587   3.951   3.761 -3.7732  1.1269 -2.3404
19683TIP3    H280541   5.698   3.878   3.689 -0.4926 -0.1946  3.4623
19684TIP3   OH280542   2.548   0.060  11.180 -0.3196  0.5045  0.0003
19684TIP3    H180543   2.500   0.128  11.226 -0.4090  1.2225 -1.1143
19684TIP3    H280544   2.573  -0.003  11.248 -0.2463  1.6332  1.0387
19685TIP3   OH280545   1.448   0.327  13.608  0.4804  0.4257  0.3543
19685TIP3    H180546   1.539   0.310  13.632  0.9409  1.3278 -0.6594
19685TIP3    H280547   1.454   0.372  13.524 -0.8973  0.7315  0.4037
19686TIP3   OH280548   1.837   1.294   1.115  0.2481 -0.2215  0.1443
19686TIP3    H180549   1.756   1.273   1.068  0.7064 -0.4022 -0.5871
19686TIP3    H280550   1.822   1.263   1.204 -1.6964  2.5332  0.9135
19687TIP3   OH280551   5.583   5.896  13.321  0.0707  0.4909  0.3649
19687TIP3    H180552   5.541   5.844  13.389  0.9202 -0.0204  0.5084
19687TIP3    H280553   5.510   5.929  13.268 -0.4986 -0.8600  0.2592
19688TIP3   OH280554   5.366   3.223  15.134 -0.1437 -0.3094  0.1906
19688TIP3    H180555   5.348   3.264  15.218 -1.6521  0.6844 -0.5757
19688TIP3    H280556   5.332   3.134  15.142 -0.6955 -0.0733  0.4898
19689TIP3   OH280557   0.460   2.852  11.794  0.3233  0.1967  0.0906
19689TIP3    H180558   0.475   2.945  11.811  0.7857 -0.0079  0.8631
19689TIP3    H280559   0.386   2.851  11.733 -0.5186  1.0457  1.0356
19690TIP3   OH280560   2.405   3.761  16.481 -0.3654 -0.5295 -0.4676
19690TIP3    H180561   2.444   3.840  16.443 -1.1941  0.5681  0.8628
19690TIP3    H280562   2.442   3.757  16.570 -1.2613 -0.9552 -0.1066
19691TIP3   OH280563   6.153   3.924   0.755  0.2505  0.2755  0.8292
19691TIP3    H180564   6.170   3.894   0.665  1.5072 -0.9898  1.4544
19691TIP3    H280565   6.103   3.852   0.794  1.5234 -0.1497  1.7393
19692TIP3   OH280566   6.430   2.210   0.991 -0.3463 -0.5737 -0.2265
19692TIP3    H180567   6.342   2.207   0.954 -0.2728 -0.8623 -0.3860
19692TIP3    H280568   6.478   2.143   0.942 -0.4325 -1.4546  0.8569
19693TIP3   OH280569   2.366   0.518   4.836  0.3227  0.0285 -0.0487
19693TIP3    H180570   2.295   0.551   4.891  1.1813 -0.0511  1.1415
19693TIP3    H280571   2.411   0.597   4.805  1.5347  0.0579  1.6738
19694TIP3   OH280572   1.166   1.918   1.377 -0.7011  0.2979 -0.0521
19694TIP3    H180573   1.094   1.854   1.381 -0.5453  0.1619  2.7583
19694TIP3    H280574   1.191   1.931   1.469  2.6794  0.5799 -0.8883
19695TIP3   OH280575   1.074   5.469  14.035  0.1726  0.0085 -1.0799
19695TIP3    H180576   1.038   5.477  13.947  2.2843 -0.3443 -2.0404
19695TIP3    H280577   1.110   5.556  14.055  1.4187 -0.4076 -1.4072
19696TIP3   OH280578   6.793   0.362  14.375 -0.3989  0.0668 -0.0561
19696TIP3    H180579   6.837   0.378  14.291 -1.9475 -0.7454 -1.0511
19696TIP3    H280580   6.821   0.274  14.401 -0.5494  0.0059 -0.1043
19697TIP3   OH280581   5.172   0.240   5.911  0.3156 -0.4941 -0.3967
19697TIP3    H180582   5.243   0.304   5.917 -1.0969  1.1003 -0.0531
19697TIP3    H280583   5.157   0.229   5.817 -2.5260  3.3904 -0.6186
19698TIP3   OH280584   2.456   3.254  14.815 -0.1651 -0.2162 -0.1610
19698TIP3    H180585   2.454   3.229  14.723 -3.8403  0.2282 -0.3168
19698TIP3    H280586   2.425   3.344  14.816  1.0801  0.2558  1.4693
19699TIP3   OH280587   1.283   6.182  13.360  0.6987  0.0379 -0.1230
19699TIP3    H180588   1.340   6.185  13.437 -0.5760  3.0412  0.8844
19699TIP3    H280589   1.250   6.092  13.357  2.8896 -0.8836  1.1781
19700TIP3   OH280590   3.606   2.313  11.234  0.1299 -0.5034  0.1091
19700TIP3    H180591   3.653   2.232  11.248  0.7136  0.0016  1.1791
19700TIP3    H280592   3.621   2.334  11.141  2.4425 -0.1183  0.5114
19701TIP3   OH280593   0.529   6.359  15.636 -0.1483  0.5978  0.1636
19701TIP3    H180594   0.569   6.423  15.696 -1.9742 -0.4377  2.6532
19701TIP3    H280595   0.574   6.276  15.657 -0.0418  0.4261 -0.7212
19702TIP3   OH280596   2.739   5.981  13.087 -0.2366  0.5526  0.3082
19702TIP3    H180597   2.651   6.009  13.112  0.6428  2.0216  1.9428
19702TIP3    H280598   2.776   6.057  13.041  0.5624  0.3560  0.6139
19703TIP3   OH280599   4.720   0.263  13.798 -0.0745 -0.5340  0.0184
19703TIP3    H180600   4.767   0.249  13.716  1.1866 -1.3443  0.8327
19703TIP3    H280601   4.637   0.303  13.772  0.9195  0.6559 -1.5226
19704TIP3   OH280602   2.312   3.866   1.588 -0.0458 -0.5861  0.1183
19704TIP3    H180603   2.281   3.829   1.505 -0.6439  1.0986 -0.4603
19704TIP3    H280604   2.396   3.906   1.566  1.3227 -2.7432  1.0675
19705TIP3   OH280605   2.453   1.454   1.493 -0.0530 -0.5048 -0.2259
19705TIP3    H180606   2.507   1.400   1.550 -0.3542 -1.0019 -0.4011
19705TIP3    H280607   2.514   1.519   1.456  0.3810 -0.9227 -0.2580
19706TIP3   OH280608   6.226   6.189   6.079  0.3059  0.2594  0.3722
19706TIP3    H180609   6.196   6.265   6.130  1.1820  1.7949 -1.2997
19706TIP3    H280610   6.278   6.138   6.141  3.0029  3.0790  0.6599
19707TIP3   OH280611   0.741   2.561  15.894  0.8464  0.8860 -0.4446
19707TIP3    H180612   0.724   2.494  15.960 -2.4928  2.2568  0.3009
19707TIP3    H280613   0.823   2.602  15.923 -0.3651  1.3035  2.8628
19708TIP3   OH280614   0.116   4.307   2.187  0.0167 -0.3071  0.2200
19708TIP3    H180615   0.127   4.377   2.251  1.1134 -0.9642  0.7790
19708TIP3    H280616   0.030   4.323   2.148  0.1702  1.2442  0.4503
19709TIP3   OH280617   1.602   6.075  11.243  0.3666  0.8082  0.0836
19709TIP3    H180618   1.615   6.012  11.173  1.2715  2.0256 -0.8865
19709TIP3    H280619   1.691   6.097  11.272  0.0019 -0.1633  2.0864
19710TIP3   OH280620   0.880   1.153   6.426  0.1139  0.0157 -0.5649
19710TIP3    H180621   0.880   1.063   6.460  1.9759 -0.0513 -0.6014
19710TIP3    H280622   0.869   1.208   6.503 -2.2560 -0.2170 -0.6723
19711TIP3   OH280623   1.928   5.204  15.681 -0.1705  0.6935  0.1926
19711TIP3    H180624   1.835   5.201  15.658 -0.0199 -2.5903 -0.4803
19711TIP3    H280625   1.958   5.288  15.647 -2.7654  1.6471  0.0129
19712TIP3   OH280626   6.321   0.234   6.625 -0.9135 -0.0730  0.1427
19712TIP3    H180627   6.269   0.276   6.557 -0.6365  1.0916  0.6225
19712TIP3    H280628   6.346   0.306   6.684 -2.3195 -1.2484  2.2736
19713TIP3   OH280629   5.039   6.023  11.705 -0.0404  0.3575  0.0541
19713TIP3    H180630   4.965   5.975  11.742  0.0619 -0.0622 -0.2787
19713TIP3    H280631   5.109   6.013  11.770  0.2460 -0.6667 -0.3879
19714TIP3   OH280632   0.566   1.430  11.420  0.0430 -0.3603 -0.3583
19714TIP3    H180633   0.481   1.400  11.387 -1.0864  0.5561  1.4910
19714TIP3    H280634   0.584   1.510  11.372  0.1603 -0.8544 -1.1555
19715TIP3   OH280635   4.239   4.615  16.056 -0.4224  0.7888  0.6717
19715TIP3    H180636   4.266   4.527  16.029 -0.8606  0.7119  0.4694
19715TIP3    H280637   4.321   4.664  16.064 -0.1161  0.1424  1.5852
19716TIP3   OH280638   5.431   4.418  15.216 -0.0160 -0.1014  0.1946
19716TIP3    H180639   5.414   4.394  15.125  0.8531  0.0557 -0.0182
19716TIP3    H280640   5.377   4.358  15.268  2.5878 -3.1149 -0.2758
19717TIP3   OH280641   2.128   6.073  14.914  0.3179 -0.2249  0.0789
19717TIP3    H180642   2.083   6.141  14.864 -0.3568 -1.9866 -1.8524
19717TIP3    H280643   2.080   6.069  14.997  0.2921  1.5103  0.1890
19718TIP3   OH280644   6.414   2.099  16.052  0.0312  0.1847 -0.0429
19718TIP3    H180645   6.366   2.063  15.977 -1.1227  0.1555  0.6869
19718TIP3    H280646   6.505   2.075  16.036 -0.0265  1.0208 -1.9448
19719TIP3   OH280647   5.747   2.608  14.421  0.0500 -0.5642  0.0355
19719TIP3    H180648   5.663   2.568  14.444 -0.2137 -0.3237 -0.5013
19719TIP3    H280649   5.728   2.660  14.343  0.6638 -0.3765  0.0096
19720TIP3   OH280650   4.434   6.793   3.757 -0.0429  0.1383  0.0476
19720TIP3    H180651   4.464   6.883   3.760 -1.5181  0.7699 -2.0326
19720TIP3    H280652   4.489   6.751   3.691 -0.6464  0.0756 -0.4281
19721TIP3   OH280653   1.267   2.179   3.299 -0.2999 -0.3435  0.1961
19721TIP3    H180654   1.285   2.100   3.351 -0.1523 -0.5505 -0.1634
19721TIP3    H280655   1.190   2.156   3.247  0.9244 -1.0063 -1.4177
19722TIP3   OH280656   2.950   0.548   0.227 -0.2371 -0.2287 -0.0450
19722TIP3    H180657   3.032   0.595   0.216 -0.3758  0.5456  1.9336
19722TIP3    H280658   2.906   0.556   0.143  0.4754  1.7633 -0.2657
19723TIP3   OH280659   6.400   3.786   2.180  0.3978 -0.1965 -0.3242
19723TIP3    H180660   6.335   3.726   2.142  0.5410 -0.1757 -0.6060
19723TIP3    H280661   6.483   3.740   2.172  0.4301 -0.1888 -0.0369
19724TIP3   OH280662   0.307   5.393  10.990 -0.2734  0.7428 -0.3733
19724TIP3    H180663   0.287   5.477  10.950 -0.1318  0.3335 -1.3589
19724TIP3    H280664   0.249   5.331  10.945 -1.9460  0.5922  1.8289
19725TIP3   OH280665   2.671   4.605   1.764  0.0362  0.5504  0.1041
19725TIP3    H180666   2.704   4.671   1.825 -1.2108 -0.7861  2.3275
19725TIP3    H280667   2.578   4.625   1.754  0.0750  0.3159 -0.8078
19726TIP3   OH280668   4.949   5.629  13.989 -0.0470 -0.5434  0.8352
19726TIP3    H180669   5.000   5.710  13.982  0.1421 -0.6403  1.0964
19726TIP3    H280670   4.880   5.639  13.923  0.8026 -0.7721 -0.1067
19727TIP3   OH280671   5.007   5.952  14.301 -0.1035 -0.5432 -0.1401
19727TIP3    H180672   5.033   6.030  14.252  1.2023  0.9985  2.8169
19727TIP3    H280673   4.929   5.979  14.349 -0.3935 -1.4924 -0.0613
19728TIP3   OH280674   0.228   1.246   1.087  0.4093 -0.1774 -0.0343
19728TIP3    H180675   0.323   1.260   1.087  0.7251 -1.9156 -1.2716
19728TIP3    H280676   0.204   1.239   1.179  1.7418 -1.1120  0.2685
19729TIP3   OH280677   6.638   1.157  10.954  0.7963  0.9437  0.7219
19729TIP3    H180678   6.598   1.157  10.867 -1.2007 -1.0781  1.5128
19729TIP3    H280679   6.660   1.065  10.970  0.9909  1.2487  2.3990
19730TIP3   OH280680   1.171   0.349  15.295 -0.5488  0.4945 -0.5698
19730TIP3    H180681   1.237   0.306  15.242 -0.2427 -1.6766  1.3901
19730TIP3    H280682   1.091   0.346  15.241  0.5523  1.8284 -2.3655
19731TIP3   OH280683   0.950   4.995   1.764  0.4076 -0.3747  0.3251
19731TIP3    H180684   0.997   5.077   1.780  0.6287 -0.6566  1.1502
19731TIP3    H280685   0.976   4.969   1.675  0.5182  0.3227  0.1505
19732TIP3   OH280686   3.662   5.701  14.573 -0.3359 -0.3980  0.4075
19732TIP3    H180687   3.728   5.695  14.642 -0.4342 -3.8959  0.3947
19732TIP3    H280688   3.583   5.666  14.613 -1.1192  0.0546 -0.7146
19733TIP3   OH280689   5.608   1.644   0.358 -0.1531  0.2884  0.1780
19733TIP3    H180690   5.580   1.613   0.444 -0.6063  0.7185  0.1890
19733TIP3    H280691   5.608   1.739   0.366  0.5833  0.3203 -0.0585
19734TIP3   OH280692   1.668   1.215  13.386  0.0320 -0.6787 -0.1138
19734TIP3    H180693   1.734   1.196  13.319  1.7134  1.8748  0.6463
19734TIP3    H280694   1.596   1.256  13.339  0.2635 -0.8675 -0.6312
19735TIP3   OH280695   3.975   3.503   1.495  0.0181 -0.3957  0.0052
19735TIP3    H180696   3.964   3.417   1.454 -1.4155 -0.0919 -0.2934
19735TIP3    H280697   4.062   3.533   1.465  0.7509 -1.9276  0.5110
19736TIP3   OH280698   3.424   0.588  11.190 -0.4321  0.1333 -0.1029
19736TIP3    H180699   3.442   0.675  11.225 -1.3145 -0.1634  1.1879
19736TIP3    H280700   3.482   0.579  11.115  1.7975  0.7131  1.4458
19737TIP3   OH280701   2.638   5.338   0.724 -0.6599  0.4412 -0.1706
19737TIP3    H180702   2.610   5.283   0.651 -1.5163  1.9113 -0.9922
19737TIP3    H280703   2.690   5.407   0.683 -0.4076  0.7940  0.7257
19738TIP3   OH280704   5.406   2.393  16.158  0.2760 -0.1280  0.4311
19738TIP3    H180705   5.395   2.308  16.116 -0.2879 -0.7320  1.7430
19738TIP3    H280706   5.501   2.406  16.162  0.3411 -0.0006 -1.0886
19739TIP3   OH280707   4.464   1.618   5.154 -0.5474 -0.7152  0.5933
19739TIP3    H180708   4.430   1.611   5.065  0.5250  0.0841  0.1024
19739TIP3    H280709   4.481   1.528   5.181 -2.6546 -1.1204  0.7250
19740TIP3   OH280710   3.866   6.055   1.917 -0.4355  0.4413  0.2506
19740TIP3    H180711   3.803   6.048   1.845 -0.6965  1.3397  0.3820
19740TIP3    H280712   3.819   6.020   1.993 -0.2865 -0.1719  0.0633
19741TIP3   OH280713   2.486   0.078  13.398  0.2846 -0.0741  0.5204
19741TIP3    H180714   2.429   0.119  13.332  0.1891 -1.2765 -0.1781
19741TIP3    H280715   2.437   0.085  13.480  0.3777  1.3986  0.4870
19742TIP3   OH280716   1.667   3.724  16.887 -0.0597  0.4444  0.2565
19742TIP3    H180717   1.629   3.774  16.959  0.9508  1.0930  0.3630
19742TIP3    H280718   1.734   3.782  16.850  1.4109 -0.9276  0.6224
19743TIP3   OH280719   4.259   3.243  17.233 -0.2933 -0.0046  0.3202
19743TIP3    H180720   4.251   3.174  17.299 -0.6022 -0.4111 -0.1322
19743TIP3    H280721   4.246   3.197  17.150  1.0323  0.3343 -0.0910
19744TIP3   OH280722   4.612   3.509   0.576 -0.0462 -0.2534  0.1663
19744TIP3    H180723   4.626   3.555   0.494 -0.4347  2.9977  1.7646
19744TIP3    H280724   4.517   3.511   0.590  0.1017  0.1768  1.1795
19745TIP3   OH280725   3.622   1.846   1.906  0.2894 -0.0122 -0.2340
19745TIP3    H180726   3.592   1.921   1.854  0.4880  0.1422 -0.1280
19745TIP3    H280727   3.591   1.769   1.858 -0.0637  0.1424 -0.2524
19746TIP3   OH280728   1.086   1.366   3.107  0.0620  0.0171 -0.3529
19746TIP3    H180729   1.150   1.373   3.178 -2.0318  1.8938  1.5047
19746TIP3    H280730   1.014   1.315   3.145 -1.4142  1.6644 -0.8416
19747TIP3   OH280731   2.306   2.900   5.742  0.4454 -0.0264 -0.3664
19747TIP3    H180732   2.232   2.930   5.795  0.3899 -0.1594 -0.3682
19747TIP3    H280733   2.379   2.954   5.771 -0.0860  1.5616 -1.8016
19748TIP3   OH280734   6.299   1.644   4.927  0.3535 -0.0943  0.2987
19748TIP3    H180735   6.242   1.598   4.864 -0.2772  0.8005  0.1890
19748TIP3    H280736   6.337   1.574   4.980 -0.1262 -0.7807 -0.2303
19749TIP3   OH280737   3.762   6.200   3.611  0.2152  0.2084 -0.8587
19749TIP3    H180738   3.815   6.266   3.566  0.3292  1.8620  1.5390
19749TIP3    H280739   3.739   6.240   3.694 -0.0057 -2.6736  0.5811
19750TIP3   OH280740   5.683   5.160   2.394 -0.3181 -0.4398  0.4232
19750TIP3    H180741   5.713   5.075   2.361 -0.2900 -0.5064  0.6159
19750TIP3    H280742   5.717   5.164   2.484  1.4985  0.6899 -0.2565
19751TIP3   OH280743   0.261   5.243  14.694  0.0952  0.2276  0.1323
19751TIP3    H180744   0.209   5.162  14.692  0.9936 -0.3533 -0.0639
19751TIP3    H280745   0.242   5.286  14.611  0.1724 -0.1502 -0.0868
19752TIP3   OH280746   3.690   3.665  15.499  0.1691 -0.2981 -0.4014
19752TIP3    H180747   3.655   3.724  15.566  2.2729  0.2305  0.2897
19752TIP3    H280748   3.622   3.598  15.489 -0.0127 -0.7117  2.6367
19753TIP3   OH280749   5.664   3.131   5.983 -0.0307 -0.1768  0.1866
19753TIP3    H180750   5.634   3.215   5.946  0.0019 -0.1257  0.2752
19753TIP3    H280751   5.606   3.066   5.945  1.4279 -0.4207 -1.7926
19754TIP3   OH280752   1.202   1.501   1.328  0.3891 -0.1108 -0.3588
19754TIP3    H180753   1.289   1.508   1.290  0.5099  0.0238 -0.0651
19754TIP3    H280754   1.178   1.409   1.317 -0.8807  0.4980 -3.5351
19755TIP3   OH280755   4.008   2.855   5.444 -0.3211  0.0529  0.1482
19755TIP3    H180756   3.944   2.869   5.374  1.0306 -0.6477 -1.2929
19755TIP3    H280757   4.074   2.922   5.430 -0.8895  1.0375  1.8807
19756TIP3   OH280758   3.829   1.674  15.890 -0.4284  0.0299 -0.0930
19756TIP3    H180759   3.769   1.692  15.963 -1.6241 -0.9395 -0.7968
19756TIP3    H280760   3.915   1.667  15.931 -1.1568 -1.1782  1.3478
19757TIP3   OH280761   3.935   5.635  10.793 -0.0987 -0.5665  0.3635
19757TIP3    H180762   3.924   5.541  10.775  1.2134 -0.7601  0.4479
19757TIP3    H280763   3.876   5.678  10.730  0.2836 -1.4101 -0.6149
19758TIP3   OH280764   3.524   4.798  13.078  0.4344 -0.2497 -0.8912
19758TIP3    H180765   3.525   4.737  13.152  1.5671 -0.9201 -1.4274
19758TIP3    H280766   3.467   4.757  13.013 -0.4816  0.2916 -0.4414
19759TIP3   OH280767   3.731   5.103   0.526  0.0547 -0.3416 -0.4445
19759TIP3    H180768   3.739   5.057   0.442 -0.8552 -1.9168  0.2908
19759TIP3    H280769   3.779   5.048   0.588  1.1298  1.0567  0.0095
19760TIP3   OH280770   0.318   6.365  14.513  0.8633  0.1518 -0.4020
19760TIP3    H180771   0.305   6.460  14.517  3.9162  0.6583  0.2108
19760TIP3    H280772   0.345   6.348  14.423 -0.2405 -0.2717 -0.6708
19761TIP3   OH280773   5.130   2.811  16.745 -0.2912 -0.4437 -0.0121
19761TIP3    H180774   5.172   2.801  16.660 -1.0959 -0.5929 -0.3990
19761TIP3    H280775   5.108   2.722  16.773  0.8366 -0.4918  0.8177
19762TIP3   OH280776   5.748   1.472  12.993 -0.0315  0.6691 -0.4243
19762TIP3    H180777   5.800   1.500  12.919  2.8166  0.1089  1.2059
19762TIP3    H280778   5.783   1.521  13.068 -0.3886 -1.2594  1.1070
19763TIP3   OH280779   2.952   2.510  13.807 -0.0868  0.2483 -0.2752
19763TIP3    H180780   3.013   2.531  13.737 -0.6443  1.7217 -0.3513
19763TIP3    H280781   2.881   2.575  13.798 -0.8125 -0.3482  0.8462
19764TIP3   OH280782   3.084   2.563   0.078 -0.8219 -0.3579  0.0905
19764TIP3    H180783   2.999   2.519   0.084 -0.3088 -1.3471  0.2618
19764TIP3    H280784   3.107   2.584   0.168 -1.0152  0.1736  0.0185
19765TIP3   OH280785   3.428   1.301   0.664 -0.3074 -0.8739  0.1045
19765TIP3    H180786   3.443   1.210   0.691  1.1295 -0.6150  0.2962
19765TIP3    H280787   3.421   1.349   0.746 -2.0131 -0.9192  0.0136
19766TIP3   OH280788   2.704   5.365  14.713  0.1218  0.1015  0.3295
19766TIP3    H180789   2.710   5.385  14.620 -0.3419  0.7486  0.4265
19766TIP3    H280790   2.655   5.439  14.750  2.2754  1.0424  1.4802
19767TIP3   OH280791   6.088   4.636  11.811 -0.0719  0.1176 -0.6977
19767TIP3    H180792   6.180   4.640  11.838 -0.5344 -1.6932  1.3126
19767TIP3    H280793   6.050   4.717  11.845 -0.1200 -1.0690  2.3651
19768TIP3   OH280794   0.183   1.837   4.108 -0.3989 -0.1330 -0.1866
19768TIP3    H180795   0.225   1.796   4.033 -0.4621 -0.6631  0.0622
19768TIP3    H280796   0.200   1.931   4.097  1.6040 -0.3826  0.3550
19769TIP3   OH280797   2.039   6.260  16.095  0.3732  0.7284  0.4179
19769TIP3    H180798   2.051   6.353  16.115  0.8468  0.7460  0.0705
19769TIP3    H280799   2.061   6.215  16.176  2.8155  0.7651 -0.1407
19770TIP3   OH280800   4.679   6.235   5.743 -0.5169 -0.1438 -0.2876
19770TIP3    H180801   4.695   6.148   5.779 -1.2545 -0.1639  0.0103
19770TIP3    H280802   4.587   6.253   5.763 -0.1117  1.1301  0.5934
19771TIP3   OH280803   3.575   5.719  15.549 -0.2360  0.2451  0.1072
19771TIP3    H180804   3.567   5.633  15.590 -0.1554  0.7659  1.2371
19771TIP3    H280805   3.494   5.729  15.498 -0.8781  0.0810  1.0821
19772TIP3   OH280806   0.586   0.863  15.126  0.6053 -0.0211 -0.3923
19772TIP3    H180807   0.622   0.774  15.124  2.5180  0.6664  0.4130
19772TIP3    H280808   0.502   0.856  15.083  1.2316 -1.9961 -1.4233
19773TIP3   OH280809   5.956   4.294  15.793  0.5286  0.0332  0.1092
19773TIP3    H180810   5.939   4.288  15.887  2.6285 -0.1114  0.5423
19773TIP3    H280811   6.045   4.329  15.788  0.0573  1.0948 -1.8630
19774TIP3   OH280812   6.347   4.034  12.355  0.2373 -0.7494  0.4300
19774TIP3    H180813   6.400   4.069  12.427 -1.0454  1.5788  0.3337
19774TIP3    H280814   6.403   4.043  12.278  0.0209  1.0478  0.4396
19775TIP3   OH280815   3.682   2.934  12.458  0.1277 -0.4893 -0.2231
19775TIP3    H180816   3.627   2.889  12.394  0.3577 -0.9938 -0.0682
19775TIP3    H280817   3.631   2.931  12.539 -0.2071  0.2358 -0.3958
19776TIP3   OH280818   4.552   4.670  15.319  0.2562 -0.0640  0.5684
19776TIP3    H180819   4.582   4.740  15.377 -0.4102  0.4056  0.3647
19776TIP3    H280820   4.462   4.696  15.296  0.5228 -0.2255 -0.6940
19777TIP3   OH280821   4.093   2.890  11.634 -0.3233 -0.1885  0.4223
19777TIP3    H180822   4.158   2.934  11.689 -1.7285  0.5904  1.5223
19777TIP3    H280823   4.109   2.796  11.647  2.0227 -0.0960 -1.1299
19778TIP3   OH280824   0.938   6.303  16.457 -0.0130 -0.0453 -0.5590
19778TIP3    H180825   0.891   6.370  16.507 -1.8410 -0.9065 -1.0230
19778TIP3    H280826   1.027   6.336  16.450 -0.3073  1.2478  1.1582
19779TIP3   OH280827   1.537   6.333  13.118 -0.0699  0.1409 -0.4455
19779TIP3    H180828   1.537   6.238  13.100 -2.2918  0.2052 -1.1102
19779TIP3    H280829   1.487   6.370  13.045 -1.0774  1.5670  0.9218
19780TIP3   OH280830   3.113   6.011  15.824  0.2508  0.4226  0.2495
19780TIP3    H180831   3.103   6.033  15.732 -0.3324  1.3498  0.5150
19780TIP3    H280832   3.150   6.090  15.864  2.3432 -0.6212  0.5014
19781TIP3   OH280833   5.141   0.716   5.020 -0.5816 -0.0047 -0.2245
19781TIP3    H180834   5.216   0.669   4.983 -0.9609 -1.2755  0.5505
19781TIP3    H280835   5.163   0.808   5.009 -0.0123 -0.3232 -2.2160
19782TIP3   OH280836   6.787   0.470   4.517  0.4657  0.0335  0.5424
19782TIP3    H180837   6.769   0.564   4.530 -1.8365 -0.2160 -0.3823
19782TIP3    H280838   6.782   0.433   4.605  1.9172  0.8141  0.9921
19783TIP3   OH280839   2.279   6.020   3.602 -0.0726 -0.0241 -0.0597
19783TIP3    H180840   2.295   5.934   3.640  0.6169 -0.2853 -0.9128
19783TIP3    H280841   2.221   6.063   3.664  2.4188  0.2640  2.2439
19784TIP3   OH280842   0.578   4.690   4.775 -0.3809  0.0941 -0.3764
19784TIP3    H180843   0.550   4.778   4.752  0.3309 -0.0431 -1.8983
19784TIP3    H280844   0.666   4.702   4.811 -1.3377  0.2644  2.1290
19785TIP3   OH280845   0.130   2.576   2.525  0.8716 -1.0077  0.2084
19785TIP3    H180846   0.081   2.525   2.590  0.7105 -0.5359  0.4622
19785TIP3    H280847   0.200   2.617   2.574 -0.0890  0.5009  0.3854
19786TIP3   OH280848   1.290   5.792   2.102 -0.9184  0.4947  0.0790
19786TIP3    H180849   1.319   5.719   2.047 -1.4278 -0.1066  0.6064
19786TIP3    H280850   1.246   5.751   2.176 -0.6761  1.3192  0.6954
19787TIP3   OH280851   0.421   0.010   0.074  0.0453 -0.3607 -0.2982
19787TIP3    H180852   0.342   0.020   0.127 -0.8226 -1.5558 -1.3283
19787TIP3    H280853   0.432   0.096   0.032 -1.2518 -0.4523 -0.8692
19788TIP3   OH280854   0.358   4.049   2.542  0.3382  0.2380 -0.2600
19788TIP3    H180855   0.346   4.061   2.637  0.4851  3.6263 -0.5446
19788TIP3    H280856   0.269   4.054   2.506  0.3541 -0.2766 -0.3778
19789TIP3   OH280857   2.610   3.579  15.575 -0.2385  0.0601 -0.5189
19789TIP3    H180858   2.642   3.524  15.646 -2.2601 -0.7875 -0.2028
19789TIP3    H280859   2.687   3.593  15.519  0.9581 -0.7571  0.8529
19790TIP3   OH280860   6.565   5.480  14.325  0.2549  0.2895 -0.4531
19790TIP3    H180861   6.482   5.444  14.356  0.1563 -0.1353 -1.1968
19790TIP3    H280862   6.546   5.572  14.307  0.1104  0.3441 -0.0419
19791TIP3   OH280863   4.254   5.259   6.015 -0.0244 -0.3836  0.2362
19791TIP3    H180864   4.332   5.315   6.016  0.0222 -0.4105 -0.7516
19791TIP3    H280865   4.220   5.265   6.104  0.4161  0.6092  0.3597
19792TIP3   OH280866   0.918   4.734   3.477  0.4830 -0.7439  0.0886
19792TIP3    H180867   0.905   4.651   3.431  0.6777 -1.3581  1.0940
19792TIP3    H280868   0.844   4.740   3.537 -0.0704  0.3155 -0.6765
19793TIP3   OH280869   2.250   3.702  13.001  0.6679  0.9242  0.1299
19793TIP3    H180870   2.184   3.633  13.006  0.0549  1.5429  3.6347
19793TIP3    H280871   2.330   3.658  12.974 -0.9511  0.1004 -4.0467
19794TIP3   OH280872   6.046   6.295   1.106  0.6180 -0.0767 -0.2760
19794TIP3    H180873   6.011   6.377   1.141 -0.3795 -0.4833 -0.2720
19794TIP3    H280874   6.131   6.285   1.149  0.1785  0.3066  0.7211
19795TIP3   OH280875   0.520   0.681  15.392  0.6852  0.6606 -0.1872
19795TIP3    H180876   0.467   0.609  15.426 -0.8742  1.1527 -1.4209
19795TIP3    H280877   0.564   0.645  15.315  2.2509  0.2355  0.8741
19796TIP3   OH280878   0.896   1.924   4.052  0.3804 -0.4029  0.9158
19796TIP3    H180879   0.836   1.968   4.112  1.4928 -1.6431  3.0692
19796TIP3    H280880   0.842   1.897   3.978 -1.0838  1.0877  1.3869
19797TIP3   OH280881   4.654   5.715  13.561  0.0378  0.1203  0.5312
19797TIP3    H180882   4.559   5.719  13.559  0.0033 -0.2312  1.1491
19797TIP3    H280883   4.678   5.653  13.492 -0.0079  2.3206 -1.5827
19798TIP3   OH280884   3.637   3.025  15.105 -0.1888  0.0693 -0.4416
19798TIP3    H180885   3.600   3.111  15.127 -1.5185 -0.5477 -0.1965
19798TIP3    H280886   3.634   2.976  15.187 -0.7495 -0.6650 -0.8843
19799TIP3   OH280887   2.817   4.820  16.918 -0.4641  0.1460  0.1808
19799TIP3    H180888   2.846   4.827  16.827  2.1425 -0.2809  0.8971
19799TIP3    H280889   2.823   4.909  16.952  0.4022  0.0085  0.4133
19800TIP3   OH280890   4.701   6.797  15.155 -0.4385  0.2265 -0.1802
19800TIP3    H180891   4.660   6.741  15.088 -1.5649 -0.7324  1.2637
19800TIP3    H280892   4.693   6.886  15.120  1.8838 -0.4394 -2.8107
19801TIP3   OH280893   3.149   2.683  14.330 -0.0033  0.2055  0.5501
19801TIP3    H180894   3.123   2.775  14.340  0.1691  0.2369  0.7257
19801TIP3    H280895   3.099   2.652  14.255  1.2029  0.9277 -0.5987
19802TIP3   OH280896   1.465   3.899  14.548  0.0151 -0.0047  0.2616
19802TIP3    H180897   1.416   3.834  14.599 -3.0942  1.9796  0.0885
19802TIP3    H280898   1.492   3.965  14.611 -1.2033  0.9348 -0.1447
19803TIP3   OH280899   2.636   2.440   5.145 -0.3883  0.2655  0.3506
19803TIP3    H180900   2.634   2.450   5.240  1.3639 -0.3517  0.4771
19803TIP3    H280901   2.615   2.348   5.130  2.0517 -0.3332  0.3379
19804TIP3   OH280902   5.730   1.772  13.340  0.1265  0.6583  0.3155
19804TIP3    H180903   5.683   1.743  13.419  1.8606  1.2347  1.6231
19804TIP3    H280904   5.732   1.868  13.348  0.7466  0.6865 -0.1739
19805TIP3   OH280905   2.082   4.829   4.439  0.2745  0.2150 -0.0291
19805TIP3    H180906   2.026   4.854   4.365  2.2057 -0.7855 -1.9400
19805TIP3    H280907   2.144   4.902   4.447  1.3533 -0.5977 -0.7939
19806TIP3   OH280908   3.754   6.087   4.610  0.6191 -0.2200  0.2653
19806TIP3    H180909   3.819   6.139   4.657  1.2745 -0.7959  0.0166
19806TIP3    H280910   3.775   5.996   4.631 -0.2488 -0.4145  0.3536
19807TIP3   OH280911   3.089   4.703   5.915 -0.1171 -0.0522 -0.5859
19807TIP3    H180912   3.168   4.649   5.915  0.1061  0.2470 -1.8317
19807TIP3    H280913   3.073   4.722   6.008  1.0056 -0.5024 -0.2843
19808TIP3   OH280914   0.912   6.673   4.451  0.1611  0.0188 -0.0030
19808TIP3    H180915   0.830   6.652   4.495  0.5223  0.3395  0.8601
19808TIP3    H280916   0.951   6.589   4.430 -0.3178 -0.1351 -0.2829
19809TIP3   OH280917   4.264   1.055  14.171 -0.2598  0.0533 -0.0032
19809TIP3    H180918   4.273   1.114  14.245 -2.5186 -1.0728  1.2641
19809TIP3    H280919   4.349   1.013  14.163  0.8391  2.1222  0.1892
19810TIP3   OH280920   0.766   1.647  15.092 -0.0480 -0.1579  0.3945
19810TIP3    H180921   0.819   1.710  15.140  1.4456 -0.7372 -0.4236
19810TIP3    H280922   0.735   1.586  15.159  0.3813  0.1521  0.8886
19811TIP3   OH280923   1.628   0.765   0.994  0.4104 -0.3492 -0.2196
19811TIP3    H180924   1.630   0.681   1.041  1.7479 -0.3160 -0.1762
19811TIP3    H280925   1.706   0.763   0.939 -0.9356 -0.2630 -2.2554
19812TIP3   OH280926   4.935   6.508   4.635 -0.1174 -0.5911  0.1296
19812TIP3    H180927   4.991   6.434   4.610  1.3069  0.4650  0.0824
19812TIP3    H280928   4.856   6.496   4.583  0.6365 -1.3601 -0.8869
19813TIP3   OH280929   4.005   1.737   3.025  0.7378  0.0559 -0.6868
19813TIP3    H180930   4.045   1.824   3.031  1.0945  0.2124 -3.6432
19813TIP3    H280931   3.939   1.736   3.093  1.1165  2.4358 -0.1913
19814TIP3   OH280932   2.637   1.610   1.339  0.2204  1.3325 -0.0328
19814TIP3    H180933   2.642   1.561   1.257 -2.0189  2.1897 -0.7650
19814TIP3    H280934   2.688   1.689   1.323 -0.2894  1.5417 -0.6372
19815TIP3   OH280935   6.467   0.414   2.322 -0.5256 -0.7464  0.1547
19815TIP3    H180936   6.509   0.473   2.260 -0.7603  0.8833  1.4847
19815TIP3    H280937   6.532   0.346   2.338  0.0923 -0.3814 -0.7359
19816TIP3   OH280938   2.683   6.731   3.746  0.1810 -0.6409 -0.1568
19816TIP3    H180939   2.599   6.764   3.714  0.0797  0.3592  1.0710
19816TIP3    H280940   2.745   6.752   3.675 -0.3125  0.1185 -0.3823
19817TIP3   OH280941   2.688   5.979  16.669  0.3750  0.3286 -0.4536
19817TIP3    H180942   2.740   5.978  16.749  0.5937 -0.3055 -0.5960
19817TIP3    H280943   2.740   6.030  16.607  1.0501 -0.6630 -0.7305
19818TIP3   OH280944   4.879   3.831  14.376 -0.4381 -0.6588 -0.3545
19818TIP3    H180945   4.850   3.821  14.285 -1.1326  0.7194 -0.3130
19818TIP3    H280946   4.798   3.827  14.427 -0.0980 -0.9668  0.1572
19819TIP3   OH280947   5.584   6.234   2.081  0.2429  0.2685  0.6988
19819TIP3    H180948   5.580   6.290   2.003 -2.3855  0.6219  0.9893
19819TIP3    H280949   5.498   6.245   2.123 -0.3718 -3.7779  0.9255
19820TIP3   OH280950   0.764   2.439   4.929 -1.1351 -0.0802 -0.3649
19820TIP3    H180951   0.768   2.458   4.835 -0.7148  0.0456 -0.3246
19820TIP3    H280952   0.760   2.526   4.970  1.5497  0.0447 -0.1386
19821TIP3   OH280953   0.405   4.523  16.394 -0.4216  0.4674 -0.2998
19821TIP3    H180954   0.349   4.559  16.326  0.1369  0.3430 -0.8315
19821TIP3    H280955   0.454   4.598  16.427 -0.4273  0.4658 -0.2867
19822TIP3   OH280956   5.183   5.284  12.811 -1.0597  0.0182  0.2805
19822TIP3    H180957   5.134   5.217  12.859 -1.6680 -1.2170 -1.9154
19822TIP3    H280958   5.203   5.244  12.727  0.2059  1.9693 -0.4315
19823TIP3   OH280959   6.278   4.860  13.838  0.0329 -0.1690  0.2366
19823TIP3    H180960   6.225   4.792  13.879  0.8025 -1.0240 -0.1612
19823TIP3    H280961   6.367   4.826  13.839  0.3845  0.6787 -0.2950
19824TIP3   OH280962   6.762   4.796  15.443 -0.3326 -0.4003  0.7072
19824TIP3    H180963   6.672   4.808  15.411  0.7010  0.9250 -2.0058
19824TIP3    H280964   6.788   4.710  15.411  0.4151  0.5868 -1.5921
19825TIP3   OH280965   1.677   3.494  14.575 -0.0120 -0.2236  0.2192
19825TIP3    H180966   1.632   3.422  14.529 -2.3675  1.7120 -0.7788
19825TIP3    H280967   1.646   3.573  14.530  1.4925  1.4976  2.0434
19826TIP3   OH280968   3.277   5.927   0.503  0.6250 -0.3507  0.5428
19826TIP3    H180969   3.190   5.888   0.491  0.8227 -0.8870  0.7953
19826TIP3    H280970   3.318   5.872   0.569  1.2943 -0.3136  0.1625
19827TIP3   OH280971   4.943   4.923   5.691 -0.1072  0.0173  0.1165
19827TIP3    H180972   4.900   4.964   5.765  1.2804 -0.3927  1.2004
19827TIP3    H280973   4.873   4.908   5.627 -1.0146  2.0412  0.5601
19828TIP3   OH280974   3.120   4.563   4.455  0.3302 -0.7721  0.0463
19828TIP3    H180975   3.164   4.619   4.519  0.9753 -2.3667  1.0592
19828TIP3    H280976   3.176   4.567   4.378 -0.0781  0.6183 -0.1994
19829TIP3   OH280977   1.556   2.190   6.183  0.4106 -0.1476 -0.3472
19829TIP3    H180978   1.556   2.120   6.248 -0.1610 -1.1356 -1.3844
19829TIP3    H280979   1.575   2.146   6.100 -0.4783  0.8413 -1.0968
19830TIP3   OH280980   4.224   2.517  14.713  0.3980 -0.0584  0.1845
19830TIP3    H180981   4.265   2.601  14.692  0.3449  0.2148  1.1378
19830TIP3    H280982   4.297   2.456  14.725  0.4421 -0.1073 -0.3071
19831TIP3   OH280983   3.613   6.726  14.984 -0.1725 -0.1369  0.3052
19831TIP3    H180984   3.575   6.748  15.069 -1.2531  0.6298 -0.3564
19831TIP3    H280985   3.541   6.734  14.922  0.9143  0.7773 -0.9088
19832TIP3   OH280986   0.832   6.038  12.985 -0.0475  0.2432  0.2569
19832TIP3    H180987   0.862   5.957  13.027 -0.8772  0.2261  0.8438
19832TIP3    H280988   0.772   6.077  13.048 -0.1981  0.9647 -0.3185
19833TIP3   OH280989   5.703   5.327   1.541 -0.0066  0.2224  0.4578
19833TIP3    H180990   5.663   5.349   1.457 -0.4179  0.2690  0.6631
19833TIP3    H280991   5.645   5.261   1.578  0.9040 -0.8205  0.0963
19834TIP3   OH280992   4.797   4.270   4.745  0.4206 -0.0898  0.0891
19834TIP3    H180993   4.817   4.177   4.746 -1.9683 -0.6814  1.7541
19834TIP3    H280994   4.703   4.275   4.767  0.3431  2.6736 -0.4842
19835TIP3   OH280995   3.159   2.780   0.618 -0.4895  0.1768  0.0589
19835TIP3    H180996   3.152   2.852   0.680 -0.0550 -0.9380  1.4603
19835TIP3    H280997   3.252   2.757   0.617 -0.4998  0.1200 -0.9529
19836TIP3   OH280998   0.055   3.699  12.228  0.1128 -0.1698 -0.6591
19836TIP3    H180999   0.132   3.688  12.172  0.5042 -1.2226  0.0357
19836TIP3    H281000   0.092   3.724  12.313 -0.0481 -3.0196  0.3589
19837TIP3   OH281001   4.392   3.133  11.987  0.2454  0.2356 -0.0129
19837TIP3    H181002   4.372   3.191  11.914  1.4228  0.2016 -0.3849
19837TIP3    H281003   4.340   3.054  11.969 -1.4389  1.1727  0.5515
19838TIP3   OH281004   5.419   5.903  14.589 -0.2818  0.2184  0.6692
19838TIP3    H181005   5.479   5.960  14.540  1.6915 -0.2426  2.4181
19838TIP3    H281006   5.335   5.915  14.546  0.8740  1.5258 -1.4013
19839TIP3   OH281007   3.046   1.193  15.299  0.2860  0.2933 -0.5669
19839TIP3    H181008   2.977   1.150  15.249 -1.2281  1.5445  0.3373
19839TIP3    H281009   3.075   1.265  15.243 -0.8981  1.2544  0.0252
19840TIP3   OH281010   5.887   5.647   0.941 -0.1651 -0.3323  0.2143
19840TIP3    H181011   5.890   5.719   0.877  1.8896 -1.5475 -1.1642
19840TIP3    H281012   5.900   5.690   1.026  0.9686  0.9633 -0.5727
19841TIP3   OH281013   2.857   0.832   2.606 -0.7416  0.3161 -0.3063
19841TIP3    H181014   2.884   0.913   2.563  0.3764  0.7402  1.1312
19841TIP3    H281015   2.938   0.794   2.638 -1.5571  0.2165  1.7587
19842TIP3   OH281016   2.312   5.314   5.163 -0.2139 -0.1922 -0.2806
19842TIP3    H181017   2.364   5.264   5.100  0.5020  1.1252 -0.8011
19842TIP3    H281018   2.326   5.271   5.247  1.1606 -0.3046 -0.5444
19843TIP3   OH281019   1.232   5.202  17.137  0.0478  0.1982 -0.2742
19843TIP3    H181020   1.233   5.129  17.199 -1.6403  1.3764  1.2271
19843TIP3    H281021   1.177   5.171  17.064  1.2276 -0.8257 -0.7585
19844TIP3   OH281022   6.059   1.757  16.879 -0.4656  0.0030 -0.1494
19844TIP3    H181023   6.039   1.849  16.862  1.2137  0.5006  0.3406
19844TIP3    H281024   5.982   1.710  16.850 -1.0773  1.5096 -1.0982
19845TIP3   OH281025   0.083   6.074   0.981 -0.0083  0.2699  0.3327
19845TIP3    H181026   0.045   6.062   0.894 -0.9853 -2.6311  1.0677
19845TIP3    H281027   0.134   6.155   0.973  0.7808 -0.3909 -3.2191
19846TIP3   OH281028   4.440   1.246  16.152 -0.0519  0.5228  0.5698
19846TIP3    H181029   4.513   1.301  16.181  1.3712 -0.4805 -0.9094
19846TIP3    H281030   4.479   1.188  16.086 -1.7663 -1.3682  1.1241
19847TIP3   OH281031   5.398   5.019  16.973 -0.6557 -0.0489 -0.0990
19847TIP3    H181032   5.412   5.031  17.067  0.2928 -1.3533 -0.0388
19847TIP3    H281033   5.303   5.013  16.963 -0.8757  1.7894  0.5232
19848TIP3   OH281034   3.130   0.267  17.200  0.6664 -0.6574 -0.6898
19848TIP3    H181035   3.210   0.300  17.160  1.2560 -0.4115  0.6396
19848TIP3    H281036   3.154   0.251  17.292 -1.1197  0.6419  0.0688
19849TIP3   OH281037   3.400   0.602   5.034  0.6115 -0.3001  0.0760
19849TIP3    H181038   3.473   0.628   4.978  0.5376  0.0417  0.1329
19849TIP3    H281039   3.324   0.602   4.976  0.5940 -0.2840  0.0989
19850TIP3   OH281040   0.718   3.577   5.755  0.2474 -0.1930 -0.0076
19850TIP3    H181041   0.787   3.629   5.798 -0.6983 -0.5293  2.0384
19850TIP3    H281042   0.667   3.642   5.707  0.3017  0.4924  0.8283
19851TIP3   OH281043   4.633   1.258   2.612  0.4584 -0.3856 -0.3536
19851TIP3    H181044   4.609   1.171   2.581 -0.9737  0.1146 -0.7485
19851TIP3    H281045   4.555   1.290   2.657  0.5785  1.0951 -1.1255
19852TIP3   OH281046   1.740   1.244   5.145 -0.2778 -0.6571  0.5056
19852TIP3    H181047   1.711   1.153   5.147  0.2705 -0.8294  0.5664
19852TIP3    H281048   1.700   1.280   5.066 -1.5856 -0.5851  1.1699
19853TIP3   OH281049   5.931   3.543  11.338  0.5352  0.0397 -0.3394
19853TIP3    H181050   5.923   3.628  11.381  1.8044 -0.0043  0.0211
19853TIP3    H281051   5.867   3.488  11.384  1.8425 -0.0020  1.5480
19854TIP3   OH281052   3.432   2.700  14.440  0.1232 -0.7184  0.9612
19854TIP3    H181053   3.441   2.724  14.532 -0.0233  1.1117  0.5435
19854TIP3    H281054   3.338   2.704  14.423  0.0567 -2.0215  0.9514
19855TIP3   OH281055   2.831   0.472  14.420 -0.5301 -0.0124  0.0466
19855TIP3    H181056   2.739   0.444  14.420 -0.1449 -1.5340  1.9027
19855TIP3    H281057   2.842   0.517  14.503  0.7796 -1.4448  0.7157
19856TIP3   OH281058   5.987   6.036   1.848  0.1753 -0.2389  0.4513
19856TIP3    H181059   5.964   5.993   1.931  0.5277  2.1157  1.8594
19856TIP3    H281060   5.930   6.113   1.845  2.7890  1.8480  0.4913
19857TIP3   OH281061   6.590   3.758  16.330 -0.1059  0.2281  0.0765
19857TIP3    H181062   6.532   3.682  16.331 -1.0327  0.8743 -1.2677
19857TIP3    H281063   6.670   3.727  16.289 -0.7435  0.1253 -1.1340
19858TIP3   OH281064   4.912   6.766  11.934  0.3396 -0.3659 -0.8643
19858TIP3    H181065   4.933   6.854  11.902 -1.0304  2.1248  4.0459
19858TIP3    H281066   4.997   6.726  11.951  1.0416  1.1353 -0.6809
19859TIP3   OH281067   6.113   1.370   3.107  0.1102  0.1529  0.1175
19859TIP3    H181068   6.195   1.343   3.064  0.0198  1.8224 -1.2086
19859TIP3    H281069   6.121   1.337   3.197  2.2686  0.3479  0.0449
19860TIP3   OH281070   4.888   1.804  16.233 -0.1560 -0.2374 -0.4884
19860TIP3    H181071   4.824   1.793  16.163 -0.8315  1.5630 -0.2051
19860TIP3    H281072   4.928   1.889  16.215  0.9538 -0.5617  0.3241
19861TIP3   OH281073   0.004   2.485  16.854 -0.1585  0.0369 -0.0782
19861TIP3    H181074   0.012   2.574  16.820  1.5341 -1.1576 -3.2500
19861TIP3    H281075  -0.089   2.462  16.841 -0.5277  1.1768  0.4469
19862TIP3   OH281076   2.329   6.767  11.525  0.2312 -0.4019 -0.2263
19862TIP3    H181077   2.287   6.681  11.515 -1.0072  0.0858  0.5835
19862TIP3    H281078   2.260   6.830  11.505  0.2656  0.4448  2.0160
19863TIP3   OH281079   6.347   1.913  14.570 -0.3510 -0.0937  0.0891
19863TIP3    H181080   6.372   1.920  14.478  1.1736 -1.7635  0.2993
19863TIP3    H281081   6.321   2.001  14.595  0.9295  0.7869 -1.4703
19864TIP3   OH281082   6.155   0.881   2.151 -0.7741 -0.3604  0.0862
19864TIP3    H181083   6.227   0.929   2.192  0.4827 -0.7723 -1.5511
19864TIP3    H281084   6.159   0.794   2.190 -0.0322 -0.5462 -0.4038
19865TIP3   OH281085   3.040   0.277  14.948  0.4110  0.0047 -0.7268
19865TIP3    H181086   3.128   0.246  14.971  0.3157 -0.7343 -1.3054
19865TIP3    H281087   2.984   0.200  14.958  0.2608 -0.1913 -2.7427
19866TIP3   OH281088   5.578   2.188   4.039  0.1851  0.2296 -0.1594
19866TIP3    H181089   5.645   2.120   4.041  0.8994  0.8518 -1.5423
19866TIP3    H281090   5.533   2.175   3.956  0.3966  1.5054 -0.4843
19867TIP3   OH281091   4.109   4.270   0.362  0.0220  0.4397 -0.4486
19867TIP3    H181092   4.130   4.321   0.284 -0.4369 -0.3304 -1.0954
19867TIP3    H281093   4.192   4.231   0.389  0.4121  1.6491  0.1599
19868TIP3   OH281094   6.676   0.728  11.264 -0.6974  0.1297 -0.1281
19868TIP3    H181095   6.733   0.674  11.320 -0.7216  0.1061 -0.1261
19868TIP3    H281096   6.735   0.765  11.198 -0.2733  1.8162  1.1122
19869TIP3   OH281097   1.019   0.923  17.153  0.0146  0.1441  0.6086
19869TIP3    H181098   1.103   0.939  17.109 -0.7274  0.9518 -0.5641
19869TIP3    H281099   0.966   0.879  17.087 -0.8210  0.5327  1.0142
19870TIP3   OH281100   5.590   2.933   1.592  0.5463  0.4813 -0.1483
19870TIP3    H181101   5.671   2.937   1.540 -0.3532  1.3964 -1.5433
19870TIP3    H281102   5.589   3.015   1.640 -0.8982  1.8392 -2.3244
19871TIP3   OH281103   6.017   5.998  11.705  0.3044  0.0616 -0.0199
19871TIP3    H181104   6.053   5.910  11.694  0.7640  0.1965  0.3762
19871TIP3    H281105   6.083   6.045  11.756  0.6096  0.9933 -1.2223
19872TIP3   OH281106   0.454   4.166   1.641 -0.3754 -0.4726 -0.6096
19872TIP3    H181107   0.460   4.226   1.716 -1.6364 -3.0583  1.7520
19872TIP3    H281108   0.407   4.216   1.575 -0.8264  1.3733  0.9887
19873TIP3   OH281109   5.872   2.470  16.034  0.0417 -0.0936  0.0256
19873TIP3    H181110   5.892   2.462  15.941 -0.3795 -0.5884 -0.0240
19873TIP3    H281111   5.952   2.505  16.073 -0.3459  1.8226 -0.7912
19874TIP3   OH281112   0.862   2.326   1.963  0.4685  0.0020  0.1127
19874TIP3    H181113   0.859   2.289   2.051 -0.2698  1.2611  0.6393
19874TIP3    H281114   0.918   2.266   1.914 -0.6063 -1.7378  0.9375
19875TIP3   OH281115   5.740   1.546  12.468  0.3538  0.2095 -0.1037
19875TIP3    H181116   5.691   1.564  12.388 -1.5407 -1.2874  0.6178
19875TIP3    H281117   5.810   1.486  12.441 -1.2646 -1.6186 -0.4606
19876TIP3   OH281118   6.195   3.217  13.114 -0.5811  0.0822  0.0642
19876TIP3    H181119   6.123   3.238  13.055 -1.0123 -0.0621  0.5388
19876TIP3    H281120   6.267   3.192  13.055 -0.8701  0.3634 -0.4105
19877TIP3   OH281121   0.108   3.948  11.847  0.0400  0.0316 -0.1380
19877TIP3    H181122   0.146   3.933  11.933 -0.1477 -2.1180 -0.3754
19877TIP3    H281123   0.171   3.909  11.786  1.3228  3.5111 -1.2565
19878TIP3   OH281124   1.031   1.791  16.803  0.6410 -0.2420 -0.1729
19878TIP3    H181125   1.107   1.845  16.781  0.7212 -0.2973 -0.0410
19878TIP3    H281126   1.049   1.762  16.893  0.5809 -0.4528 -0.2270
19879TIP3   OH281127   1.542   0.594   5.921 -0.2918  0.2521  0.2642
19879TIP3    H181128   1.527   0.524   5.985 -1.2819  0.2990  0.0970
19879TIP3    H281129   1.538   0.550   5.836  2.8655 -0.1617  0.2046
19880TIP3   OH281130   4.480   5.053   2.748  0.2173  0.4585  0.4324
19880TIP3    H181131   4.457   5.052   2.655 -1.8689  0.9000  0.8828
19880TIP3    H281132   4.495   5.146   2.767  1.9354  0.2456  0.3010
19881TIP3   OH281133   2.280   6.470   1.775  0.0937  0.9145 -0.2957
19881TIP3    H181134   2.188   6.495   1.783 -0.7149 -1.4314 -1.3751
19881TIP3    H281135   2.279   6.397   1.713  2.6883  0.7852 -0.2590
19882TIP3   OH281136   5.611   4.563  14.614 -0.0598 -0.0683  0.0020
19882TIP3    H181137   5.614   4.471  14.642 -0.2583 -1.0880 -2.9563
19882TIP3    H281138   5.520   4.589  14.630  0.6349  0.6591  3.5178
19883TIP3   OH281139   5.903   4.042   2.990 -0.2063 -0.2530 -0.1954
19883TIP3    H181140   5.926   4.060   2.899  1.2079 -0.2419  0.1518
19883TIP3    H281141   5.886   4.129   3.027 -1.7832 -0.3213 -0.6745
19884TIP3   OH281142   3.706   4.659  14.857  0.1032  0.2590  0.3256
19884TIP3    H181143   3.730   4.638  14.767 -1.2885 -1.4225  0.2821
19884TIP3    H281144   3.757   4.598  14.911 -1.0705 -0.6119  0.4774
19885TIP3   OH281145   5.774   3.273   2.492 -0.2582 -0.1634  0.5146
19885TIP3    H181146   5.781   3.361   2.455  0.3831 -0.1061  0.7698
19885TIP3    H281147   5.731   3.285   2.577 -0.3806 -0.1278  0.4483
19886TIP3   OH281148   5.931   1.611   0.469  0.6173 -0.1951  0.7339
19886TIP3    H181149   5.840   1.595   0.444  0.9914 -1.4640  0.0954
19886TIP3    H281150   5.939   1.707   0.471  0.0944  0.0349 -2.4293
19887TIP3   OH281151   3.752   5.702  14.114  0.0810  0.2439 -0.4411
19887TIP3    H181152   3.791   5.757  14.047 -0.8846  0.5137 -0.7990
19887TIP3    H281153   3.801   5.723  14.194  0.2958  0.9777 -0.7566
19888TIP3   OH281154   3.216   6.199   3.716  0.1821 -0.0701  0.3430
19888TIP3    H181155   3.226   6.146   3.795  1.1694 -0.1198  0.2027
19888TIP3    H281156   3.185   6.284   3.747  1.4074  0.1971  0.8953
19889TIP3   OH281157   0.814   4.384  10.896 -0.4691 -0.1804  0.4463
19889TIP3    H181158   0.768   4.302  10.914  0.0992 -0.2368  1.7523
19889TIP3    H281159   0.751   4.438  10.849 -1.0336 -1.1568  0.0584
19890TIP3   OH281160   5.597   1.705  15.384 -0.3165 -0.4525 -0.3112
19890TIP3    H181161   5.549   1.654  15.318  1.6102 -2.4338 -0.3157
19890TIP3    H281162   5.540   1.703  15.461 -2.0852  0.9213 -1.5060
19891TIP3   OH281163   3.665   4.064   3.161 -0.1072  0.0085  0.3526
19891TIP3    H181164   3.736   4.058   3.225  0.0003 -0.3800  0.1991
19891TIP3    H281165   3.701   4.025   3.081 -0.5394 -0.3236  0.3160
19892TIP3   OH281166   3.803   1.304  10.556 -0.7653  0.2637  0.6607
19892TIP3    H181167   3.888   1.308  10.511 -1.2127  0.0289 -0.2343
19892TIP3    H281168   3.780   1.396  10.570 -0.5170  0.3359  0.6120
19893TIP3   OH281169   3.973   4.612   5.096 -0.2245 -0.1311  0.3363
19893TIP3    H181170   4.044   4.549   5.110  1.4101  1.7636  0.9980
19893TIP3    H281171   4.012   4.678   5.038 -1.2600  1.2663  1.1984
19894TIP3   OH281172   1.315   0.864  14.120 -0.0261  0.2771 -0.0884
19894TIP3    H181173   1.343   0.858  14.211 -0.1080  0.9813 -0.0081
19894TIP3    H281174   1.346   0.950  14.092 -2.2230  1.1653  0.0576
19895TIP3   OH281175   3.556   0.332  11.867 -0.0987  0.0229  0.3466
19895TIP3    H181176   3.468   0.306  11.840  0.6902 -1.2210 -1.1670
19895TIP3    H281177   3.604   0.346  11.785  0.8601  1.6845  1.1328
19896TIP3   OH281178   6.720   6.539   1.955  0.1875  0.5432  0.4054
19896TIP3    H181179   6.757   6.627   1.960 -0.1277  0.7257 -0.2830
19896TIP3    H281180   6.626   6.554   1.948 -0.0318  0.0922  1.9996
19897TIP3   OH281181   0.484   0.592   2.589  0.3171 -0.8499 -0.2855
19897TIP3    H181182   0.404   0.645   2.586  0.5105 -0.6048 -1.8220
19897TIP3    H281183   0.534   0.629   2.661  0.4001  1.0253 -1.2419
19898TIP3   OH281184   0.583   1.001  11.216  0.1004  0.0691 -0.2491
19898TIP3    H181185   0.550   0.961  11.136 -0.1798  1.1921 -0.7148
19898TIP3    H281186   0.536   1.085  11.223  0.3284  0.1268  0.9304
19899TIP3   OH281187   4.162   1.281  10.849  0.4708 -0.1349 -0.0942
19899TIP3    H181188   4.153   1.203  10.795 -0.5888  0.3584 -0.6503
19899TIP3    H281189   4.221   1.254  10.920  1.6448 -0.8752 -1.3055
19900TIP3   OH281190   1.399   3.457   5.206 -0.7310  0.0040 -0.7091
19900TIP3    H181191   1.431   3.547   5.214 -3.5578  0.9858  1.7607
19900TIP3    H281192   1.472   3.402   5.233  0.4693  1.6890 -0.3988
19901TIP3   OH281193   6.346   2.720  11.720 -0.1504 -0.6813  0.0108
19901TIP3    H181194   6.430   2.737  11.676  0.4833 -0.4758  1.2535
19901TIP3    H281195   6.283   2.772  11.671  0.8859  1.2018  0.5533
19902TIP3   OH281196   3.110   6.179  16.186 -0.2174  0.1087  0.9640
19902TIP3    H181197   3.164   6.194  16.108  0.3228  1.2130  1.5271
19902TIP3    H281198   3.115   6.084  16.201  0.9102  0.0858  0.5284
19903TIP3   OH281199   5.277   4.892  12.725  0.2708  0.3802 -0.6376
19903TIP3    H181200   5.274   4.967  12.666 -0.3262 -0.0371 -1.1489
19903TIP3    H281201   5.193   4.895  12.772  0.9525  1.0227  0.6039
19904TIP3   OH281202   3.659   5.024  16.911 -1.0625 -0.9077  0.0901
19904TIP3    H181203   3.564   5.032  16.920 -0.9240 -0.2559  1.1442
19904TIP3    H281204   3.690   5.115  16.905 -0.6010 -1.1362 -1.5389
19905TIP3   OH281205   5.049   5.353   2.903 -0.1300  0.2919 -0.0800
19905TIP3    H181206   4.968   5.332   2.857  0.0396 -0.5549 -0.0115
19905TIP3    H281207   5.020   5.393   2.985 -0.4943 -0.2773  0.0756
19906TIP3   OH281208   2.953   3.524   3.105 -1.0197 -0.0206 -0.0342
19906TIP3    H181209   2.896   3.448   3.115 -0.3096 -0.2912  2.7883
19906TIP3    H281210   3.041   3.490   3.123 -0.6502  1.4069  0.9799
19907TIP3   OH281211   3.258   1.180  11.997 -0.0794  0.0879  0.4265
19907TIP3    H181212   3.212   1.101  12.023  1.0691 -0.8646 -0.3438
19907TIP3    H281213   3.201   1.221  11.932 -0.7416 -0.0196  0.9350
19908TIP3   OH281214   5.860   1.361  13.404 -0.0679  0.0697 -0.5751
19908TIP3    H181215   5.948   1.388  13.381  0.7147 -0.7420  1.2701
19908TIP3    H281216   5.854   1.269  13.376 -0.5305  0.2692 -1.1637
19909TIP3   OH281217   0.324   3.159   1.881 -0.0936  0.9761  0.3065
19909TIP3    H181218   0.254   3.216   1.850 -0.4501  0.4519  0.1300
19909TIP3    H281219   0.285   3.072   1.883  0.4978  0.7060  0.3956
19910TIP3   OH281220   0.383   1.246  10.591 -0.2983  0.3122  0.8792
19910TIP3    H181221   0.435   1.274  10.516 -2.2207  0.8335 -0.3266
19910TIP3    H281222   0.443   1.254  10.666  2.1858 -1.7094 -0.6941
19911TIP3   OH281223   1.835   0.719  12.894  0.1955 -0.4234  0.0239
19911TIP3    H181224   1.747   0.745  12.922  0.0966  0.4363 -1.0438
19911TIP3    H281225   1.874   0.679  12.972 -0.4729  0.8841  1.0611
19912TIP3   OH281226   2.198   1.389  13.049  0.3788 -0.2862  0.5640
19912TIP3    H181227   2.192   1.459  12.983 -0.2512 -1.7439 -1.0143
19912TIP3    H281228   2.167   1.311  13.003 -1.6216 -1.0963  3.0721
19913TIP3   OH281229   3.680   5.791   4.141  0.0384  0.2095  0.2554
19913TIP3    H181230   3.696   5.857   4.073 -0.2750  1.2715  1.1770
19913TIP3    H281231   3.683   5.841   4.223  1.0149 -1.1370  1.0725
19914TIP3   OH281232   4.576   4.417  12.277 -0.5255 -0.3278  0.8033
19914TIP3    H181233   4.520   4.340  12.290  0.5578 -1.4686 -0.8966
19914TIP3    H281234   4.632   4.394  12.203 -1.2600  2.7208 -0.8790
19915TIP3   OH281235   2.806   1.767   0.815  0.3865 -0.2585  0.6411
19915TIP3    H181236   2.896   1.780   0.844  0.5956  2.6720 -0.8985
19915TIP3    H281237   2.814   1.730   0.727 -0.0854 -2.8617  1.5977
19916TIP3   OH281238   1.136   4.543  10.695 -0.1628  0.3775  0.7750
19916TIP3    H181239   1.068   4.609  10.680 -0.5571  0.0041  0.8813
19916TIP3    H281240   1.100   4.463  10.655  0.0465  0.0846  1.1716
19917TIP3   OH281241   1.461   2.793   2.660 -0.2186 -0.1619 -0.4603
19917TIP3    H181242   1.511   2.767   2.738  0.5152  0.8715 -0.5632
19917TIP3    H281243   1.381   2.831   2.695 -0.0026  0.0695 -0.2091
19918TIP3   OH281244   5.742   5.651  13.905  0.1779 -0.1701  0.4200
19918TIP3    H181245   5.692   5.706  13.966 -0.4292  0.4437 -0.6173
19918TIP3    H281246   5.703   5.564  13.914  0.8460 -0.3715  1.7360
19919TIP3   OH281247   5.648   1.462  12.051 -0.4932  0.8350  0.0995
19919TIP3    H181248   5.690   1.398  12.108 -1.4545  1.6046  1.7314
19919TIP3    H281249   5.720   1.518  12.021 -0.1919  1.6672  2.2303
19920TIP3   OH281250   6.223   3.691  14.215  0.1124  0.6317  0.4081
19920TIP3    H181251   6.264   3.665  14.132  1.1041 -2.2065  1.6334
19920TIP3    H281252   6.294   3.730  14.266  0.6164 -1.3745  1.3499
19921TIP3   OH281253   2.554   2.877   3.841  0.0711  0.3581 -0.4221
19921TIP3    H181254   2.571   2.926   3.761 -0.6226  1.1462 -0.1088
19921TIP3    H281255   2.464   2.846   3.832  0.1183  0.1229 -0.1188
19922TIP3   OH281256   2.813   5.698  16.854 -0.4563  0.3054  0.3026
19922TIP3    H181257   2.876   5.687  16.783 -0.7499 -2.3369  0.3664
19922TIP3    H281258   2.820   5.791  16.878  1.1777  0.7729 -1.7192
19923TIP3   OH281259   3.896   5.375   6.533 -1.1547  0.1921  0.1786
19923TIP3    H181260   3.956   5.418   6.473 -0.6748 -0.5110  0.1483
19923TIP3    H281261   3.936   5.291   6.552 -1.3678  0.3363  1.3691
19924TIP3   OH281262   2.695   1.859   3.978  0.2726  0.4922  0.1155
19924TIP3    H181263   2.691   1.877   3.884  2.1600 -1.3518 -0.3901
19924TIP3    H281264   2.623   1.797   3.994  0.4960  0.1346 -0.2786
19925TIP3   OH281265   1.723   6.604  11.586 -0.5029  0.3595  0.0846
19925TIP3    H181266   1.699   6.602  11.494  0.9029  0.2190 -0.3013
19925TIP3    H281267   1.656   6.658  11.628 -0.9415  0.7312 -1.0804
19926TIP3   OH281268   6.156   6.166  13.963  0.2031 -0.4397  0.3332
19926TIP3    H181269   6.138   6.179  14.056  0.5900  0.6247  0.2724
19926TIP3    H281270   6.102   6.231  13.918 -0.5108 -1.4017 -0.2488
19927TIP3   OH281271   4.736   1.790  12.824  0.1913  0.2924  1.1695
19927TIP3    H181272   4.668   1.841  12.868  0.4517  1.7134  0.0161
19927TIP3    H281273   4.691   1.750  12.750  0.0888 -0.8307  1.8203
19928TIP3   OH281274   3.700   4.313  14.846 -0.0840  0.0151  0.6000
19928TIP3    H181275   3.700   4.218  14.842 -0.9488  0.0092  0.5227
19928TIP3    H281276   3.791   4.338  14.831  0.1987 -0.8063  0.9124
19929TIP3   OH281277   3.325   0.634   3.075 -0.0173  0.3343  0.1653
19929TIP3    H181278   3.241   0.644   3.030  0.5164 -1.3534 -1.3213
19929TIP3    H281279   3.381   0.702   3.038  0.8491 -1.8862 -2.9756
19930TIP3   OH281280   4.122   6.637   0.136 -0.2602 -0.3388 -0.3428
19930TIP3    H181281   4.065   6.616   0.063  1.1567  1.9341 -2.2418
19930TIP3    H281282   4.072   6.700   0.188 -0.0269  0.6145 -1.2503
19931TIP3   OH281283   1.608   2.909   1.820 -0.1675  0.3858 -0.6338
19931TIP3    H181284   1.611   2.886   1.728 -1.5292 -1.4434 -0.2770
19931TIP3    H281285   1.569   2.996   1.822  0.4751  0.7151 -1.8093
19932TIP3   OH281286   2.270   2.353   2.813  0.4177  0.2397  0.2021
19932TIP3    H181287   2.353   2.386   2.847 -0.1713  2.6366 -0.5159
19932TIP3    H281288   2.292   2.320   2.725  1.4181 -3.5265  1.6634
19933TIP3   OH281289   2.330   1.525  17.196 -0.4568 -0.0464  0.0351
19933TIP3    H181290   2.394   1.453  17.200 -0.9739 -0.7173 -2.1336
19933TIP3    H281291   2.380   1.603  17.220  1.0347 -0.6634 -0.9185
19934TIP3   OH281292   1.056   4.024   4.847  0.0149  0.3804 -0.0378
19934TIP3    H181293   1.090   3.991   4.930 -0.2568  2.0583  0.7695
19934TIP3    H281294   1.132   4.060   4.802 -0.2240  1.7215  0.5977
19935TIP3   OH281295   0.025   0.640   1.038 -0.5139  0.1499 -0.0840
19935TIP3    H181296   0.091   0.696   0.997 -0.8671  0.6237 -0.0018
19935TIP3    H281297  -0.032   0.613   0.967 -0.4115 -0.0120 -0.1046
19936TIP3   OH281298   4.938   1.411   1.246  0.1063  0.0681  0.6118
19936TIP3    H181299   5.011   1.421   1.308  0.5087  0.6905  0.0527
19936TIP3    H281300   4.964   1.464   1.170 -0.5366 -0.4125  0.0515
19937TIP3   OH281301   2.263   0.635   1.762  0.1837  0.4034 -0.3175
19937TIP3    H181302   2.237   0.597   1.847  1.0650  0.0241 -0.2095
19937TIP3    H281303   2.346   0.678   1.779  0.6869 -0.2206 -1.1284
19938TIP3   OH281304   4.251   0.707  12.080  0.2563  0.3112 -0.1506
19938TIP3    H181305   4.301   0.631  12.048  0.1292  0.0232  0.3168
19938TIP3    H281306   4.237   0.761  12.002  0.0562 -0.3122 -0.5565
19939TIP3   OH281307   3.003   4.838   4.040  0.1471  0.0004 -0.0853
19939TIP3    H181308   2.994   4.751   4.079  0.4798  0.0234  0.0510
19939TIP3    H281309   2.929   4.846   3.981  0.0819 -0.3550 -0.0547
19940TIP3   OH281310   4.672   0.534   3.399  0.4076  0.1048  0.3539
19940TIP3    H181311   4.625   0.506   3.320  0.2423  1.9380 -0.2491
19940TIP3    H281312   4.663   0.629   3.400  1.2604  0.2101  2.0663
19941TIP3   OH281313   1.389   5.525   4.399 -0.9820 -0.5677 -0.2126
19941TIP3    H181314   1.336   5.597   4.365 -0.6262 -1.0245 -1.8261
19941TIP3    H281315   1.414   5.475   4.322  1.3897 -0.6459  0.5018
19942TIP3   OH281316   1.371   5.018  12.621  0.8676  0.1765 -0.0995
19942TIP3    H181317   1.331   5.088  12.672  0.5432  0.7253 -1.0615
19942TIP3    H281318   1.465   5.030  12.633  0.8104  0.6836 -0.1277
19943TIP3   OH281319   5.426   2.479   3.191 -0.0140  0.5965 -0.7195
19943TIP3    H181320   5.335   2.478   3.222  0.2898  1.6632  0.2776
19943TIP3    H281321   5.428   2.415   3.121 -1.5516  0.5732 -0.7745
19944TIP3   OH281322   1.612   1.063  17.025  0.7153 -0.6420  0.5734
19944TIP3    H181323   1.577   1.048  17.113  0.3393  1.1400  0.7531
19944TIP3    H281324   1.698   1.102  17.039  1.0382 -1.1742  0.1307
19945TIP3   OH281325   2.290   2.524   5.210  0.0827  0.1291 -0.7343
19945TIP3    H181326   2.369   2.479   5.179  0.6114  0.1292  0.5462
19945TIP3    H281327   2.280   2.496   5.300 -1.1262  0.5131 -0.7309
19946TIP3   OH281328   0.351   5.870  11.562  0.4119  0.7103  0.4983
19946TIP3    H181329   0.260   5.882  11.536  0.0111  2.5079  2.4203
19946TIP3    H281330   0.362   5.775  11.571 -0.7977  0.3813 -1.1808
19947TIP3   OH281331   3.477   3.396  15.526  0.0339 -0.4158  0.0172
19947TIP3    H181332   3.384   3.408  15.507  0.3987  0.0107 -1.6896
19947TIP3    H281333   3.492   3.303  15.515 -0.0140 -0.3481 -0.6564
19948TIP3   OH281334   6.769   5.578   1.849  0.2698 -0.2917 -0.5159
19948TIP3    H181335   6.800   5.585   1.759  0.4747 -0.5910 -0.4731
19948TIP3    H281336   6.731   5.490   1.855  1.6736 -0.9014  0.0973
19949TIP3   OH281337   5.597   5.143   4.624  0.0413  0.3210 -0.1332
19949TIP3    H181338   5.504   5.128   4.644  0.2567 -0.3447  0.4192
19949TIP3    H281339   5.604   5.124   4.531 -0.6543  1.8098 -0.5154
19950TIP3   OH281340   1.693   3.272   1.589  0.3474 -0.1307  0.4161
19950TIP3    H181341   1.627   3.266   1.520  0.9677  1.4785 -0.3507
19950TIP3    H281342   1.774   3.296   1.543  0.5474  2.0344  1.7918
19951TIP3   OH281343   4.404   6.097   3.862 -0.1811 -0.4747 -0.0518
19951TIP3    H181344   4.403   6.114   3.767 -0.3638 -0.6293 -0.0783
19951TIP3    H281345   4.368   6.009   3.870 -2.2141  0.3513  0.3341
19952TIP3   OH281346   5.259   3.801  10.467 -0.5028  0.1162 -0.1233
19952TIP3    H181347   5.275   3.715  10.507  1.9967  1.4799  2.1525
19952TIP3    H281348   5.334   3.814  10.409  0.4178  1.6014  1.3004
19953TIP3   OH281349   2.213   3.341  16.729 -0.0338  0.2089  0.4772
19953TIP3    H181350   2.213   3.245  16.728  0.9469  0.2009  0.2595
19953TIP3    H281351   2.120   3.365  16.734 -0.2224 -0.7502  2.6502
19954TIP3   OH281352   3.395   1.472  15.529  0.6708  0.3165 -0.0228
19954TIP3    H181353   3.311   1.443  15.494  0.2080 -0.6669  1.7886
19954TIP3    H281354   3.412   1.555  15.484 -1.1406  0.4197 -0.5982
19955TIP3   OH281355   2.390   5.676   0.628  0.0815  0.3994 -0.2624
19955TIP3    H181356   2.481   5.657   0.652 -0.4732  0.1410  1.7616
19955TIP3    H281357   2.385   5.654   0.535  2.3701  1.5241 -0.7275
19956TIP3   OH281358   3.208   6.568  15.470 -0.2859 -0.2058 -0.1852
19956TIP3    H181359   3.279   6.631  15.483 -1.9030  1.7965 -0.5928
19956TIP3    H281360   3.251   6.493  15.427  1.9457 -0.0241  1.5135
19957TIP3   OH281361   1.280   0.686   5.276 -0.2112  0.2556 -0.0887
19957TIP3    H181362   1.322   0.673   5.362  0.6237 -0.8054 -0.6309
19957TIP3    H281363   1.293   0.779   5.258  3.3297 -0.2162 -0.8525
19958TIP3   OH281364   0.152   1.718   2.202 -0.1688 -0.4162 -0.0911
19958TIP3    H181365   0.095   1.794   2.189 -0.5535 -0.7941 -0.6575
19958TIP3    H281366   0.151   1.704   2.297 -0.3056  0.1215 -0.0085
19959TIP3   OH281367   2.672   5.323   3.934  0.1739 -0.5837 -0.1193
19959TIP3    H181368   2.765   5.341   3.945  0.3851 -1.8495  0.2900
19959TIP3    H281369   2.657   5.241   3.980 -1.6310  0.7535  1.8818
19960TIP3   OH281370   4.138   3.543   0.632 -0.2144  0.2569 -0.4015
19960TIP3    H181371   4.227   3.517   0.659  0.5645  1.6983 -1.4745
19960TIP3    H281372   4.086   3.535   0.712  1.1850  0.7179  0.5928
19961TIP3   OH281373   0.227   2.259   2.971 -0.2044  0.5559 -0.0209
19961TIP3    H181374   0.189   2.253   3.059 -1.4924  0.5095 -0.5467
19961TIP3    H281375   0.176   2.196   2.919 -0.3204  1.4811 -1.0652
19962TIP3   OH281376   4.353   3.254   1.973 -0.2649  0.2280 -0.1459
19962TIP3    H181377   4.328   3.338   2.012 -0.4089 -0.1945  0.7017
19962TIP3    H281378   4.331   3.263   1.880  0.0099  1.2317 -0.1249
19963TIP3   OH281379   4.512   1.043   3.618  0.6643  0.4838  0.4717
19963TIP3    H181380   4.584   1.105   3.627  2.5788 -1.8957  3.8353
19963TIP3    H281381   4.467   1.046   3.702 -1.8977  0.3005 -0.7990
19964TIP3   OH281382   2.680   2.441  14.310  0.1460 -0.4788 -0.1457
19964TIP3    H181383   2.613   2.372  14.307 -1.0962  0.7022 -3.7840
19964TIP3    H281384   2.754   2.405  14.261 -0.5619  0.7141 -2.1878
19965TIP3   OH281385   5.910   3.447  11.686  0.0921  0.6354  0.1294
19965TIP3    H181386   6.002   3.458  11.663  0.3571  1.0069  1.2854
19965TIP3    H281387   5.874   3.391  11.617  0.4992  2.6563 -1.8219
19966TIP3   OH281388   1.130   5.647   2.954 -0.0386 -0.4996  0.1823
19966TIP3    H181389   1.101   5.626   2.865  0.5336  0.7311 -0.3142
19966TIP3    H281390   1.060   5.614   3.010  0.3785 -2.8682 -0.5660
19967TIP3   OH281391   5.650   4.870   2.357 -0.2664 -0.6653  0.1400
19967TIP3    H181392   5.647   4.872   2.262  1.3921 -0.2972  0.0718
19967TIP3    H281393   5.562   4.894   2.384 -0.7771 -0.8371 -1.2915
19968TIP3   OH281394   6.581   5.163  11.581 -0.7156  0.5095 -0.4756
19968TIP3    H181395   6.601   5.199  11.668 -0.7624 -0.8279  0.1189
19968TIP3    H281396   6.590   5.237  11.522  1.5446  0.9782  0.3575
19969TIP3   OH281397   6.001   2.319  12.343 -0.3486  0.2155  0.2065
19969TIP3    H181398   5.970   2.285  12.259  0.3951  1.6879 -0.7095
19969TIP3    H281399   5.945   2.395  12.360 -0.3231  0.0835  0.9346
19970TIP3   OH281400   5.676   4.775   4.148 -0.1094 -0.2438 -0.1262
19970TIP3    H181401   5.738   4.743   4.082 -0.9518 -0.2563 -0.9254
19970TIP3    H281402   5.729   4.785   4.227  1.0636  0.4158 -0.9631
19971TIP3   OH281403   5.531   0.891   3.256 -0.5202 -0.7393  0.1421
19971TIP3    H181404   5.601   0.935   3.304 -0.9632 -1.2396  1.2900
19971TIP3    H281405   5.451   0.916   3.302 -1.0373 -0.7248 -0.7387
19972TIP3   OH281406   2.574   2.430  13.051  0.1874  0.2544 -0.4287
19972TIP3    H181407   2.639   2.486  13.008  0.4485 -0.1002 -0.5015
19972TIP3    H281408   2.582   2.346  13.007 -0.5263  0.2818 -0.6348
19973TIP3   OH281409   1.930   6.679   4.488 -0.2786 -0.0564 -0.6799
19973TIP3    H181410   2.000   6.643   4.434  1.6958  2.5995 -0.1105
19973TIP3    H281411   1.894   6.751   4.437 -0.7982  0.2654  0.1113
19974TIP3   OH281412   4.995   3.531  16.378  0.9359 -0.3327  0.2647
19974TIP3    H181413   5.088   3.521  16.396  1.3397  0.7520 -1.0342
19974TIP3    H281414   4.964   3.442  16.361  1.5783 -0.7788  1.3064
19975TIP3   OH281415   0.022   3.982   4.860  0.1993  0.0154 -0.4006
19975TIP3    H181416   0.040   3.892   4.831 -0.8375 -1.0325  1.9001
19975TIP3    H281417   0.107   4.017   4.886  0.4519 -0.8097 -0.0739
19976TIP3   OH281418   3.544   0.780   1.310 -0.3273 -0.2796  0.0214
19976TIP3    H181419   3.618   0.762   1.253  0.4309  1.2694  0.4536
19976TIP3    H281420   3.479   0.821   1.253  0.1034  0.5130  0.0809
19977TIP3   OH281421   1.537   4.963  14.331  0.0493 -0.3251 -0.2348
19977TIP3    H181422   1.507   4.906  14.261  1.2412  1.3903 -2.2731
19977TIP3    H281423   1.613   5.008  14.294  0.2141  1.2699  1.8747
19978TIP3   OH281424   0.035   5.053  15.388 -0.2430 -0.8607 -0.0635
19978TIP3    H181425  -0.038   4.991  15.393 -0.1601 -1.0833 -1.3613
19978TIP3    H281426   0.099   5.010  15.331  3.0891 -2.8264  4.4533
19979TIP3   OH281427   6.780   0.253   0.917  0.2186  0.5453 -0.0441
19979TIP3    H181428   6.832   0.319   0.872 -0.2245  1.7399  1.1398
19979TIP3    H281429   6.836   0.175   0.920 -0.1255 -0.0076 -3.6093
19980TIP3   OH281430   0.826   1.733   0.431  0.4253  0.6709 -0.6927
19980TIP3    H181431   0.745   1.729   0.482  0.4728  0.3836 -0.6374
19980TIP3    H281432   0.859   1.643   0.433  0.0641  0.4984 -1.8039
19981TIP3   OH281433   3.031   2.074   0.174 -0.6498  0.3340 -0.5137
19981TIP3    H181434   3.064   1.990   0.143  0.7276  0.1075  1.4084
19981TIP3    H281435   2.944   2.055   0.208 -1.1156  0.0980 -1.7609
19982TIP3   OH281436   0.427   3.571   1.574 -0.3283 -0.5845 -0.2505
19982TIP3    H181437   0.377   3.493   1.549 -2.0177  0.7903 -1.4304
19982TIP3    H281438   0.479   3.592   1.496  1.2668 -1.3283  0.5691
19983TIP3   OH281439   5.862   0.233   5.380 -0.5094  0.7036  0.2648
19983TIP3    H181440   5.925   0.205   5.446 -2.9132 -1.5520  1.8143
19983TIP3    H281441   5.869   0.328   5.378  2.3588  0.5969  0.8493
19984TIP3   OH281442   1.399   2.364  16.629  0.4467 -0.7505 -0.6184
19984TIP3    H181443   1.378   2.386  16.538  1.1956  0.0796 -0.6044
19984TIP3    H281444   1.495   2.362  16.632  0.4658  0.5662  0.4394
19985TIP3   OH281445   0.548   2.859  11.093 -0.0707  0.0543  0.0682
19985TIP3    H181446   0.528   2.784  11.036  0.2106  0.1224 -0.1208
19985TIP3    H281447   0.502   2.932  11.052 -0.2901 -0.0000  0.2158
19986TIP3   OH281448   2.852   2.936   5.434  0.2853  0.2806  0.1315
19986TIP3    H181449   2.931   2.883   5.426 -0.4143 -0.6478 -0.9381
19986TIP3    H281450   2.786   2.876   5.470 -0.3157  0.6426 -0.3461
19987TIP3   OH281451   0.461   4.302  17.185 -0.1346 -0.7505 -0.1972
19987TIP3    H181452   0.372   4.309  17.218 -0.1278 -0.1293 -0.3112
19987TIP3    H281453   0.512   4.362  17.239  0.3372 -1.5579  0.2801
19988TIP3   OH281454   6.378   2.566  12.918  0.1686  1.1681 -0.3489
19988TIP3    H181455   6.318   2.492  12.906  1.8137 -0.3639  0.3357
19988TIP3    H281456   6.322   2.644  12.915 -1.7291 -0.1373 -0.4301
19989TIP3   OH281457   5.086   2.778  15.407  0.0121  0.1379 -0.0467
19989TIP3    H181458   5.068   2.838  15.335 -0.9235 -1.6292 -1.3798
19989TIP3    H281459   5.155   2.821  15.458  0.2158  1.7682 -1.5980
19990TIP3   OH281460   6.770   1.169   5.014 -0.0256  0.1133  0.0341
19990TIP3    H181461   6.851   1.123   5.037  0.8761  1.2238 -0.7712
19990TIP3    H281462   6.736   1.120   4.939 -0.2161 -0.4564  0.4775
19991TIP3   OH281463   6.407   3.337  11.482 -0.5175  0.2716  0.4058
19991TIP3    H181464   6.355   3.402  11.435  0.7177  2.2992  1.6921
19991TIP3    H281465   6.421   3.374  11.569  1.9326 -0.7626  0.5569
19992TIP3   OH281466   1.695   3.323  10.891 -0.2504 -0.2070 -0.3919
19992TIP3    H181467   1.653   3.241  10.866  0.2828 -0.1333 -1.6113
19992TIP3    H281468   1.728   3.359  10.808  0.5937  0.6267  0.2891
19993TIP3   OH281469   5.848   2.854  15.298  0.2343  0.6738 -0.2447
19993TIP3    H181470   5.811   2.932  15.258  1.4187  1.6728  0.5284
19993TIP3    H281471   5.874   2.882  15.386 -1.2208 -1.1367  0.8431
19994TIP3   OH281472   0.776   1.676   0.915  0.2614  0.7688 -0.1843
19994TIP3    H181473   0.815   1.733   0.981 -0.8816  0.7361  0.5357
19994TIP3    H281474   0.850   1.653   0.858  1.5859 -0.3049  1.8286
19995TIP3   OH281475   4.512   1.745  16.649  0.5225 -0.4379  0.3226
19995TIP3    H181476   4.483   1.707  16.566 -1.3583  1.3131  0.0977
19995TIP3    H281477   4.580   1.808  16.625  0.9525 -0.9171  0.2768
19996TIP3   OH281478   1.789   5.586   6.780 -0.2626  0.1757  0.2316
19996TIP3    H181479   1.736   5.520   6.825  1.1183 -0.7937  0.4986
19996TIP3    H281480   1.759   5.583   6.690 -1.6944  0.7222  0.6745
19997TIP3   OH281481   2.982   4.586   4.144 -0.1509 -0.0403  0.4560
19997TIP3    H181482   3.029   4.505   4.126  1.1522  0.8135 -0.1349
19997TIP3    H281483   2.918   4.562   4.212 -2.1161 -2.3086 -1.9691
19998TIP3   OH281484   1.247   3.992  13.858 -0.5141  0.3589  0.0382
19998TIP3    H181485   1.194   4.032  13.927 -1.3192 -1.4782  0.5493
19998TIP3    H281486   1.184   3.972  13.788 -0.1997 -0.2919 -0.0648
19999TIP3   OH281487   3.039   0.880  13.189  0.2397  0.2081  0.4946
19999TIP3    H181488   3.115   0.933  13.212  0.7114 -0.3004  0.1144
19999TIP3    H281489   3.065   0.832  13.111 -1.0598  1.3100 -0.6794
20000TIP3   OH281490   0.923   1.004  12.627  0.6202 -0.4946  0.3684
20000TIP3    H181491   0.919   1.079  12.686  1.0249 -1.0053  1.0575
20000TIP3    H281492   0.891   0.931  12.680  0.9612 -0.9516 -0.0584
20001TIP3   OH281493   2.031   3.289   4.642  0.2367  0.1635  0.3217
20001TIP3    H181494   1.970   3.359   4.664  0.6623  0.6390  0.0090
20001TIP3    H281495   1.981   3.209   4.656 -0.3800  0.5373  0.3083
20002TIP3   OH281496   1.958   4.281   5.185 -0.0978  0.4893  0.0172
20002TIP3    H181497   1.929   4.191   5.201 -0.1062  0.7211  1.4453
20002TIP3    H281498   1.877   4.333   5.188  0.0947  0.7660  1.1350
20003TIP3   OH281499   3.299   2.873   5.563  0.6764 -0.7379  0.9392
20003TIP3    H181500   3.249   2.831   5.633  0.5191 -0.2078  1.1499
20003TIP3    H281501   3.387   2.884   5.600  0.4569  0.0289  1.2644
20004TIP3   OH281502   4.066   0.652  13.162  0.0252  0.5353 -0.3962
20004TIP3    H181503   4.160   0.665  13.150 -0.0565  0.5134 -1.1009
20004TIP3    H281504   4.034   0.735  13.195  0.2127  0.7135 -0.6557
20005TIP3   OH281505   5.322   2.907   1.700  0.4474  0.3371 -0.2702
20005TIP3    H181506   5.412   2.894   1.672  0.1587 -1.3987 -0.5042
20005TIP3    H281507   5.275   2.831   1.666 -0.6534  0.0469  1.7414
20006TIP3   OH281508   4.769   2.801  14.582  0.0780  0.2617  0.0327
20006TIP3    H181509   4.822   2.769  14.655  0.0393 -0.4525 -0.2395
20006TIP3    H281510   4.809   2.883  14.556  3.0908 -1.7036 -2.2558
20007TIP3   OH281511   3.798   0.370   2.637 -0.0478 -0.0559 -0.3991
20007TIP3    H181512   3.764   0.459   2.646  1.0285  0.3731 -0.3396
20007TIP3    H281513   3.752   0.333   2.562  0.1222  0.8753 -0.9804
20008TIP3   OH281514   2.168   2.057  13.865  0.1126  0.4006  0.5651
20008TIP3    H181515   2.118   2.031  13.787  0.8582 -2.8376  1.0265
20008TIP3    H281516   2.251   2.090  13.830  0.2602 -0.5810 -0.0610
20009TIP3   OH281517   4.908   6.142  15.357 -0.1304 -0.6870 -0.2021
20009TIP3    H181518   4.880   6.062  15.402 -0.9452 -0.7518 -0.8211
20009TIP3    H281519   5.004   6.142  15.366 -0.1879 -1.3194  0.4846
20010TIP3   OH281520   6.618   1.477  11.326 -0.2795 -0.4815 -0.1023
20010TIP3    H181521   6.649   1.478  11.235 -0.8097  0.6690 -0.2865
20010TIP3    H281522   6.624   1.385  11.352  1.6226 -0.5830 -0.6952
20011TIP3   OH281523   0.707   6.272  11.413 -0.6377 -0.2482 -0.6087
20011TIP3    H181524   0.750   6.244  11.332 -1.6529  1.1900 -1.6915
20011TIP3    H281525   0.645   6.202  11.433  1.1221 -1.6701  0.2038
20012TIP3   OH281526   2.603   6.036  13.378  0.4228  0.0219 -0.3303
20012TIP3    H181527   2.540   6.063  13.311  1.8694 -0.8138 -2.1140
20012TIP3    H281528   2.659   6.113  13.390 -0.7584  0.7145  1.1503
20013TIP3   OH281529   6.128   5.942  15.256 -0.3215 -0.1789 -0.3860
20013TIP3    H181530   6.156   5.948  15.347 -0.4768 -0.8430 -0.2907
20013TIP3    H281531   6.200   5.981  15.207  1.3395 -2.8077 -0.2244
20014TIP3   OH281532   1.169   5.598   2.258  0.2110  0.1371 -0.3311
20014TIP3    H181533   1.246   5.543   2.267  1.1249  1.5686  1.0068
20014TIP3    H281534   1.129   5.569   2.176  1.3660 -1.5885 -0.3380
20015TIP3   OH281535   5.731   3.570  15.920  0.2392  0.4663  0.3608
20015TIP3    H181536   5.673   3.624  15.973 -0.1099 -0.4286  0.8992
20015TIP3    H281537   5.753   3.496  15.976  0.5510 -0.0576 -0.4421
20016TIP3   OH281538   4.372   2.198  15.269 -0.1920 -0.3500  0.1957
20016TIP3    H181539   4.400   2.152  15.348  1.0596 -0.7449 -0.4511
20016TIP3    H281540   4.307   2.261  15.300 -0.0176 -0.7651  1.4748
20017TIP3   OH281541   2.543   3.522   5.006 -0.3955  0.2087  0.1260
20017TIP3    H181542   2.485   3.594   5.029 -0.2822  0.4403 -0.3127
20017TIP3    H281543   2.489   3.465   4.951 -0.3651  0.1505  0.1558
20018TIP3   OH281544   3.639   2.525   1.404 -0.8272 -0.2642  0.0179
20018TIP3    H181545   3.677   2.611   1.386  1.8063 -1.0057  1.5320
20018TIP3    H281546   3.598   2.499   1.321 -1.4915  2.2880 -0.5553
20019TIP3   OH281547   4.855   4.315   0.412 -0.2646  0.2691  0.6285
20019TIP3    H181548   4.808   4.383   0.461 -1.4927 -0.1037  0.0212
20019TIP3    H281549   4.947   4.335   0.425 -0.5827  2.7229 -0.4774
20020TIP3   OH281550   1.614   5.545  12.644  0.3214 -0.1219 -0.6742
20020TIP3    H181551   1.666   5.623  12.665  1.6039 -1.0744 -0.1814
20020TIP3    H281552   1.585   5.512  12.729 -2.1069  0.9961 -0.9784
20021TIP3   OH281553   4.177   4.378   4.170  0.0547  0.7395  0.0077
20021TIP3    H181554   4.195   4.456   4.223 -1.2195 -1.5836  4.3299
20021TIP3    H281555   4.082   4.376   4.161 -0.0752 -0.8993  1.1890
20022TIP3   OH281556   1.867   4.932   0.435 -0.0691 -0.4479 -0.5891
20022TIP3    H181557   1.883   5.005   0.494 -0.5434  0.0026 -1.0150
20022TIP3    H281558   1.926   4.863   0.467 -0.1256 -0.1261  0.2413
20023TIP3   OH281559   0.360   1.740  11.109 -0.1389 -0.5285  0.0372
20023TIP3    H181560   0.360   1.781  11.023  0.4469  0.0348  0.2933
20023TIP3    H281561   0.271   1.751  11.142 -0.3495 -0.7020 -0.4743
20024TIP3   OH281562   6.249   0.096   5.869 -0.3363 -0.1408  0.1555
20024TIP3    H181563   6.171   0.113   5.817 -1.4744 -2.3624  1.0224
20024TIP3    H281564   6.254   0.170   5.929 -0.4767  1.1329 -1.3370
20025TIP3   OH281565   0.854   3.981   3.545 -0.1560  0.5519 -0.3283
20025TIP3    H181566   0.790   3.939   3.602  0.5883 -0.6029 -0.3072
20025TIP3    H281567   0.802   4.018   3.474 -0.8163 -1.0852 -0.7462
20026TIP3   OH281568   2.799   3.892  12.245 -0.1765 -0.2742 -0.2581
20026TIP3    H181569   2.788   3.970  12.299 -2.8784 -0.9733  0.3507
20026TIP3    H281570   2.862   3.838  12.293  0.7639  0.9541 -0.0599
20027TIP3   OH281571   6.775   3.288  11.068 -0.0811 -0.1710 -0.5896
20027TIP3    H181572   6.760   3.195  11.080  0.4131 -0.3309 -1.1908
20027TIP3    H281573   6.697   3.319  11.021 -0.0122 -0.3837 -0.8485
20028TIP3   OH281574   1.338   1.794   4.160  0.0707  0.2362 -0.2877
20028TIP3    H181575   1.298   1.756   4.238  2.0613  1.0896  1.2231
20028TIP3    H281576   1.429   1.809   4.184 -0.1497  4.4296 -1.2611
20029TIP3   OH281577   4.359   1.662  12.941 -0.0211  0.5752 -0.1782
20029TIP3    H181578   4.359   1.662  13.037  1.2367 -0.2485 -0.1409
20029TIP3    H281579   4.306   1.586  12.918  0.1482  0.4332 -0.1090
20030TIP3   OH281580   1.043   0.184   0.053 -0.2238 -0.4938 -0.3694
20030TIP3    H181581   1.055   0.279   0.043  0.0984 -0.6052 -1.1125
20030TIP3    H281582   1.004   0.156  -0.030  0.0781 -1.0743 -0.3192
20031TIP3   OH281583   2.706   6.337   2.135 -0.1349  0.1701 -0.2957
20031TIP3    H181584   2.623   6.384   2.147  0.2372  0.9515 -0.7439
20031TIP3    H281585   2.771   6.390   2.180  0.2353 -0.1018 -0.5053
20032TIP3   OH281586   2.091   5.658  13.148 -0.3667 -0.1562  0.2250
20032TIP3    H181587   2.068   5.623  13.062  0.6592 -1.5186  0.4625
20032TIP3    H281588   2.098   5.580  13.204  0.2486  0.5953  1.2262
20033TIP3   OH281589   0.128   1.960  13.924  0.8133  0.0683  0.1861
20033TIP3    H181590   0.155   1.917  14.006 -1.2360  0.0025  0.8930
20033TIP3    H281591   0.043   1.919  13.903  1.2533  0.1536 -1.9491
20034TIP3   OH281592   3.618   3.186  16.909 -0.3345  0.0903 -0.1352
20034TIP3    H181593   3.620   3.122  16.981 -0.5117  0.8069  0.5276
20034TIP3    H281594   3.548   3.155  16.852 -0.5290 -0.2161  0.2615
20035TIP3   OH281595   3.216   0.919  11.404  0.4816 -0.2414 -0.4292
20035TIP3    H181596   3.146   0.976  11.435  0.6774 -0.3151  0.1635
20035TIP3    H281597   3.175   0.832  11.398  0.8093 -0.5162  1.0425
20036TIP3   OH281598   5.574   2.958   0.211 -0.2542  0.5570  0.2385
20036TIP3    H181599   5.512   3.009   0.263 -0.1692  0.3295  0.5630
20036TIP3    H281600   5.651   2.948   0.267  0.1413  0.9688 -0.2211
20037TIP3   OH281601   0.411   4.260   4.845 -0.1876  0.0468  0.1253
20037TIP3    H181602   0.507   4.262   4.845 -0.1928  0.9873 -0.5547
20037TIP3    H281603   0.385   4.320   4.914 -0.2859  0.6617 -0.4407
20038TIP3   OH281604   5.332   6.689   1.941  0.1950  0.1395  0.5457
20038TIP3    H181605   5.275   6.763   1.921  1.0560  0.3043 -1.5026
20038TIP3    H281606   5.414   6.709   1.896  0.5614 -1.9017  0.2251
20039TIP3   OH281607   2.683   1.140  16.571 -0.3281 -0.4437  0.2885
20039TIP3    H181608   2.745   1.072  16.545 -1.1044 -1.1397  0.2115
20039TIP3    H281609   2.650   1.175  16.488  0.3081  0.2593  0.3250
20040TIP3   OH281610   5.541   5.624   1.345 -0.2361  0.2108 -0.1711
20040TIP3    H181611   5.584   5.608   1.261  0.4566 -2.5743  0.6091
20040TIP3    H281612   5.612   5.649   1.404 -0.2700 -0.5937  0.2187
20041TIP3   OH281613   5.682   4.811   3.104  0.1365 -0.1897  0.7835
20041TIP3    H181614   5.630   4.753   3.160  0.2418  0.7645  1.9262
20041TIP3    H281615   5.656   4.900   3.131 -0.3336  0.3119 -1.2041
20042TIP3   OH281616   0.530   0.956  12.131 -0.0299  0.2096  0.0986
20042TIP3    H181617   0.552   0.984  12.043 -1.7224 -0.2496 -0.5197
20042TIP3    H281618   0.478   1.028  12.167 -1.0425 -0.4315 -0.0423
20043TIP3   OH281619   0.514   0.960   3.030 -0.3031  0.0179  0.2382
20043TIP3    H181620   0.473   0.969   3.117  0.0716  1.9539  0.2743
20043TIP3    H281621   0.521   1.050   2.998  1.8785 -0.4273 -0.7310
20044TIP3   OH281622   5.684   0.152  13.751 -0.3298 -0.0781 -0.1420
20044TIP3    H181623   5.622   0.080  13.764 -0.8075  0.1945 -0.8445
20044TIP3    H281624   5.630   0.231  13.755 -0.1030  0.1442 -1.1916
20045TIP3   OH281625   2.003   0.158  16.366  0.5497 -0.0436 -0.0848
20045TIP3    H181626   1.990   0.155  16.271 -0.8281 -1.4343  0.1049
20045TIP3    H281627   1.996   0.066  16.394  1.6123  0.2647  1.2915
20046TIP3   OH281628   0.708   3.115   5.287  0.1295  0.2313 -0.5339
20046TIP3    H181629   0.757   3.034   5.304  0.5614  0.5655 -0.1640
20046TIP3    H281630   0.675   3.141   5.373 -0.1012  0.3935 -0.6704
20047TIP3   OH281631   5.782   1.909   4.730 -0.5671 -0.0032 -0.1464
20047TIP3    H181632   5.837   1.887   4.655 -0.4922  0.0993 -0.1224
20047TIP3    H281633   5.824   1.986   4.768 -0.3269 -0.3502  0.2945
20048TIP3   OH281634   6.162   6.505   4.083 -0.3295 -0.2108  0.6022
20048TIP3    H181635   6.241   6.526   4.134 -1.1625 -0.5282  2.0919
20048TIP3    H281636   6.185   6.424   4.037  1.0634  1.0318 -1.0024
20049TIP3   OH281637   2.597   0.301   5.333 -0.2696  0.1383  0.0552
20049TIP3    H181638   2.661   0.328   5.399 -1.1707 -1.6280  1.7685
20049TIP3    H281639   2.539   0.376   5.322 -0.2636  0.3746  1.5353
20050TIP3   OH281640   3.985   4.738  12.226 -0.1839 -0.0096 -0.2661
20050TIP3    H181641   3.961   4.735  12.319  0.4590 -2.0293 -0.1261
20050TIP3    H281642   4.079   4.755  12.226  0.0087 -1.0556 -0.5027
20051TIP3   OH281643   5.620   2.908  12.145 -0.9453 -0.6878 -0.2845
20051TIP3    H181644   5.556   2.976  12.166 -0.2995 -0.5306  1.2737
20051TIP3    H281645   5.665   2.940  12.067  1.6681  2.4380  2.2019
20052TIP3   OH281646   6.010   1.023  13.887  0.2431 -0.1015 -1.2326
20052TIP3    H181647   6.031   1.077  13.811 -1.4827  2.8601  0.1957
20052TIP3    H281648   6.055   1.066  13.960 -2.1232  0.2170  0.1426
20053TIP3   OH281649   0.410   0.061   1.066 -0.6891  0.1476  0.4486
20053TIP3    H181650   0.373  -0.026   1.083 -2.7342  1.0513  0.9699
20053TIP3    H281651   0.334   0.119   1.063  0.6561  2.0146  0.6450
20054TIP3   OH281652   3.567   6.274   1.475  0.4868  0.1332  0.5595
20054TIP3    H181653   3.567   6.358   1.520  2.2653  0.0646  0.7603
20054TIP3    H281654   3.530   6.212   1.538  0.1633  0.5748  0.8014
20055TIP3   OH281655   2.553   0.882  13.060 -0.3359 -0.3987 -0.3365
20055TIP3    H181656   2.570   0.944  12.989  1.8659 -2.3784 -1.6583
20055TIP3    H281657   2.623   0.900  13.124 -0.8415 -0.2521  0.1781
20056TIP3   OH281658   6.244   5.418  13.176 -0.2783  0.3497 -0.3609
20056TIP3    H181659   6.212   5.385  13.092  0.2318 -0.1691 -0.3577
20056TIP3    H281660   6.180   5.386  13.240  1.4377 -2.7733 -0.0254
20057TIP3   OH281661   1.494   4.462   4.075 -0.1932  0.2555 -0.4139
20057TIP3    H181662   1.540   4.384   4.106 -1.5111  0.2000  1.5578
20057TIP3    H281663   1.449   4.434   3.996 -0.1242 -0.7982 -0.0899
20058TIP3   OH281664   4.898   6.373  17.235  0.4063  0.0380  0.2804
20058TIP3    H181665   4.846   6.361  17.315  0.1796  0.6355  0.2323
20058TIP3    H281666   4.854   6.444  17.189 -0.2454 -1.1632 -1.0281
20059TIP3   OH281667   2.014   2.982   2.437  0.1291  0.4261  0.0668
20059TIP3    H181668   1.961   2.920   2.486 -0.1162  0.3324 -0.3131
20059TIP3    H281669   2.011   2.951   2.347 -0.1158  1.0723 -0.1549
20060TIP3   OH281670   6.070   5.088  14.082 -0.6113  0.1007 -0.1050
20060TIP3    H181671   6.024   5.004  14.086  0.3311 -0.3812  1.5359
20060TIP3    H281672   6.041   5.135  14.160  2.0623 -0.4760  1.3477
20061TIP3   OH281673   4.775   1.713  12.355  0.3542  0.2653  0.4681
20061TIP3    H181674   4.788   1.804  12.330 -1.4329  0.2524 -0.7826
20061TIP3    H281675   4.806   1.663  12.279 -2.3550  0.0856 -0.6488
20062TIP3   OH281676   4.098   0.879   5.490 -0.4686 -0.3342  0.1893
20062TIP3    H181677   4.159   0.805   5.484 -0.1902 -0.0292 -0.7361
20062TIP3    H281678   4.134   0.934   5.560  0.5338  0.0312 -0.5929
20063TIP3   OH281679   3.426   2.094   5.988 -0.3554 -0.1285  0.3757
20063TIP3    H181680   3.338   2.085   6.024 -0.3447  0.4799  0.5642
20063TIP3    H281681   3.483   2.046   6.049 -0.6704 -1.4431 -0.3094
20064TIP3   OH281682   5.502   6.507   4.388  0.5484  0.1217 -0.3121
20064TIP3    H181683   5.571   6.523   4.452  0.3748  0.3023 -0.1670
20064TIP3    H281684   5.428   6.477   4.440  0.4117  0.2522 -0.4291
20065TIP3   OH281685   0.888   3.267  12.815 -0.4556 -0.3406 -0.5890
20065TIP3    H181686   0.943   3.194  12.844 -0.4420  0.1456  0.6836
20065TIP3    H281687   0.799   3.243  12.843 -0.8241 -0.8470 -2.1033
20066TIP3   OH281688   1.181   3.897   0.831  0.5731  0.0639 -0.0144
20066TIP3    H181689   1.172   3.992   0.825  0.9956  0.0801 -0.4440
20066TIP3    H281690   1.237   3.874   0.757 -0.8603 -0.7154 -0.9077
20067TIP3   OH281691   0.147   4.805   4.308 -0.0216 -0.4662 -0.3469
20067TIP3    H181692   0.170   4.721   4.349 -1.7694 -0.3749  0.9409
20067TIP3    H281693   0.136   4.784   4.216 -0.3268 -1.6441 -0.0605
20068TIP3   OH281694   3.092   2.382  15.337 -0.0699  0.0689 -0.3045
20068TIP3    H181695   3.147   2.304  15.344  0.4449  0.1771 -2.3770
20068TIP3    H281696   3.048   2.372  15.253 -1.7779  0.9233  0.4412
20069TIP3   OH281697   4.606   3.701  13.694 -0.0003  0.2560  0.9157
20069TIP3    H181698   4.659   3.731  13.620 -0.8708 -2.5449 -0.9895
20069TIP3    H281699   4.647   3.741  13.771  2.8548  0.8053 -0.7670
20070TIP3   OH281700   3.533   1.880   0.499 -0.2163 -0.7504  0.9238
20070TIP3    H181701   3.564   1.969   0.483 -0.1593 -0.6268  1.6902
20070TIP3    H281702   3.502   1.850   0.414  1.4519 -0.6541  0.2366
20071TIP3   OH281703   5.996   1.738   1.584 -0.6755  0.1208 -0.5506
20071TIP3    H181704   6.018   1.699   1.668  0.6337 -0.5260 -1.1607
20071TIP3    H281705   6.065   1.802   1.568 -2.4796  2.4136  0.1712
20072TIP3   OH281706   5.410   2.942   2.225 -0.4275  0.2844  0.0819
20072TIP3    H181707   5.372   3.004   2.287  0.8509 -1.2741  2.5916
20072TIP3    H281708   5.500   2.931   2.254  0.1041 -0.8863 -1.8210
20073TIP3   OH281709   5.967   3.410   2.248  0.0447 -0.2631 -0.0621
20073TIP3    H181710   5.961   3.373   2.160  2.5399 -0.1415 -0.3545
20073TIP3    H281711   5.876   3.424   2.274 -0.8426 -2.2620 -1.7608
20074TIP3   OH281712   1.168   1.959  13.512 -0.6290 -0.3720 -0.0194
20074TIP3    H181713   1.075   1.979  13.500 -0.6598  1.2698  2.2887
20074TIP3    H281714   1.214   2.025  13.459 -0.8099  0.8620  1.2952
20075TIP3   OH281715   2.246   5.073   4.431  0.3253 -0.0887  0.1032
20075TIP3    H181716   2.285   5.125   4.501 -0.0689  1.5227 -0.8375
20075TIP3    H281717   2.313   5.009   4.408  1.0936  0.4418  0.8172
20076TIP3   OH281718   6.561   3.657   3.178  0.0421 -0.4730 -0.1638
20076TIP3    H181719   6.516   3.642   3.095  0.5633 -0.3012 -0.4829
20076TIP3    H281720   6.526   3.591   3.237  1.7439 -2.5420 -1.3120
20077TIP3   OH281721   6.642   6.571  13.780  0.7427 -0.0940  0.4876
20077TIP3    H181722   6.728   6.566  13.739  0.5543 -0.9462  0.1651
20077TIP3    H281723   6.581   6.542  13.711  0.1363  1.0399  0.5314
20078TIP3   OH281724   1.901   3.203   1.946 -0.1375 -0.1684  0.0468
20078TIP3    H181725   1.994   3.182   1.948 -0.4137 -1.4460  0.2978
20078TIP3    H281726   1.857   3.122   1.971 -1.4660 -0.7125 -3.4052
20079TIP3   OH281727   4.383   5.087  15.390 -0.3659 -0.2133  0.5457
20079TIP3    H181728   4.364   5.050  15.304  3.0897  1.1629 -1.0345
20079TIP3    H281729   4.325   5.040  15.450 -5.7757  1.3271 -2.7855
20080TIP3   OH281730   4.264   6.295   4.815  0.3212 -0.3551  1.0744
20080TIP3    H181731   4.268   6.362   4.884  2.6700 -0.3117  0.9682
20080TIP3    H281732   4.200   6.329   4.752  0.4840  1.1504  1.6789
20081TIP3   OH281733   1.334   1.152   4.357 -0.2539  0.5139  0.1148
20081TIP3    H181734   1.360   1.234   4.316 -3.9538  1.2344 -1.1469
20081TIP3    H281735   1.318   1.092   4.284  0.3614 -0.6858  0.9268
20082TIP3   OH281736   6.377   6.666  12.169 -0.4334 -0.1703 -0.5106
20082TIP3    H181737   6.373   6.643  12.076  0.1864 -0.2447 -0.5217
20082TIP3    H281738   6.309   6.732  12.180 -0.0727  0.3199 -1.1640
20083TIP3   OH281739   2.434   5.638  11.618 -0.2566 -0.2658  0.1404
20083TIP3    H181740   2.435   5.544  11.635  1.2618 -0.2977  0.0072
20083TIP3    H281741   2.506   5.673  11.669 -1.7672  1.0983  1.4426
20084TIP3   OH281742   0.051   4.599   2.597 -0.0630  0.0572 -0.0842
20084TIP3    H181743   0.069   4.578   2.505  2.2515 -1.0388  0.5487
20084TIP3    H281744  -0.037   4.565   2.612 -0.5242  0.3206 -1.8951
20085TIP3   OH281745   5.710   2.235   2.507  0.5065 -0.1579  0.3188
20085TIP3    H181746   5.632   2.218   2.454  0.8498  1.3426 -0.7019
20085TIP3    H281747   5.740   2.321   2.480  3.3482 -1.2510 -0.3241
20086TIP3   OH281748   5.208   3.292  11.573  0.5052  0.2340 -0.0533
20086TIP3    H181749   5.150   3.344  11.518 -2.1916 -1.1969  1.2536
20086TIP3    H281750   5.258   3.238  11.511 -1.3398 -0.2282 -1.2054
20087TIP3   OH281751   6.195   1.075  14.110 -0.2890 -0.0993 -0.0148
20087TIP3    H181752   6.141   1.001  14.136  0.4270 -0.8361 -0.5931
20087TIP3    H281753   6.279   1.060  14.152  0.2373 -0.2523 -1.0920
20088TIP3   OH281754   6.172   6.371   2.494  0.2375  1.1535 -0.6733
20088TIP3    H181755   6.078   6.361   2.479 -0.0153  2.0227  0.1935
20088TIP3    H281756   6.213   6.315   2.428 -0.9056 -0.5400 -0.0004
20089TIP3   OH281757   1.339   4.195  16.353  0.5347  1.1136 -0.8332
20089TIP3    H181758   1.284   4.205  16.275  2.1339  0.4228 -2.0945
20089TIP3    H281759   1.415   4.250  16.336  1.3808  0.1607 -0.2169
20090TIP3   OH281760   5.532   2.832   5.851 -0.6935  0.1400  0.4312
20090TIP3    H181761   5.620   2.839   5.813 -0.1988 -2.8865  0.7628
20090TIP3    H281762   5.493   2.918   5.838  1.4388  0.8686 -1.9232
20091TIP3   OH281763   4.812   2.922   4.253 -0.1789  0.3476 -0.5141
20091TIP3    H181764   4.891   2.976   4.258  0.1934 -0.2119 -0.3270
20091TIP3    H281765   4.834   2.842   4.302 -0.6469 -0.0654 -0.9691
20092TIP3   OH281766   3.368   5.213   3.306 -0.5188  0.4079  0.4849
20092TIP3    H181767   3.386   5.287   3.249  1.3004 -0.7568 -0.5824
20092TIP3    H281768   3.440   5.214   3.370  0.0222 -0.8904 -0.0732
20093TIP3   OH281769   4.565   0.741  16.745  0.3279  0.0327 -0.2114
20093TIP3    H181770   4.550   0.796  16.822 -2.5294 -0.5386 -0.2736
20093TIP3    H281771   4.639   0.686  16.770 -0.6840 -0.3541  2.3030
20094TIP3   OH281772   5.142   4.207  17.080  0.4596 -0.2238  0.9976
20094TIP3    H181773   5.162   4.148  17.152 -0.1731 -1.3440  0.2723
20094TIP3    H281774   5.058   4.247  17.103  0.6734  0.0676  1.2790
20095TIP3   OH281775   3.796   4.058   3.612  0.1881  0.5450 -0.7202
20095TIP3    H181776   3.727   4.121   3.632 -0.2803  0.1177 -0.9447
20095TIP3    H281777   3.764   3.975   3.648  0.9251  0.4873 -0.1774
20096TIP3   OH281778   1.493   3.835  11.251 -0.0689  0.2689  0.2711
20096TIP3    H181779   1.420   3.843  11.190 -0.4430 -1.0804  0.5300
20096TIP3    H281780   1.458   3.866  11.334 -0.5813 -1.0650  0.5651
20097TIP3   OH281781   5.844   3.040   2.634 -0.6837  0.4182  0.0179
20097TIP3    H181782   5.769   3.063   2.689 -0.3021 -0.9755  1.1751
20097TIP3    H281783   5.847   3.109   2.568 -1.2268  2.1084  1.6592
20098TIP3   OH281784   3.830   3.992   2.920 -0.1245 -0.2222 -0.6565
20098TIP3    H181785   3.819   3.898   2.924 -0.1628 -0.2017 -0.2859
20098TIP3    H281786   3.796   4.017   2.834 -0.2389 -0.5256 -0.6983
20099TIP3   OH281787   4.106   4.092   0.604 -0.1971 -0.1398  0.2209
20099TIP3    H181788   4.150   4.139   0.534  0.7478 -0.4078  0.6107
20099TIP3    H281789   4.067   4.015   0.561  0.9056 -0.6370  0.0695
20100TIP3   OH281790   3.135   3.360   3.635 -0.0927  0.6670 -0.2397
20100TIP3    H181791   3.209   3.320   3.590  0.0222  0.8116 -0.1807
20100TIP3    H281792   3.164   3.450   3.653 -0.6958  1.0889 -1.2401
20101TIP3   OH281793   5.655   0.396  14.270 -0.5334 -0.0668 -0.4536
20101TIP3    H181794   5.578   0.451  14.286 -1.0057 -1.1478  1.2949
20101TIP3    H281795   5.717   0.455  14.227 -1.8364  1.2012 -0.7050
20102TIP3   OH281796   1.106   3.691   0.653  0.2589 -0.0456 -0.1290
20102TIP3    H181797   1.069   3.727   0.572 -0.7866 -0.0846  0.3099
20102TIP3    H281798   1.111   3.766   0.712  0.3880 -0.1478 -0.0096
20103TIP3   OH281799   6.797   0.644  11.520  0.2092 -0.3746  0.3350
20103TIP3    H181800   6.816   0.713  11.583 -2.4212  0.3452  0.4442
20103TIP3    H281801   6.727   0.593  11.559  0.4108 -1.6178 -0.8302
20104TIP3   OH281802   1.626   1.658   1.294 -0.7566  0.5836  0.1941
20104TIP3    H181803   1.560   1.594   1.265 -0.3577  0.1070  0.3313
20104TIP3    H281804   1.694   1.606   1.335 -1.2530  1.2335  1.9447
20105TIP3   OH281805   5.681   5.564  13.339 -0.1769 -0.5633 -0.3121
20105TIP3    H181806   5.749   5.626  13.315 -0.3677  0.4489  1.6374
20105TIP3    H281807   5.620   5.614  13.394 -1.2382 -2.0433 -0.0738
20106TIP3   OH281808   4.616   5.135  13.486  0.3622  0.5014  0.2017
20106TIP3    H181809   4.595   5.044  13.463  2.0570 -0.0482  0.6646
20106TIP3    H281810   4.537   5.167  13.530 -0.0311 -0.9771  0.6328
20107TIP3   OH281811   0.233   0.927   0.325 -0.5089  1.0334  0.5492
20107TIP3    H181812   0.308   0.907   0.269 -0.9964  1.4473 -0.2752
20107TIP3    H281813   0.271   0.945   0.411  0.1669 -0.7748  0.6854
20108TIP3   OH281814   1.357   1.134  11.618  0.0929 -0.1397  0.1991
20108TIP3    H181815   1.281   1.161  11.566 -1.8247 -0.8326  2.4727
20108TIP3    H281816   1.322   1.071  11.680  2.0566  1.2295  2.8926
20109TIP3   OH281817   1.489   6.600   4.973 -0.2472 -0.6161  0.9869
20109TIP3    H181818   1.475   6.509   4.997 -0.0765 -0.6475  0.9708
20109TIP3    H281819   1.515   6.643   5.054  1.5792 -0.9842  0.6294
20110TIP3   OH281820   5.473   0.103   4.466 -0.2918 -0.1356  0.3832
20110TIP3    H181821   5.448   0.061   4.384 -1.6107 -0.9928  1.1923
20110TIP3    H281822   5.456   0.196   4.451 -0.2235 -0.2437 -0.4125
20111TIP3   OH281823   0.507   3.971   1.864  0.5008  0.4276  0.3873
20111TIP3    H181824   0.574   4.019   1.817 -0.0684  1.9257  1.0376
20111TIP3    H281825   0.531   3.980   1.956 -0.1199  0.2601  0.5709
20112TIP3   OH281826   6.505   4.455  11.663  0.5872  0.1662 -0.3736
20112TIP3    H181827   6.456   4.507  11.727  2.1297 -0.7424  1.6370
20112TIP3    H281828   6.519   4.515  11.590 -1.4796  1.1561 -0.0429
20113TIP3   OH281829   2.113   3.575   6.117  0.3085  0.3824  0.5674
20113TIP3    H181830   2.045   3.640   6.134  1.7666  1.7016  1.6277
20113TIP3    H281831   2.173   3.619   6.057 -0.1545 -1.0652 -1.0193
20114TIP3   OH281832   3.965   0.271  16.181 -0.2094  0.1476  0.3834
20114TIP3    H181833   3.871   0.252  16.168 -0.9554  3.2240  0.6264
20114TIP3    H281834   3.977   0.266  16.275  0.5172 -2.5383  0.2318
20115TIP3   OH281835   0.250   5.602  13.831 -0.1039 -0.3177 -0.4370
20115TIP3    H181836   0.156   5.582  13.833  0.1118 -1.3428  0.0946
20115TIP3    H281837   0.261   5.673  13.894 -0.6917  0.6335 -1.3759
20116TIP3   OH281838   3.288   5.490   1.016  0.1610  0.2963 -0.1164
20116TIP3    H181839   3.197   5.467   1.036  0.3794 -1.8458 -1.2695
20116TIP3    H281840   3.332   5.485   1.101 -0.4333 -0.6724  0.1628
20117TIP3   OH281841   3.580   1.689   3.482 -0.0511 -0.8184 -0.2930
20117TIP3    H181842   3.563   1.680   3.388 -2.2014  0.0703 -0.0490
20117TIP3    H281843   3.614   1.778   3.491 -1.1863 -0.3854 -0.1067
20118TIP3   OH281844   5.714   6.166   3.798  0.2400  0.2435  0.0085
20118TIP3    H181845   5.691   6.135   3.710 -1.1599 -0.3155  0.5383
20118TIP3    H281846   5.675   6.102   3.856  2.4026 -0.2312  1.0559
20119TIP3   OH281847   3.922   4.110  11.214  0.2853  0.5129  0.4932
20119TIP3    H181848   3.927   4.087  11.121 -0.4422  0.6985  0.4006
20119TIP3    H281849   3.914   4.205  11.215  4.1724  1.0057  0.9069
20120TIP3   OH281850   5.054   4.235  14.655 -0.1195 -0.5847  0.5382
20120TIP3    H181851   4.969   4.274  14.673 -0.0411 -0.1043 -0.0937
20120TIP3    H281852   5.104   4.250  14.735 -0.0464  0.7609  0.2729
20121TIP3   OH281853   5.145   5.031  12.992 -0.0570  0.5958 -0.8033
20121TIP3    H181854   5.179   4.992  13.072 -0.1909 -0.5772 -1.2937
20121TIP3    H281855   5.083   5.097  13.021  0.0335  0.3135  0.0543
20122TIP3   OH281856   2.724   4.768  11.636 -0.4380 -0.2403  0.4967
20122TIP3    H181857   2.641   4.741  11.678 -0.4112 -0.1745  0.5924
20122TIP3    H281858   2.712   4.745  11.544 -0.0829 -1.3941  0.7153
20123TIP3   OH281859   6.676   2.460  14.572 -0.0675  0.0409 -0.2388
20123TIP3    H181860   6.635   2.464  14.658  1.7849 -0.1673  0.7079
20123TIP3    H281861   6.656   2.373  14.539  0.7310 -0.5469  0.7957
20124TIP3   OH281862   1.767   3.379  12.803  0.9711 -0.1643 -0.0222
20124TIP3    H181863   1.677   3.347  12.807  1.2385 -1.3427 -2.2750
20124TIP3    H281864   1.819   3.309  12.841  1.1995 -0.8489 -1.5436
20125TIP3   OH281865   5.848   1.186  17.019 -0.0506 -0.2864 -0.0757
20125TIP3    H181866   5.906   1.230  16.957 -0.1943 -0.9002 -0.6560
20125TIP3    H281867   5.902   1.120  17.061 -0.7872 -2.3471 -2.1697
20126TIP3   OH281868   5.931   4.359   4.722 -0.4690 -0.1877  0.3146
20126TIP3    H181869   5.918   4.320   4.808  2.8815 -0.2588  0.9233
20126TIP3    H281870   5.850   4.407   4.705 -1.1503  0.0607  3.6205
20127TIP3   OH281871   5.678   1.374   4.739  0.2033 -0.2644  0.0806
20127TIP3    H181872   5.665   1.279   4.747 -0.7448 -0.1656 -0.0944
20127TIP3    H281873   5.608   1.412   4.791  0.0369  0.3398 -0.5613
20128TIP3   OH281874   4.369   2.575  11.833 -0.0551 -0.5039 -0.5123
20128TIP3    H181875   4.346   2.557  11.924  1.9223 -2.3491 -0.2951
20128TIP3    H281876   4.436   2.643  11.838 -2.4460  2.0691 -0.9106
20129TIP3   OH281877   4.507   0.213  15.603  0.2557  0.5809 -0.3517
20129TIP3    H181878   4.515   0.140  15.542 -3.4462 -0.7536  0.4706
20129TIP3    H281879   4.412   0.230  15.608  0.7786  3.9233  1.2959
20130TIP3   OH281880   2.389   4.967  11.387  0.0562  0.0225  0.3535
20130TIP3    H181881   2.464   5.020  11.361 -0.7016  0.9324 -0.0486
20130TIP3    H281882   2.383   4.978  11.482 -0.0635  0.6361  0.2808
20131TIP3   OH281883   4.568   5.469  12.141  0.0069 -0.0967  0.2182
20131TIP3    H181884   4.659   5.495  12.151 -0.0616 -0.1774  1.0811
20131TIP3    H281885   4.565   5.426  12.055  0.2653  2.0625 -0.9466
20132TIP3   OH281886   5.801   3.560  11.105  0.2404 -0.1631  0.7461
20132TIP3    H181887   5.857   3.583  11.180 -0.3912  0.7437  0.9629
20132TIP3    H281888   5.808   3.636  11.047 -0.3855 -0.2584  0.5455
20133TIP3   OH281889   4.510   0.886  13.575  0.2363 -0.1724 -0.3101
20133TIP3    H181890   4.515   0.955  13.509  0.8638  1.0598  0.9916
20133TIP3    H281891   4.438   0.913  13.633  1.5536  0.3056  1.1664
20134TIP3   OH281892   4.939   3.861  11.083 -0.4885  0.1525 -0.7616
20134TIP3    H181893   4.901   3.842  11.169  1.9399  0.8347  0.5528
20134TIP3    H281894   4.869   3.842  11.021 -1.6790 -2.3667  1.1852
20135TIP3   OH281895   6.563   6.527   4.434  0.2549  1.2651 -0.3853
20135TIP3    H181896   6.615   6.608   4.440 -0.4848  1.6679  0.8981
20135TIP3    H281897   6.533   6.511   4.523 -0.0115 -0.1834 -0.7131
20136TIP3   OH281898   1.734   2.004  11.965 -0.6794  0.2912  0.4279
20136TIP3    H181899   1.766   1.919  11.996  0.2461  1.3102  2.4812
20136TIP3    H281900   1.681   2.037  12.037 -0.9003  1.5207 -0.2737
20137TIP3   OH281901   6.172   6.243   1.751 -0.4074  0.3775 -0.3732
20137TIP3    H181902   6.119   6.170   1.783 -1.0934  1.3959  0.8564
20137TIP3    H281903   6.110   6.299   1.705 -0.2471  1.1354  0.3185
20138TIP3   OH281904   3.818   0.478  13.294 -1.0484 -0.1990 -0.8833
20138TIP3    H181905   3.912   0.468  13.308 -1.0703 -1.5070 -1.4552
20138TIP3    H281906   3.802   0.434  13.210 -2.5156 -2.2550  0.3736
20139TIP3   OH281907   2.767   2.570  11.694  0.1126 -0.4410  0.9572
20139TIP3    H181908   2.811   2.654  11.709  1.0824 -1.1104  2.0036
20139TIP3    H281909   2.819   2.528  11.626 -2.2674  1.1106 -2.0898
20140TIP3   OH281910   0.345   6.655   0.373 -0.5545 -0.0447  0.2234
20140TIP3    H181911   0.297   6.722   0.324 -0.2421  0.0762  0.0790
20140TIP3    H281912   0.406   6.703   0.427 -0.3017 -0.2111  0.0918
20141TIP3   OH281913   3.485   5.833  13.811 -0.0251  0.1604 -0.0932
20141TIP3    H181914   3.496   5.784  13.892 -3.4418 -0.0843  0.3836
20141TIP3    H281915   3.497   5.925  13.837  0.7221 -0.0314  0.2648
20142TIP3   OH281916   4.601   5.583  10.753  0.1710  0.6931  0.3498
20142TIP3    H181917   4.626   5.660  10.804  2.4808  1.3028 -1.5006
20142TIP3    H281918   4.597   5.512  10.817  2.8160  1.4424  1.4858
20143TIP3   OH281919   5.759   4.376   3.331 -0.0383 -0.5264  0.5318
20143TIP3    H181920   5.796   4.444   3.387  2.9691 -1.1052 -0.5556
20143TIP3    H281921   5.729   4.308   3.392 -1.7491  1.0744  1.5594
20144TIP3   OH281922   4.471   3.502   6.270  0.7772  0.2648 -0.0572
20144TIP3    H181923   4.498   3.480   6.359  1.5976  0.9609 -0.1300
20144TIP3    H281924   4.453   3.596   6.273  1.3443  0.4010 -0.7525
20145TIP3   OH281925   3.548   3.863  14.242  0.3776 -0.9303  0.3944
20145TIP3    H181926   3.545   3.811  14.162 -0.4627 -1.2616  0.6317
20145TIP3    H281927   3.629   3.836  14.285  0.1716 -1.7293  0.3027
20146TIP3   OH281928   6.180   0.677   3.852  0.3079 -0.0164 -0.7424
20146TIP3    H181929   6.192   0.755   3.907 -0.4953 -0.0445 -0.5160
20146TIP3    H281930   6.168   0.712   3.764 -2.1015  0.2810 -0.3622
20147TIP3   OH281931   2.752   3.355  14.993 -0.1934  0.4317 -0.5666
20147TIP3    H181932   2.662   3.324  14.990 -0.9402  2.3068  0.4079
20147TIP3    H281933   2.746   3.449  14.978  1.5653  0.6640 -0.1394
20148TIP3   OH281934   0.214   0.784  15.992 -0.1696  0.1570  0.0036
20148TIP3    H181935   0.283   0.718  16.001 -0.4926 -0.0454  1.1129
20148TIP3    H281936   0.223   0.839  16.070 -1.7700 -0.3617  0.5755
20149TIP3   OH281937   1.646   4.995  12.228 -0.3592  0.1631 -0.3670
20149TIP3    H181938   1.657   5.085  12.197 -2.5659  0.3339 -0.8090
20149TIP3    H281939   1.637   4.942  12.149 -1.3005 -0.0870 -0.1146
20150TIP3   OH281940   5.058   2.682   5.393  0.1777 -0.1819 -0.2483
20150TIP3    H181941   5.083   2.746   5.459 -3.4313 -0.9864  2.2088
20150TIP3    H281942   5.141   2.644   5.363  2.1079  1.6509  2.3475
20151TIP3   OH281943   1.800   2.702   2.795 -0.2590  0.3109  0.4835
20151TIP3    H181944   1.884   2.678   2.835 -1.0759 -0.8532  1.6258
20151TIP3    H281945   1.790   2.795   2.814  0.7342  0.4462  0.4041
20152TIP3   OH281946   5.376   3.549  10.550  0.6412 -0.5406 -0.6465
20152TIP3    H181947   5.467   3.537  10.523  1.4303 -2.2052  2.3847
20152TIP3    H281948   5.336   3.463  10.536 -0.2170 -0.0958 -0.9805
20153TIP3   OH281949   5.479   0.254   4.951 -0.2095 -0.4154 -0.0175
20153TIP3    H181950   5.492   0.184   5.016 -1.7848 -1.2323 -0.5334
20153TIP3    H281951   5.439   0.325   5.001 -1.2772 -0.9854 -0.0277
20154TIP3   OH281952   3.808   6.740  11.230 -0.0341 -0.3396 -0.0105
20154TIP3    H181953   3.777   6.717  11.142  0.4056  1.5213 -0.6952
20154TIP3    H281954   3.895   6.702  11.235  0.9971  1.6204 -1.4167
20155TIP3   OH281955   2.075   6.544   4.936  0.0034  0.2254 -0.6492
20155TIP3    H181956   2.164   6.522   4.964 -0.0547  0.2421 -0.4439
20155TIP3    H281957   2.076   6.638   4.923  0.2345  0.1190 -1.4624
20156TIP3   OH281958   6.762   6.242  13.164 -0.4109  0.1295 -0.2913
20156TIP3    H181959   6.793   6.326  13.131 -1.6060  1.2782  1.3460
20156TIP3    H281960   6.825   6.218  13.232 -0.8503  0.4189  0.2206
20157TIP3   OH281961   1.528   2.695  16.695  0.1374 -0.2638  0.3426
20157TIP3    H181962   1.437   2.666  16.689  0.4380 -1.5921  1.6499
20157TIP3    H281963   1.548   2.730  16.608 -1.7776  0.5856  0.1934
20158TIP3   OH281964   0.754   4.161  12.344  0.3752 -0.3280 -0.2506
20158TIP3    H181965   0.738   4.071  12.316 -0.1587  0.4244 -2.5540
20158TIP3    H281966   0.716   4.215  12.275 -2.1161  1.7742  2.4893
20159TIP3   OH281967   5.804   3.421  17.016 -0.7690  0.3339  0.1815
20159TIP3    H181968   5.780   3.398  17.105  0.6802 -1.1754  0.2270
20159TIP3    H281969   5.894   3.452  17.023 -0.5403 -0.0811 -0.7875
20160TIP3   OH281970   5.749   1.720   0.756 -0.0877 -0.1094 -0.1410
20160TIP3    H181971   5.744   1.757   0.844  0.2348  0.5135 -0.3780
20160TIP3    H281972   5.832   1.753   0.721  0.7751 -1.9307  0.0280
20161TIP3   OH281973   5.099   2.600   2.490  0.4734 -0.7004 -0.2856
20161TIP3    H181974   5.158   2.633   2.422  0.4153  3.7671  1.4791
20161TIP3    H281975   5.011   2.613   2.454  0.3782  3.0033  0.8620
20162TIP3   OH281976   0.892   3.007  13.988  0.1217  0.6354 -0.0139
20162TIP3    H181977   0.926   3.073  13.928  2.0944 -0.1741  0.1119
20162TIP3    H281978   0.924   3.034  14.074  1.7208 -0.8702 -0.0775
20163TIP3   OH281979   2.214   1.660   4.891  0.0463  0.0031  0.2427
20163TIP3    H181980   2.156   1.731   4.863  0.2895 -0.7321 -2.4342
20163TIP3    H281981   2.158   1.603   4.944 -1.1029  0.4301 -0.4682
20164TIP3   OH281982   0.732   3.337  16.624 -0.3112  0.5957  0.2789
20164TIP3    H181983   0.684   3.259  16.598  0.0138  1.2485 -2.7004
20164TIP3    H281984   0.672   3.410  16.605  0.5074  1.2089 -0.0398
20165TIP3   OH281985   5.656   5.822   1.742  0.2275 -0.4814 -0.2551
20165TIP3    H181986   5.728   5.782   1.792  1.5122  0.9563 -0.8437
20165TIP3    H281987   5.668   5.789   1.653 -0.0593 -0.5134 -0.2803
20166TIP3   OH281988   5.730   6.216  10.993 -0.5413  0.5484  0.2276
20166TIP3    H181989   5.750   6.306  11.019 -0.7633  1.9543 -3.7603
20166TIP3    H281990   5.673   6.226  10.916  1.2625 -2.8952 -1.7579
20167TIP3   OH281991   6.619   3.335  16.329  0.0295  0.0914  0.7818
20167TIP3    H181992   6.563   3.355  16.255  1.1053  0.9526  0.1692
20167TIP3    H281993   6.637   3.421  16.369  1.6684 -0.0449  0.3881
20168TIP3   OH281994   4.523   0.392   1.890 -0.5558 -0.1344  0.0598
20168TIP3    H181995   4.545   0.302   1.914  0.6746  0.2121  0.3143
20168TIP3    H281996   4.441   0.384   1.841 -0.4583 -1.3897  0.0510
20169TIP3   OH281997   6.001   0.306   3.730  0.1529 -0.2095  0.2740
20169TIP3    H181998   5.959   0.224   3.706 -1.4575  0.2583  1.3277
20169TIP3    H281999   5.950   0.339   3.804  1.5924  1.0731  0.7704
20170TIP3   OH282000   4.000   4.179  12.352  0.0205 -0.8980  0.0559
20170TIP3    H182001   3.999   4.261  12.401  2.0960  0.0650 -1.3482
20170TIP3    H282002   3.908   4.158  12.339 -0.5693  0.5792  1.4405
20171TIP3   OH282003   6.079   3.185  11.462 -0.3584 -0.6635  0.2203
20171TIP3    H182004   5.996   3.169  11.418 -0.1335 -0.0675 -0.4340
20171TIP3    H282005   6.111   3.267  11.424 -0.8516  0.6811  2.4794
20172TIP3   OH282006   4.534   1.755   3.526 -0.2263  0.3327 -0.2406
20172TIP3    H182007   4.477   1.717   3.593  0.0023  0.1938 -0.1219
20172TIP3    H282008   4.474   1.793   3.462 -0.4499  0.9014  0.2936
20173TIP3   OH282009   0.267   2.385   4.465  0.6132  0.1221  0.2317
20173TIP3    H182010   0.258   2.470   4.422 -0.3217  0.0459  0.2643
20173TIP3    H282011   0.290   2.406   4.556  0.3922  0.3414  0.2373
20174TIP3   OH282012   6.406   1.908   4.977  0.1318 -0.3567 -0.7363
20174TIP3    H182013   6.416   1.813   4.983 -0.0391 -0.2932  2.2182
20174TIP3    H282014   6.362   1.922   4.894 -1.2162 -3.0192 -0.5899
20175TIP3   OH282015   4.976   3.671   4.697 -0.3234 -0.5870 -0.2647
20175TIP3    H182016   5.049   3.610   4.713 -1.1790 -1.2528  1.3588
20175TIP3    H282017   4.905   3.615   4.666 -0.6388 -0.1722 -0.2966
20176TIP3   OH282018   3.076   3.006  13.634 -0.1224  0.0143  0.2191
20176TIP3    H182019   2.988   3.006  13.596 -0.2124 -1.1173  0.3908
20176TIP3    H282020   3.110   3.094  13.617 -1.5623  0.7165  0.7866
20177TIP3   OH282021   1.121   0.533  16.429 -0.0399  0.0253  0.0182
20177TIP3    H182022   1.075   0.609  16.394  0.4507  0.1417 -0.3775
20177TIP3    H282023   1.213   0.551  16.414  0.1070 -0.4777  0.2699
20178TIP3   OH282024   4.273   6.051   6.364  0.2106  0.5090 -0.5150
20178TIP3    H182025   4.317   6.074   6.282 -0.1396 -2.6342 -1.7410
20178TIP3    H282026   4.184   6.028   6.339  0.3922 -1.5790  0.5008
20179TIP3   OH282027   4.469   4.972   3.042  0.3421 -0.4416 -0.2882
20179TIP3    H182028   4.561   4.948   3.037  1.2120  1.7358  2.6083
20179TIP3    H282029   4.422   4.894   3.012  3.0463 -2.7407  1.0359
20180TIP3   OH282030   0.955   0.528   2.848  0.1204  0.0690  0.0823
20180TIP3    H182031   0.873   0.524   2.897 -0.4933 -1.7783 -1.0194
20180TIP3    H282032   0.963   0.442   2.806  2.0156  0.6241 -0.8129
20181TIP3   OH282033   1.573   4.159  11.354  0.0793 -0.0722 -0.3507
20181TIP3    H182034   1.510   4.229  11.367  0.0505 -0.2330  0.3781
20181TIP3    H282035   1.653   4.189  11.397  0.0839 -0.4651 -0.0811
20182TIP3   OH282036   2.956   5.044   4.218 -0.0293 -0.4036  0.0949
20182TIP3    H182037   2.996   4.974   4.167 -0.0580 -0.3275 -0.0317
20182TIP3    H282038   2.879   5.069   4.168 -1.0422 -1.5192  1.0383
20183TIP3   OH282039   4.190   5.627  14.429  0.0202 -0.7116 -0.0331
20183TIP3    H182040   4.232   5.675  14.358 -0.4379 -1.5676 -0.9248
20183TIP3    H282041   4.104   5.603  14.393 -0.5488 -0.4598  1.1183
20184TIP3   OH282042   6.082   2.267   0.396 -0.1421 -0.5851  0.0035
20184TIP3    H182043   6.020   2.229   0.459 -0.3986  0.3863  0.3509
20184TIP3    H282044   6.093   2.199   0.329 -0.2055 -1.4587  0.8657
20185TIP3   OH282045   0.251   2.500   3.819 -0.0436 -0.1257  0.5063
20185TIP3    H182046   0.226   2.470   3.906  0.7167  1.1450  1.1969
20185TIP3    H282047   0.172   2.540   3.783  0.2020  1.3243  1.5228
20186TIP3   OH282048   0.332   5.050  10.836 -0.1402  0.5516  0.1396
20186TIP3    H182049   0.296   5.028  10.750  0.1405 -0.2301  0.2212
20186TIP3    H282050   0.394   5.121  10.818  0.1377  0.1933 -0.3455
20187TIP3   OH282051   2.633   3.846  16.182  0.4057  0.4305 -0.0875
20187TIP3    H182052   2.622   3.894  16.100  0.3867  0.4442 -0.0765
20187TIP3    H282053   2.727   3.848  16.198  0.6338 -1.0097 -0.9839
20188TIP3   OH282054   6.348   4.623  13.234  0.1713 -0.4622 -0.4698
20188TIP3    H182055   6.284   4.558  13.205 -3.0060  0.8754  2.7684
20188TIP3    H282056   6.387   4.585  13.313  1.7629 -0.2956 -1.1431
20189TIP3   OH282057   2.678   5.158  16.132 -0.0752 -0.2633 -0.3580
20189TIP3    H182058   2.739   5.189  16.200  2.2736 -0.3158 -2.2889
20189TIP3    H282059   2.620   5.233  16.116 -0.3630 -0.0803  1.2913
20190TIP3   OH282060   2.847   5.943   2.255  0.2027  0.2096 -0.5515
20190TIP3    H182061   2.829   6.007   2.324 -0.9870 -0.1827 -0.4786
20190TIP3    H282062   2.825   5.989   2.174  0.6222  0.3293 -0.6000
20191TIP3   OH282063   5.062   5.428  16.604 -0.0365  0.0466  0.0193
20191TIP3    H182064   5.140   5.411  16.551 -0.0809 -0.6439  0.1654
20191TIP3    H282065   5.095   5.479  16.679  0.4652 -1.1098  0.6098
20192TIP3   OH282066   2.787   1.510   3.812  0.1237  0.2600  0.2307
20192TIP3    H182067   2.707   1.544   3.771 -0.4135  1.3928  2.1309
20192TIP3    H282068   2.858   1.560   3.772 -0.2520  0.3908 -0.2861
20193TIP3   OH282069   6.578   0.093   3.464  0.4805 -0.3038 -0.2197
20193TIP3    H182070   6.644   0.115   3.398 -0.9526 -0.2477 -1.6791
20193TIP3    H282071   6.527   0.173   3.475 -0.5645 -0.9100 -0.5739
20194TIP3   OH282072   4.449   3.294  12.416  0.7357  0.1692  0.0378
20194TIP3    H182073   4.484   3.298  12.505  1.7074 -0.5387 -0.2968
20194TIP3    H282074   4.522   3.262  12.363 -0.2133 -0.6523 -0.8055
20195TIP3   OH282075   5.380   1.752  12.462  0.1662 -0.1629 -0.1993
20195TIP3    H182076   5.432   1.833  12.461 -1.7260  1.1073 -0.8084
20195TIP3    H282077   5.316   1.766  12.531  0.9611 -1.9757  0.9679
20196TIP3   OH282078   0.338   4.785   5.678 -0.1542 -0.5488  0.4363
20196TIP3    H182079   0.331   4.761   5.770  1.3001  0.9413  1.0022
20196TIP3    H282080   0.257   4.755   5.638 -1.0473 -0.7435  2.3140
20197TIP3   OH282081   2.278   3.718   3.058  0.1060  0.3916 -0.1137
20197TIP3    H182082   2.246   3.671   3.135 -0.5961 -1.1699 -1.2890
20197TIP3    H282083   2.322   3.795   3.093  0.5258 -0.6848  1.8804
20198TIP3   OH282084   2.940   1.583   4.158 -0.2236 -0.0761  0.4328
20198TIP3    H182085   2.994   1.547   4.228 -0.2288 -1.5451 -0.2752
20198TIP3    H282086   2.992   1.571   4.078  0.2863  2.6321  0.2584
20199TIP3   OH282087   0.755   5.504  16.074 -0.2724  0.3760  0.5866
20199TIP3    H182088   0.748   5.540  15.985  1.7714 -0.8249 -0.1167
20199TIP3    H282089   0.726   5.414  16.066  3.1675 -0.8499  0.2588
20200TIP3   OH282090   6.371   1.391   2.998 -0.3540  0.0841  0.4649
20200TIP3    H182091   6.366   1.459   2.931 -0.2172 -0.2266  0.1427
20200TIP3    H282092   6.447   1.415   3.050  0.4876 -0.5449 -0.4449
20201TIP3   OH282093   4.616   5.436   5.021  0.6666  0.4357  0.3117
20201TIP3    H182094   4.686   5.490   4.983  1.7823 -1.2120 -0.0719
20201TIP3    H282095   4.535   5.481   4.995  1.5286  2.9080  1.5629
20202TIP3   OH282096   3.396   2.516  15.368 -0.2306 -0.0920  0.1335
20202TIP3    H182097   3.463   2.584  15.373  0.1241 -0.4914  1.0723
20202TIP3    H282098   3.366   2.504  15.458  0.5202 -1.9406  0.1950
20203TIP3   OH282099   0.664   6.248   3.037 -0.6754  0.5525  1.0293
20203TIP3    H182100   0.574   6.254   3.007 -0.8148  0.4218  1.4155
20203TIP3    H282101   0.658   6.247   3.132 -0.2317  1.0481  1.0671
20204TIP3   OH282102   1.300   0.577  14.204 -0.6374  0.0754  0.6728
20204TIP3    H182103   1.280   0.659  14.159 -1.0925  0.3688  1.3930
20204TIP3    H282104   1.246   0.512  14.160  3.0827 -0.8772 -3.1181
20205TIP3   OH282105   5.975   0.793  16.241  0.8079  0.8264 -0.4557
20205TIP3    H182106   6.022   0.745  16.172  2.4176  0.4232  0.8368
20205TIP3    H282107   6.042   0.808  16.308  0.5097  5.2037 -0.8781
20206TIP3   OH282108   0.666   5.798   1.008  0.3576 -0.7573  0.5578
20206TIP3    H182109   0.708   5.866   0.956  0.0332 -0.1845  1.0333
20206TIP3    H282110   0.593   5.768   0.953 -1.3784  1.4181  1.5379
20207TIP3   OH282111   2.822   0.623   3.767  0.0178  0.1054  0.2071
20207TIP3    H182112   2.841   0.704   3.815 -1.3243  0.1115  0.7636
20207TIP3    H282113   2.834   0.647   3.675 -0.6325  1.0242  0.3449
20208TIP3   OH282114   0.881   0.215  11.114  0.6613 -0.2958  0.1975
20208TIP3    H182115   0.813   0.245  11.173 -0.2164 -0.2644 -0.7950
20208TIP3    H282116   0.876   0.275  11.039 -0.1213 -1.9552 -1.1587
20209TIP3   OH282117   4.107   3.540  11.759 -0.1304  0.2274 -0.1837
20209TIP3    H182118   4.044   3.528  11.830 -0.9055  0.9320 -0.7385
20209TIP3    H282119   4.156   3.458  11.757 -0.9496 -0.2904  0.3415
20210TIP3   OH282120   4.134   1.683  15.177  0.0500  0.1446  0.1976
20210TIP3    H182121   4.091   1.674  15.262 -0.0262  0.3765  0.1813
20210TIP3    H282122   4.094   1.760  15.137  0.8973  0.7236  0.4341
20211TIP3   OH282123   4.845   0.316  16.464  0.0516  0.0900 -0.0519
20211TIP3    H182124   4.795   0.255  16.518  0.1841 -0.6120 -0.7053
20211TIP3    H282125   4.779   0.357  16.407  0.0972 -0.1821 -0.3021
20212TIP3   OH282126   6.121   2.794  15.176  0.6180 -0.0570 -0.0622
20212TIP3    H182127   6.121   2.828  15.086  2.8346  0.5396  0.1136
20212TIP3    H282128   6.029   2.797  15.202  0.1007  1.1078 -1.8088
20213TIP3   OH282129   1.635   4.171  13.550  0.3838  0.0140 -0.0061
20213TIP3    H182130   1.585   4.130  13.621  0.3027 -1.5747 -0.9258
20213TIP3    H282131   1.690   4.100  13.516 -0.4736  0.3546 -2.3132
20214TIP3   OH282132   0.026   6.401   2.705 -0.2154  0.0988 -0.4522
20214TIP3    H182133   0.025   6.359   2.791 -0.6068  0.3817 -0.3131
20214TIP3    H282134   0.098   6.463   2.709 -1.2461  1.3075  0.2743
20215TIP3   OH282135   6.100   0.134  12.325 -0.4016 -0.5928 -0.1361
20215TIP3    H182136   6.023   0.156  12.377  0.1473 -0.6708  0.7216
20215TIP3    H282137   6.168   0.113  12.389  0.4094 -0.2918 -0.8707
20216TIP3   OH282138   3.106   1.730  11.061  0.3325  0.4605  0.9341
20216TIP3    H182139   3.082   1.748  11.152 -1.4204 -0.0892  0.6210
20216TIP3    H282140   3.024   1.702  11.019  1.2276  0.0525 -0.6543
20217TIP3   OH282141   4.538   3.097   3.571 -0.7085 -0.3405  0.3576
20217TIP3    H182142   4.591   3.176   3.577  0.7792 -1.3664  1.3765
20217TIP3    H282143   4.544   3.057   3.658 -4.3915  0.2153  1.0402
20218TIP3   OH282144   1.388   4.925   0.868 -0.3515 -0.3945 -1.2255
20218TIP3    H182145   1.334   4.983   0.921 -1.1020 -1.0890 -1.2091
20218TIP3    H282146   1.335   4.907   0.790 -0.0876 -0.9717 -1.2752
20219TIP3   OH282147   3.523   2.031   4.327  0.4968  0.1264 -0.4188
20219TIP3    H182148   3.447   1.986   4.363  0.3704  0.1678 -0.6383
20219TIP3    H282149   3.492   2.074   4.248  0.2739  1.7943  0.5258
20220TIP3   OH282150   4.053   0.211   0.868 -0.2515  0.2964 -0.3678
20220TIP3    H182151   4.080   0.123   0.841  0.3046  0.6783 -1.0874
20220TIP3    H282152   4.022   0.252   0.788 -0.7725  0.6679  0.0193
20221TIP3   OH282153   2.634   4.002  14.049  0.8401 -0.3710  0.5263
20221TIP3    H182154   2.678   4.057  14.113 -1.5872  0.6354  1.4180
20221TIP3    H282155   2.619   4.060  13.974 -0.5517 -0.1484  0.9533
20222TIP3   OH282156   2.949   6.677   3.054  0.7629  0.0142  0.1461
20222TIP3    H182157   3.014   6.713   2.994  0.5224  0.2858  0.0450
20222TIP3    H282158   2.865   6.692   3.010  0.7193 -1.6385 -0.3943
20223TIP3   OH282159   0.622   0.022   0.774  0.2118 -0.2575  0.0231
20223TIP3    H182160   0.697  -0.035   0.787  0.4532  0.0056 -0.1999
20223TIP3    H282161   0.653   0.109   0.800 -0.0515 -0.1673  0.0437
20224TIP3   OH282162   5.496   2.592  10.679  0.4160  0.2791 -0.3660
20224TIP3    H182163   5.493   2.534  10.603 -0.2338 -0.4661  0.2093
20224TIP3    H282164   5.410   2.634  10.680  0.9228  1.3644 -0.8462
20225TIP3   OH282165   5.900   0.856  15.507  0.2013 -0.2927  0.1719
20225TIP3    H182166   5.963   0.787  15.487  0.4962 -0.0080  0.1125
20225TIP3    H282167   5.847   0.820  15.578 -0.5376 -1.1219 -0.7596
20226TIP3   OH282168   6.645   1.660   0.339  0.2392  0.7358 -0.0903
20226TIP3    H182169   6.717   1.599   0.358  0.8292  1.7022  0.8933
20226TIP3    H282170   6.579   1.606   0.296  0.2694 -0.8606  1.7307
20227TIP3   OH282171   4.073   2.615   4.987  0.5357  0.1070  0.0648
20227TIP3    H182172   4.074   2.704   4.954  0.6519  0.7450  1.7283
20227TIP3    H282173   4.120   2.564   4.920  0.4476  1.2707 -0.9051
20228TIP3   OH282174   6.408   1.996   6.201  0.8182 -0.4220 -0.8843
20228TIP3    H182175   6.360   2.005   6.284  0.4173  0.2741 -1.1777
20228TIP3    H282176   6.470   2.070   6.202 -0.3398  0.6143 -1.9374
20229TIP3   OH282177   4.445   0.172  10.866  0.4191 -0.5649  0.1014
20229TIP3    H182178   4.529   0.130  10.881  0.6013 -0.3886 -0.4114
20229TIP3    H282179   4.439   0.239  10.934  0.0369 -1.5356  1.0555
20230TIP3   OH282180   4.724   2.242   6.786 -0.1995  0.6141  0.6914
20230TIP3    H182181   4.655   2.184   6.752 -0.1284 -0.7032  2.6248
20230TIP3    H282182   4.679   2.322   6.810 -0.4890  1.0006 -1.0388
20231TIP3   OH282183   3.006   6.766   2.281  0.1569  0.2954  0.2320
20231TIP3    H182184   3.073   6.762   2.349  0.5335 -4.5263 -0.0603
20231TIP3    H282185   3.055   6.780   2.200  0.2522  1.3800  0.4711
20232TIP3   OH282186   2.682   0.481  10.995 -0.1504  0.0686  0.7201
20232TIP3    H182187   2.649   0.518  11.077  1.6235  1.2384  0.9654
20232TIP3    H282188   2.777   0.494  11.000 -0.0782  1.0527 -1.9355
20233TIP3   OH282189   5.598   6.567  14.031  0.4081  0.0413 -0.1803
20233TIP3    H182190   5.522   6.563  14.089  0.8911  1.3446  0.5864
20233TIP3    H282191   5.673   6.566  14.091  1.0677 -1.9216 -0.9438
20234TIP3   OH282192   0.218   2.787  10.416 -0.6298  0.0062 -0.1960
20234TIP3    H182193   0.125   2.769  10.405 -0.7806  1.4381 -1.7453
20234TIP3    H282194   0.261   2.728  10.354 -0.5918  0.1000 -0.2594
20235TIP3   OH282195   0.777   5.243  14.869 -0.5045  0.0121 -0.1023
20235TIP3    H182196   0.727   5.182  14.815 -0.2355  1.3694 -1.9817
20235TIP3    H282197   0.711   5.284  14.925 -0.5823 -2.5618  1.9278
20236TIP3   OH282198   4.348   6.772  15.055 -0.0342 -0.3070  0.1658
20236TIP3    H182199   4.335   6.721  14.974  1.2587 -0.4595  0.0359
20236TIP3    H282200   4.284   6.843  15.049 -1.5134 -1.5812  0.0885
20237TIP3   OH282201   4.871   6.770   5.280 -0.6796  0.0227  0.0704
20237TIP3    H182202   4.828   6.846   5.241 -2.1992 -0.6305  0.3861
20237TIP3    H282203   4.870   6.704   5.210 -0.0054  0.0555  0.0249
20238TIP3   OH282204   3.238   5.241  12.296  0.2495 -0.1529 -0.6859
20238TIP3    H182205   3.199   5.223  12.382  0.0015 -3.2416 -1.3585
20238TIP3    H282206   3.164   5.264  12.240  0.2184  0.2313 -0.4962
20239TIP3   OH282207   4.198   1.700   1.754 -0.0214 -0.2874  0.5439
20239TIP3    H182208   4.182   1.683   1.846  1.0515 -1.1595  0.5798
20239TIP3    H282209   4.269   1.764   1.753 -0.2363 -0.0490  0.3247
20240TIP3   OH282210   2.535   0.597   2.262  0.4092 -0.0271 -0.4534
20240TIP3    H182211   2.624   0.562   2.257  0.6654  0.6628 -0.8675
20240TIP3    H282212   2.514   0.623   2.173  0.8763  2.4064  0.0761
20241TIP3   OH282213   1.914   3.839  11.641 -0.0438  0.2017 -0.6525
20241TIP3    H182214   1.954   3.766  11.689  1.8587  0.8281 -1.2027
20241TIP3    H282215   1.878   3.799  11.562  2.2353 -0.0228 -1.6573
20242TIP3   OH282216   4.782   2.669   0.105 -0.2421 -0.5582  0.0092
20242TIP3    H182217   4.745   2.593   0.059  0.7823 -0.2931 -1.3207
20242TIP3    H282218   4.723   2.741   0.084  1.3250  0.0526 -2.7909
20243TIP3   OH282219   1.700   2.314   2.999  0.3996  0.0655  0.2281
20243TIP3    H182220   1.733   2.359   2.922 -0.4463  0.5248  0.1206
20243TIP3    H282221   1.616   2.356   3.018 -0.9233 -2.0795 -0.4484
20244LIG      S82222   3.413   2.844  15.934 -0.3083  0.1928  0.1887
20244LIG      O82223   3.415   3.633  16.724  0.1609  0.0175  0.4798
20244LIG     N182224   3.472   2.879  16.252  0.4478  0.0434 -0.0222
20244LIG     N282225   3.715   3.554  16.575 -0.4479  0.1149  0.7520
20244LIG     N382226   3.591   3.613  16.868  0.3985 -0.1562 -0.3637
20244LIG     N482227   3.480   3.588  16.932  0.5139  0.1091 -0.0643
20244LIG     C182228   3.533   3.011  16.282 -0.1744  0.0085  0.2457
20244LIG     C282229   3.555   2.786  16.173  0.2550 -0.2034  0.6930
20244LIG     C382230   3.337   2.885  16.204 -0.3023  0.0368 -0.2510
20244LIG     C482231   3.441   3.095  16.375  0.2069  0.1232 -0.3069
20244LIG     C582232   3.572   2.829  16.028  0.2641 -1.0629 -0.3940
20244LIG     C682233   3.334   2.943  16.067  0.1264 -0.1867 -0.5286
20244LIG     C782234   3.515   3.216  16.429 -0.4515 -0.0981  0.1418
20244LIG     C882235   3.563   3.216  16.565 -0.2076 -0.3489 -0.3456
20244LIG     C982236   3.537   3.325  16.343 -0.5660  0.4312  0.0207
20244LIG    C1082237   3.651   3.439  16.528  0.0089  0.1883  0.2126
20244LIG    C1182238   3.654   3.678  16.637  0.2920 -0.9014 -0.0092
20244LIG    C1282239   3.627   3.328  16.614 -0.1812 -0.2981  1.1377
20244LIG    C1382240   3.600   3.431  16.398  0.0077 -0.4123  0.5012
20244LIG    C1482241   3.554   3.638  16.743 -0.2653  0.0316  0.1342
20244LIG    C1582242   3.601   3.770  16.534  0.3020  0.1899  0.4480
20244LIG    C1682243   3.374   3.592  16.849 -0.5097  0.5098 -0.0097
20244LIG    C1782244   3.232   3.574  16.891 -0.2785  0.9051  0.3181
20244LIG    C1882245   3.132   3.627  16.816  0.7774 -0.2449 -0.5639
20244LIG    C1982246   3.199   3.496  17.004  0.8162 -0.1024  0.3115
20244LIG    C2082247   2.998   3.616  16.853 -0.1839  0.1995  0.4169
20244LIG    C2182248   3.061   3.474  17.039 -0.4496 -0.5005 -0.9097
20244LIG    C2282249   2.966   3.535  16.963 -0.2448 -0.5271  0.3754
20244LIG     H182250   3.542   3.055  16.181 -1.5196 -0.5691 -0.1403
20244LIG     H282251   3.637   2.994  16.318 -0.4458 -0.7351  0.7066
20244LIG     H382252   3.517   2.682  16.171 -0.0027 -0.1371 -2.1316
20244LIG     H482253   3.659   2.780  16.212  0.0497 -0.2006  1.2512
20244LIG     H582254   3.273   2.940  16.277 -0.5690 -1.0634  0.3739
20244LIG     H682255   3.295   2.783  16.191  1.2766 -0.8290  1.0536
20244LIG     H782256   3.401   3.029  16.455 -1.0047  1.5345  0.3016
20244LIG     H882257   3.353   3.127  16.314 -1.4859 -0.4767  1.7033
20244LIG     H982258   3.615   2.932  16.022 -2.3073  0.0338 -1.7301
20244LIG    H1082259   3.645   2.762  15.978  0.3681 -0.3899 -1.1829
20244LIG    H1182260   3.225   2.935  16.046 -0.7270  2.8304  2.0594
20244LIG    H1282261   3.356   3.052  16.068 -0.8459  0.0212  0.7824
20244LIG    H1382262   3.560   3.125  16.624  0.5767 -1.2643 -1.6752
20244LIG    H1482263   3.503   3.309  16.242 -1.0366 -4.2181  0.6787
20244LIG    H1582264   3.731   3.732  16.697 -2.2243  1.1439  1.5945
20244LIG    H1682265   3.675   3.333  16.711  0.9508  1.2163  0.5421
20244LIG    H1782266   3.628   3.513  16.334  1.3963 -2.0576 -1.1216
20244LIG    H1882267   3.789   3.581  16.510 -0.1625  0.5479  1.2522
20244LIG    H1982268   3.673   3.798  16.454 -0.2196 -1.4355 -0.6533
20244LIG    H2082269   3.564   3.864  16.579  2.2217  0.2737  1.9915
20244LIG    H2182270   3.529   3.729  16.460  2.0995 -0.2420 -1.1449
20244LIG    H2282271   3.163   3.681  16.728 -1.0669 -0.7541 -1.5831
20244LIG    H2382272   3.276   3.447  17.061 -1.2241 -2.4516  1.1991
20244LIG    H2482273   2.913   3.655  16.798 -2.6948 -2.4896  2.1144
20244LIG    H2582274   3.041   3.416  17.127 -0.1572  1.2056  0.3409
20244LIG    H2682275   2.861   3.519  16.984  0.0142 -2.8259  0.0989
   6.81771   6.81771  17.23869
